Built with Packmol
106814
    1PS8B    C0    1   5.446   8.073   7.613
    1PS8B    C1    2   5.549   8.201   7.552
    1PS8B    C2    3   5.723   8.204   7.536
    1PS8B    C3    4   5.849   8.339   7.543
    1PS8B    B4    5   5.863   8.455   7.467
    1PS8B    B5    6   5.958   8.562   7.416
    1PS8B    B6    7   6.088   8.558   7.420
    1PS8B    B7    8   6.176   8.464   7.422
    1PS8B    B8    9   6.195   8.356   7.354
    1PS8B    B9   10   6.164   8.314   7.236
    1PS8B   B10   11   6.124   8.368   7.134
    1PS8B   B11   12   6.050   8.465   7.109
    1PS8B   B12   13   6.048   8.588   7.143
    1PS8B   B13   14   6.132   8.669   7.198
    1PS8B   B14   15   6.230   8.656   7.280
    1PS8B   B15   16   6.300   8.556   7.326
    1PS8B   B16   17   6.122   8.470   7.096
    1PS8B   B17   18   6.200   8.468   7.149
    1PS8B   B18   19   6.177   8.546   7.107
    1PS8B   B19   20   6.289   8.403   7.181
    1PS8B   B20   21   6.356   8.315   7.116
    1PS8B   B21   22   6.378   8.290   6.991
    1PS8B   B22   23   6.356   8.190   6.913
    1PS8B   B23   24   6.369   8.169   6.786
    1PS8B   B24   25   6.216   8.634   7.056
    1PS8B   B25   26   6.187   8.708   6.955
    1PS8B   B26   27   6.096   8.708   6.865
    1PS8B   B27   28   5.982   8.766   6.851
    1PS8B   B28   29   5.926   8.837   6.760
    1PS8B   B29   30   6.445   8.558   7.367
    1PS8B   C30   31   6.542   8.616   7.452
    1PS8B   C31   32   6.521   8.719   7.603
    1PS8B   C32   33   6.580   8.876   7.651
    1PS8B   C33   34   6.745   8.934   7.660
    2PS8B    C0   35   6.143   8.172   6.996
    2PS8B    C1   36   6.210   8.035   7.082
    2PS8B    C2   37   6.142   7.875   7.104
    2PS8B    C3   38   6.156   7.748   7.238
    2PS8B    B4   39   6.268   7.684   7.291
    2PS8B    B5   40   6.320   7.561   7.364
    2PS8B    B6   41   6.256   7.450   7.385
    2PS8B    B7   42   6.161   7.388   7.324
    2PS8B    B8   43   6.136   7.356   7.202
    2PS8B    B9   44   6.207   7.334   7.096
    2PS8B   B10   45   6.326   7.314   7.076
    2PS8B   B11   46   6.432   7.352   7.127
    2PS8B   B12   47   6.480   7.352   7.246
    2PS8B   B13   48   6.450   7.292   7.356
    2PS8B   B14   49   6.341   7.247   7.408
    2PS8B   B15   50   6.222   7.222   7.365
    2PS8B   B16   51   6.411   7.283   7.136
    2PS8B   B17   52   6.337   7.240   7.177
    2PS8B   B18   53   6.421   7.229   7.212
    2PS8B   B19   54   6.238   7.187   7.157
    2PS8B   B20   55   6.201   7.111   7.060
    2PS8B   B21   56   6.262   7.038   6.973
    2PS8B   B22   57   6.268   7.035   6.845
    2PS8B   B23   58   6.337   6.968   6.759
    2PS8B   B24   59   6.488   7.158   7.262
    2PS8B   B25   60   6.612   7.125   7.260
    2PS8B   B26   61   6.716   7.163   7.194
    2PS8B   B27   62   6.810   7.247   7.214
    2PS8B   B28   63   6.939   7.243   7.210
    2PS8B   B29   64   6.128   7.113   7.413
    2PS8B   C30   65   6.058   7.060   7.524
    2PS8B   C31   66   6.023   7.134   7.689
    2PS8B   C32   67   6.053   7.081   7.853
    2PS8B   C33   68   6.004   6.932   7.932
    3PS8B    C0   69   4.366   5.734   7.816
    3PS8B    C1   70   4.495   5.782   7.708
    3PS8B    C2   71   4.599   5.923   7.716
    3PS8B    C3   72   4.685   6.026   7.589
    3PS8B    B4   73   4.778   5.990   7.491
    3PS8B    B5   74   4.890   6.038   7.400
    3PS8B    B6   75   4.953   6.152   7.409
    3PS8B    B7   76   4.980   6.233   7.505
    3PS8B    B8   77   5.025   6.222   7.625
    3PS8B    B9   78   5.099   6.137   7.688
    3PS8B   B10   79   5.174   6.046   7.653
    3PS8B   B11   80   5.175   5.964   7.560
    3PS8B   B12   81   5.169   5.972   7.433
    3PS8B   B13   82   5.182   6.067   7.346
    3PS8B   B14   83   5.163   6.194   7.348
    3PS8B   B15   84   5.142   6.284   7.439
    3PS8B   B16   85   5.224   6.018   7.561
    3PS8B   B17   86   5.220   6.113   7.556
    3PS8B   B18   87   5.258   6.066   7.488
    3PS8B   B19   88   5.227   6.209   7.618
    3PS8B   B20   89   5.299   6.239   7.720
    3PS8B   B21   90   5.409   6.194   7.770
    3PS8B   B22   91   5.444   6.142   7.882
    3PS8B   B23   92   5.552   6.089   7.928
    3PS8B   B24   93   5.338   6.068   7.413
    3PS8B   B25   94   5.421   5.986   7.359
    3PS8B   B26   95   5.449   5.862   7.372
    3PS8B   B27   96   5.412   5.753   7.314
    3PS8B   B28   97   5.473   5.654   7.260
    3PS8B   B29   98   5.184   6.429   7.436
    3PS8B   C30   99   5.174   6.551   7.367
    3PS8B   C31  100   5.057   6.605   7.236
    3PS8B   C32  101   5.079   6.670   7.075
    3PS8B   C33  102   5.168   6.812   7.024
    4PS8B    C0  103   2.398   6.991   5.973
    4PS8B    C1  104   2.517   6.885   6.045
    4PS8B    C2  105   2.571   6.727   5.990
    4PS8B    C3  106   2.635   6.577   6.078
    4PS8B    B4  107   2.746   6.562   6.162
    4PS8B    B5  108   2.848   6.464   6.219
    4PS8B    B6  109   2.872   6.344   6.177
    4PS8B    B7  110   2.859   6.283   6.064
    4PS8B    B8  111   2.891   6.309   5.942
    4PS8B    B9  112   2.980   6.383   5.884
    4PS8B   B10  113   3.083   6.439   5.921
    4PS8B   B11  114   3.121   6.493   6.026
    4PS8B   B12  115   3.128   6.457   6.148
    4PS8B   B13  116   3.122   6.345   6.211
    4PS8B   B14  117   3.063   6.232   6.189
    4PS8B   B15  118   3.005   6.176   6.087
    4PS8B   B16  119   3.150   6.430   6.006
    4PS8B   B17  120   3.117   6.341   5.993
    4PS8B   B18  121   3.176   6.358   6.061
    4PS8B   B19  122   3.087   6.264   5.914
    4PS8B   B20  123   3.133   6.241   5.796
    4PS8B   B21  124   3.245   6.264   5.736
    4PS8B   B22  125   3.280   6.330   5.632
    4PS8B   B23  126   3.393   6.361   5.577
    4PS8B   B24  127   3.260   6.317   6.118
    4PS8B   B25  128   3.370   6.357   6.170
    4PS8B   B26  129   3.433   6.469   6.176
    4PS8B   B27  130   3.439   6.566   6.260
    4PS8B   B28  131   3.534   6.629   6.320
    4PS8B   B29  132   3.000   6.028   6.055
    4PS8B   C30  133   2.961   5.900   6.100
    4PS8B   C31  134   2.850   5.851   6.238
    4PS8B   C32  135   2.869   5.747   6.377
    4PS8B   C33  136   2.916   5.578   6.382
    5PS8B    C0  137   5.627   5.402   6.397
    5PS8B    C1  138   5.585   5.546   6.308
    5PS8B    C2  139   5.454   5.659   6.337
    5PS8B    C3  140   5.353   5.768   6.227
    5PS8B    B4  141   5.392   5.870   6.139
    5PS8B    B5  142   5.350   5.996   6.065
    5PS8B    B6  143   5.243   6.067   6.088
    5PS8B    B7  144   5.168   6.087   6.191
    5PS8B    B8  145   5.188   6.116   6.315
    5PS8B    B9  146   5.282   6.174   6.381
    5PS8B   B10  147   5.377   6.245   6.351
    5PS8B   B11  148   5.455   6.252   6.255
    5PS8B   B12  149   5.440   6.263   6.128
    5PS8B   B13  150   5.343   6.294   6.049
    5PS8B   B14  151   5.215   6.284   6.055
    5PS8B   B15  152   5.129   6.259   6.149
    5PS8B   B16  153   5.405   6.305   6.265
    5PS8B   B17  154   5.310   6.308   6.265
    5PS8B   B18  155   5.357   6.351   6.199
    5PS8B   B19  156   5.218   6.315   6.331
    5PS8B   B20  157   5.199   6.376   6.444
    5PS8B   B21  158   5.255   6.475   6.504
    5PS8B   B22  159   5.315   6.491   6.616
    5PS8B   B23  160   5.379   6.588   6.673
    5PS8B   B24  161   5.359   6.439   6.134
    5PS8B   B25  162   5.445   6.522   6.086
    5PS8B   B26  163   5.571   6.538   6.096
    5PS8B   B27  164   5.674   6.501   6.028
    5PS8B   B28  165   5.775   6.560   5.976
    5PS8B   B29  166   4.987   6.313   6.159
    5PS8B   C30  167   4.861   6.321   6.096
    5PS8B   C31  168   4.792   6.226   5.954
    5PS8B   C32  169   4.722   6.273   5.801
    5PS8B   C33  170   4.586   6.379   5.769
    6PS8B    C0  171   5.543   7.283   6.699
    6PS8B    C1  172   5.576   7.379   6.842
    6PS8B    C2  173   5.463   7.470   6.942
    6PS8B    C3  174   5.479   7.623   7.044
    6PS8B    B4  175   5.564   7.652   7.151
    6PS8B    B5  176   5.585   7.738   7.275
    6PS8B    B6  177   5.496   7.811   7.335
    6PS8B    B7  178   5.368   7.808   7.345
    6PS8B    B8  179   5.280   7.717   7.372
    6PS8B    B9  180   5.281   7.605   7.437
    6PS8B   B10  181   5.358   7.553   7.517
    6PS8B   B11  182   5.480   7.552   7.534
    6PS8B   B12  183   5.570   7.642   7.547
    6PS8B   B13  184   5.570   7.769   7.572
    6PS8B   B14  185   5.487   7.865   7.550
    6PS8B   B15  186   5.363   7.874   7.514
    6PS8B   B16  187   5.438   7.588   7.582
    6PS8B   B17  188   5.380   7.663   7.576
    6PS8B   B18  189   5.457   7.669   7.625
    6PS8B   B19  190   5.270   7.694   7.572
    6PS8B   B20  191   5.165   7.643   7.628
    6PS8B   B21  192   5.144   7.567   7.730
    6PS8B   B22  193   5.091   7.451   7.748
    6PS8B   B23  194   5.079   7.372   7.849
    6PS8B   B24  195   5.501   7.712   7.715
    6PS8B   B25  196   5.585   7.679   7.807
    6PS8B   B26  197   5.654   7.574   7.834
    6PS8B   B27  198   5.773   7.535   7.809
    6PS8B   B28  199   5.871   7.490   7.878
    6PS8B   B29  200   5.264   7.982   7.554
    6PS8B   C30  201   5.236   8.120   7.552
    6PS8B   C31  202   5.312   8.256   7.456
    6PS8B   C32  203   5.386   8.409   7.500
    6PS8B   C33  204   5.319   8.540   7.594
    7PS8B    C0  205   3.384   8.800   4.420
    7PS8B    C1  206   3.516   8.861   4.518
    7PS8B    C2  207   3.665   8.780   4.563
    7PS8B    C3  208   3.776   8.792   4.710
    7PS8B    B4  209   3.844   8.901   4.764
    7PS8B    B5  210   3.962   8.947   4.849
    7PS8B    B6  211   4.063   8.874   4.886
    7PS8B    B7  212   4.122   8.770   4.839
    7PS8B    B8  213   4.167   8.734   4.723
    7PS8B    B9  214   4.207   8.797   4.617
    7PS8B   B10  215   4.241   8.912   4.593
    7PS8B   B11  216   4.207   9.024   4.633
    7PS8B   B12  217   4.198   9.079   4.748
    7PS8B   B13  218   4.241   9.052   4.866
    7PS8B   B14  219   4.270   8.943   4.929
    7PS8B   B15  220   4.288   8.819   4.896
    7PS8B   B16  221   4.273   8.998   4.651
    7PS8B   B17  222   4.303   8.923   4.702
    7PS8B   B18  223   4.318   9.008   4.733
    7PS8B   B19  224   4.348   8.818   4.694
    7PS8B   B20  225   4.431   8.768   4.609
    7PS8B   B21  226   4.519   8.817   4.528
    7PS8B   B22  227   4.538   8.814   4.401
    7PS8B   B23  228   4.621   8.871   4.320
    7PS8B   B24  229   4.389   9.071   4.787
    7PS8B   B25  230   4.433   9.192   4.782
    7PS8B   B26  231   4.413   9.293   4.707
    7PS8B   B27  232   4.336   9.396   4.711
    7PS8B   B28  233   4.353   9.523   4.701
    7PS8B   B29  234   4.381   8.719   4.963
    7PS8B   C30  235   4.414   8.653   5.082
    7PS8B   C31  236   4.319   8.635   5.239
    7PS8B   C32  237   4.355   8.672   5.406
    7PS8B   C33  238   4.488   8.615   5.505
    8PS8B    C0  239   3.062   7.506   5.446
    8PS8B    C1  240   3.095   7.673   5.490
    8PS8B    C2  241   3.165   7.735   5.638
    8PS8B    C3  242   3.146   7.894   5.730
    8PS8B    B4  243   3.167   8.026   5.690
    8PS8B    B5  244   3.198   8.168   5.735
    8PS8B    B6  245   3.240   8.204   5.853
    8PS8B    B7  246   3.306   8.147   5.948
    8PS8B    B8  247   3.414   8.078   5.954
    8PS8B    B9  248   3.521   8.067   5.883
    8PS8B   B10  249   3.572   8.134   5.794
    8PS8B   B11  250   3.530   8.205   5.702
    8PS8B   B12  251   3.449   8.304   5.694
    8PS8B   B13  252   3.397   8.386   5.779
    8PS8B   B14  253   3.365   8.380   5.904
    8PS8B   B15  254   3.391   8.299   6.001
    8PS8B   B16  255   3.563   8.237   5.759
    8PS8B   B17  256   3.544   8.243   5.852
    8PS8B   B18  257   3.540   8.318   5.800
    8PS8B   B19  258   3.573   8.203   5.955
    8PS8B   B20  259   3.687   8.165   6.002
    8PS8B   B21  260   3.810   8.188   5.972
    8PS8B   B22  261   3.910   8.116   5.936
    8PS8B   B23  262   4.031   8.141   5.897
    8PS8B   B24  263   3.560   8.426   5.799
    8PS8B   B25  264   3.606   8.514   5.718
    8PS8B   B26  265   3.652   8.513   5.598
    8PS8B   B27  266   3.602   8.533   5.481
    8PS8B   B28  267   3.632   8.607   5.380
    8PS8B   B29  268   3.404   8.335   6.148
    8PS8B   C30  269   3.339   8.390   6.260
    8PS8B   C31  270   3.162   8.429   6.289
    8PS8B   C32  271   3.076   8.574   6.336
    8PS8B   C33  272   3.100   8.676   6.477
    9PS8B    C0  273   4.160   6.778   4.651
    9PS8B    C1  274   4.214   6.636   4.739
    9PS8B    C2  275   4.123   6.493   4.782
    9PS8B    C3  276   4.133   6.373   4.923
    9PS8B    B4  277   4.238   6.293   4.966
    9PS8B    B5  278   4.278   6.168   5.043
    9PS8B    B6  279   4.199   6.072   5.081
    9PS8B    B7  280   4.087   6.024   5.037
    9PS8B    B8  281   4.041   5.990   4.922
    9PS8B    B9  282   4.093   5.950   4.811
    9PS8B   B10  283   4.202   5.907   4.777
    9PS8B   B11  284   4.319   5.928   4.812
    9PS8B   B12  285   4.382   5.926   4.924
    9PS8B   B13  286   4.358   5.880   5.041
    9PS8B   B14  287   4.250   5.858   5.110
    9PS8B   B15  288   4.124   5.852   5.084
    9PS8B   B16  289   4.288   5.864   4.829
    9PS8B   B17  290   4.214   5.838   4.883
    9PS8B   B18  291   4.299   5.814   4.907
    9PS8B   B19  292   4.105   5.803   4.879
    9PS8B   B20  293   4.043   5.729   4.794
    9PS8B   B21  294   4.078   5.641   4.707
    9PS8B   B22  295   4.067   5.630   4.579
    9PS8B   B23  296   4.110   5.546   4.491
    9PS8B   B24  297   4.359   5.735   4.954
    9PS8B   B25  298   4.474   5.681   4.940
    9PS8B   B26  299   4.572   5.695   4.859
    9PS8B   B27  300   4.682   5.762   4.860
    9PS8B   B28  301   4.806   5.735   4.841
    9PS8B   B29  302   4.020   5.766   5.152
    9PS8B   C30  303   3.958   5.733   5.274
    9PS8B   C31  304   3.959   5.821   5.436
    9PS8B   C32  305   4.002   5.773   5.599
    9PS8B   C33  306   3.939   5.641   5.695
   10PS8B    C0  307   4.213   6.455   9.109
   10PS8B    C1  308   4.320   6.554   9.012
   10PS8B    C2  309   4.280   6.686   8.904
   10PS8B    C3  310   4.358   6.752   8.750
   10PS8B    B4  311   4.487   6.801   8.727
   10PS8B    B5  312   4.575   6.890   8.640
   10PS8B    B6  313   4.534   6.978   8.554
   10PS8B    B7  314   4.427   7.050   8.541
   10PS8B    B8  315   4.358   7.125   8.619
   10PS8B    B9  316   4.381   7.192   8.728
   10PS8B   B10  317   4.482   7.229   8.785
   10PS8B   B11  318   4.596   7.184   8.801
   10PS8B   B12  319   4.688   7.142   8.722
   10PS8B   B13  320   4.712   7.152   8.595
   10PS8B   B14  321   4.638   7.164   8.491
   10PS8B   B15  322   4.513   7.193   8.468
   10PS8B   B16  323   4.587   7.242   8.758
   10PS8B   B17  324   4.540   7.259   8.677
   10PS8B   B18  325   4.632   7.263   8.678
   10PS8B   B19  326   4.446   7.306   8.632
   10PS8B   B20  327   4.379   7.410   8.668
   10PS8B   B21  328   4.405   7.516   8.737
   10PS8B   B22  329   4.358   7.569   8.844
   10PS8B   B23  330   4.391   7.670   8.918
   10PS8B   B24  331   4.718   7.315   8.637
   10PS8B   B25  332   4.833   7.357   8.677
   10PS8B   B26  333   4.897   7.357   8.788
   10PS8B   B27  334   4.984   7.281   8.843
   10PS8B   B28  335   5.100   7.297   8.897
   10PS8B   B29  336   4.457   7.265   8.347
   10PS8B   C30  337   4.444   7.265   8.207
   10PS8B   C31  338   4.473   7.131   8.085
   10PS8B   C32  339   4.573   7.119   7.941
   10PS8B   C33  340   4.573   7.220   7.799
   11PS8B    C0  341   3.318   7.639   8.597
   11PS8B    C1  342   3.301   7.811   8.570
   11PS8B    C2  343   3.363   7.909   8.439
   11PS8B    C3  344   3.417   8.085   8.425
   11PS8B    B4  345   3.347   8.203   8.451
   11PS8B    B5  346   3.337   8.353   8.422
   11PS8B    B6  347   3.398   8.417   8.327
   11PS8B    B7  348   3.443   8.386   8.211
   11PS8B    B8  349   3.397   8.321   8.109
   11PS8B    B9  350   3.279   8.294   8.063
   11PS8B   B10  351   3.167   8.339   8.083
   11PS8B   B11  352   3.107   8.384   8.181
   11PS8B   B12  353   3.130   8.478   8.265
   11PS8B   B13  354   3.211   8.577   8.271
   11PS8B   B14  355   3.329   8.602   8.224
   11PS8B   B15  356   3.405   8.547   8.135
   11PS8B   B16  357   3.126   8.429   8.127
   11PS8B   B17  358   3.208   8.458   8.089
   11PS8B   B18  359   3.155   8.518   8.134
   11PS8B   B19  360   3.279   8.445   8.001
   11PS8B   B20  361   3.255   8.421   7.876
   11PS8B   B21  362   3.154   8.437   7.798
   11PS8B   B22  363   3.080   8.359   7.727
   11PS8B   B23  364   2.973   8.375   7.657
   11PS8B   B24  365   3.122   8.622   8.135
   11PS8B   B25  366   3.015   8.689   8.159
   11PS8B   B26  367   2.894   8.659   8.190
   11PS8B   B27  368   2.829   8.649   8.300
   11PS8B   B28  369   2.718   8.696   8.346
   11PS8B   B29  370   3.505   8.617   8.046
   11PS8B   C30  371   3.621   8.698   8.041
   11PS8B   C31  372   3.741   8.741   8.173
   11PS8B   C32  373   3.801   8.892   8.238
   11PS8B   C33  374   3.878   9.026   8.153
   12PS8B    C0  375   4.936   6.686   6.195
   12PS8B    C1  376   4.880   6.756   6.346
   12PS8B    C2  377   4.934   6.903   6.425
   12PS8B    C3  378   4.942   6.956   6.602
   12PS8B    B4  379   4.843   6.966   6.699
   12PS8B    B5  380   4.799   7.032   6.829
   12PS8B    B6  381   4.854   7.136   6.885
   12PS8B    B7  382   4.922   7.236   6.843
   12PS8B    B8  383   4.910   7.321   6.747
   12PS8B    B9  384   4.811   7.369   6.679
   12PS8B   B10  385   4.689   7.370   6.693
   12PS8B   B11  386   4.606   7.292   6.741
   12PS8B   B12  387   4.592   7.232   6.853
   12PS8B   B13  388   4.644   7.245   6.970
   12PS8B   B14  389   4.757   7.287   7.015
   12PS8B   B15  390   4.857   7.353   6.966
   12PS8B   B16  391   4.621   7.353   6.776
   12PS8B   B17  392   4.698   7.390   6.817
   12PS8B   B18  393   4.625   7.367   6.869
   12PS8B   B19  394   4.782   7.467   6.805
   12PS8B   B20  395   4.783   7.583   6.749
   12PS8B   B21  396   4.693   7.670   6.718
   12PS8B   B22  397   4.652   7.725   6.609
   12PS8B   B23  398   4.556   7.805   6.578
   12PS8B   B24  399   4.567   7.394   6.957
   12PS8B   B25  400   4.444   7.397   6.994
   12PS8B   B26  401   4.332   7.369   6.939
   12PS8B   B27  402   4.256   7.265   6.936
   12PS8B   B28  403   4.131   7.242   6.959
   12PS8B   B29  404   4.948   7.449   7.040
   12PS8B   C30  405   5.038   7.464   7.147
   12PS8B   C31  406   5.124   7.338   7.250
   12PS8B   C32  407   5.134   7.310   7.422
   12PS8B   C33  408   5.186   7.418   7.549
    1PS8B    C0  409   9.736  10.618   6.719
    1PS8B    C1  410   9.635  10.595   6.860
    1PS8B    C2  411   9.480  10.667   6.898
    1PS8B    C3  412   9.395  10.712   7.056
    1PS8B    B4  413   9.361  10.634   7.166
    1PS8B    B5  414   9.270  10.618   7.287
    1PS8B    B6  415   9.161  10.686   7.310
    1PS8B    B7  416   9.074  10.746   7.237
    1PS8B    B8  417   9.008  10.716   7.130
    1PS8B    B9  418   8.968  10.606   7.075
    1PS8B   B10  419   8.958  10.491   7.112
    1PS8B   B11  420   9.021  10.417   7.189
    1PS8B   B12  421   9.057  10.425   7.311
    1PS8B   B13  422   9.026  10.499   7.411
    1PS8B   B14  423   8.983  10.620   7.425
    1PS8B   B15  424   8.933  10.709   7.345
    1PS8B   B16  425   8.954  10.439   7.208
    1PS8B   B17  426   8.915  10.524   7.226
    1PS8B   B18  427   8.924  10.463   7.293
    1PS8B   B19  428   8.847  10.606   7.183
    1PS8B   B20  429   8.744  10.598   7.106
    1PS8B   B21  430   8.658  10.505   7.077
    1PS8B   B22  431   8.623  10.445   6.969
    1PS8B   B23  432   8.544  10.346   6.942
    1PS8B   B24  433   8.877  10.425   7.384
    1PS8B   B25  434   8.860  10.311   7.443
    1PS8B   B26  435   8.892  10.190   7.418
    1PS8B   B27  436   8.989  10.113   7.449
    1PS8B   B28  437   9.000   9.995   7.500
    1PS8B   B29  438   8.830  10.815   7.380
    1PS8B   C30  439   8.801  10.925   7.462
    1PS8B   C31  440   8.910  11.028   7.569
    1PS8B   C32  441   8.906  11.071   7.739
    1PS8B   C33  442   8.779  11.149   7.830
    2PS8B    C0  443  11.330  12.095   7.201
    2PS8B    C1  444  11.487  12.151   7.255
    2PS8B    C2  445  11.579  12.290   7.201
    2PS8B    C3  446  11.760  12.326   7.189
    2PS8B    B4  447  11.859  12.327   7.287
    2PS8B    B5  448  11.995  12.380   7.328
    2PS8B    B6  449  12.060  12.478   7.272
    2PS8B    B7  450  12.026  12.583   7.206
    2PS8B    B8  451  11.939  12.677   7.220
    2PS8B    B9  452  11.877  12.729   7.321
    2PS8B   B10  453  11.894  12.728   7.442
    2PS8B   B11  454  11.935  12.645   7.524
    2PS8B   B12  455  12.042  12.575   7.536
    2PS8B   B13  456  12.158  12.577   7.482
    2PS8B   B14  457  12.205  12.616   7.368
    2PS8B   B15  458  12.161  12.687   7.270
    2PS8B   B16  459  11.976  12.704   7.509
    2PS8B   B17  460  12.019  12.737   7.432
    2PS8B   B18  461  12.069  12.708   7.503
    2PS8B   B19  462  12.013  12.815   7.348
    2PS8B   B20  463  11.967  12.936   7.349
    2PS8B   B21  464  11.947  13.025   7.439
    2PS8B   B22  465  11.844  13.089   7.483
    2PS8B   B23  466  11.823  13.172   7.580
    2PS8B   B24  467  12.161  12.727   7.560
    2PS8B   B25  468  12.200  12.726   7.682
    2PS8B   B26  469  12.145  12.702   7.795
    2PS8B   B27  470  12.133  12.599   7.871
    2PS8B   B28  471  12.157  12.573   7.995
    2PS8B   B29  472  12.242  12.776   7.178
    2PS8B   C30  473  12.348  12.782   7.085
    2PS8B   C31  474  12.437  12.648   6.997
    2PS8B   C32  475  12.606  12.603   6.984
    2PS8B   C33  476  12.742  12.700   6.931
    3PS8B    C0  477  12.082  10.829   3.948
    3PS8B    C1  478  11.953  10.926   3.880
    3PS8B    C2  479  11.781  10.894   3.876
    3PS8B    C3  480  11.646  10.940   3.759
    3PS8B    B4  481  11.601  11.065   3.716
    3PS8B    B5  482  11.485  11.144   3.658
    3PS8B    B6  483  11.361  11.105   3.650
    3PS8B    B7  484  11.288  11.023   3.717
    3PS8B    B8  485  11.264  11.001   3.841
    3PS8B    B9  486  11.271  11.071   3.950
    3PS8B   B10  487  11.279  11.191   3.974
    3PS8B   B11  488  11.333  11.288   3.920
    3PS8B   B12  489  11.329  11.340   3.803
    3PS8B   B13  490  11.252  11.327   3.700
    3PS8B   B14  491  11.179  11.232   3.652
    3PS8B   B15  492  11.134  11.119   3.697
    3PS8B   B16  493  11.260  11.283   3.919
    3PS8B   B17  494  11.198  11.221   3.882
    3PS8B   B18  495  11.201  11.307   3.850
    3PS8B   B19  496  11.127  11.135   3.907
    3PS8B   B20  497  11.057  11.111   4.012
    3PS8B   B21  498  11.009  11.182   4.108
    3PS8B   B22  499  11.022  11.184   4.236
    3PS8B   B23  500  10.981  11.262   4.331
    3PS8B   B24  501  11.141  11.389   3.810
    3PS8B   B25  502  11.136  11.517   3.818
    3PS8B   B26  503  11.202  11.608   3.880
    3PS8B   B27  504  11.302  11.683   3.851
    3PS8B   B28  505  11.326  11.809   3.857
    3PS8B   B29  506  11.003  11.052   3.660
    3PS8B   C30  507  10.925  11.000   3.556
    3PS8B   C31  508  10.970  10.956   3.383
    3PS8B   C32  509  10.906  11.003   3.227
    3PS8B   C33  510  10.743  10.990   3.165
    4PS8B    C0  511  13.125  13.535   6.545
    4PS8B    C1  512  13.274  13.459   6.596
    4PS8B    C2  513  13.313  13.289   6.605
    4PS8B    C3  514  13.425  13.190   6.714
    4PS8B    B4  515  13.563  13.200   6.736
    4PS8B    B5  516  13.689  13.127   6.780
    4PS8B    B6  517  13.703  12.999   6.794
    4PS8B    B7  518  13.648  12.895   6.742
    4PS8B    B8  519  13.618  12.857   6.623
    4PS8B    B9  520  13.663  12.883   6.504
    4PS8B   B10  521  13.765  12.935   6.461
    4PS8B   B11  522  13.840  13.026   6.498
    4PS8B   B12  523  13.906  13.050   6.606
    4PS8B   B13  524  13.940  12.982   6.709
    4PS8B   B14  525  13.890  12.880   6.772
    4PS8B   B15  526  13.798  12.793   6.746
    4PS8B   B16  527  13.864  12.957   6.500
    4PS8B   B17  528  13.838  12.878   6.546
    4PS8B   B18  529  13.919  12.917   6.564
    4PS8B   B19  530  13.783  12.779   6.536
    4PS8B   B20  531  13.773  12.698   6.437
    4PS8B   B21  532  13.843  12.675   6.330
    4PS8B   B22  533  13.820  12.679   6.204
    4PS8B   B23  534  13.892  12.666   6.098
    4PS8B   B24  535  14.023  12.896   6.590
    4PS8B   B25  536  14.141  12.940   6.562
    4PS8B   B26  537  14.187  13.032   6.485
    4PS8B   B27  538  14.221  13.155   6.501
    4PS8B   B28  539  14.325  13.226   6.475
    4PS8B   B29  540  13.794  12.649   6.793
    4PS8B   C30  541  13.793  12.563   6.905
    4PS8B   C31  542  13.762  12.599   7.083
    4PS8B   C32  543  13.853  12.569   7.229
    4PS8B   C33  544  13.914  12.417   7.292
    5PS8B    C0  545  12.666  14.133   4.570
    5PS8B    C1  546  12.775  14.038   4.669
    5PS8B    C2  547  12.759  13.871   4.720
    5PS8B    C3  548  12.817  13.778   4.869
    5PS8B    B4  549  12.945  13.759   4.921
    5PS8B    B5  550  13.035  13.671   5.007
    5PS8B    B6  551  13.008  13.550   5.049
    5PS8B    B7  552  12.934  13.454   5.006
    5PS8B    B8  553  12.915  13.396   4.893
    5PS8B    B9  554  12.986  13.379   4.785
    5PS8B   B10  555  13.104  13.392   4.758
    5PS8B   B11  556  13.195  13.467   4.794
    5PS8B   B12  557  13.245  13.501   4.907
    5PS8B   B13  558  13.240  13.454   5.027
    5PS8B   B14  559  13.152  13.388   5.094
    5PS8B   B15  560  13.044  13.322   5.065
    5PS8B   B16  561  13.197  13.397   4.814
    5PS8B   B17  562  13.141  13.342   4.868
    5PS8B   B18  563  13.226  13.362   4.896
    5PS8B   B19  564  13.062  13.260   4.865
    5PS8B   B20  565  13.046  13.161   4.783
    5PS8B   B21  566  13.123  13.096   4.702
    5PS8B   B22  567  13.125  13.074   4.576
    5PS8B   B23  568  13.207  13.017   4.495
    5PS8B   B24  569  13.313  13.323   4.950
    5PS8B   B25  570  13.441  13.329   4.942
    5PS8B   B26  571  13.525  13.384   4.862
    5PS8B   B27  572  13.590  13.495   4.861
    5PS8B   B28  573  13.714  13.528   4.847
    5PS8B   B29  574  12.990  13.200   5.137
    5PS8B   C30  575  12.944  13.148   5.260
    5PS8B   C31  576  12.895  13.234   5.415
    5PS8B   C32  577  12.946  13.221   5.582
    5PS8B   C33  578  12.948  13.080   5.685
    6PS8B    C0  579  10.704  12.130   8.934
    6PS8B    C1  580  10.546  12.146   8.861
    6PS8B    C2  581  10.501  12.225   8.711
    6PS8B    C3  582  10.348  12.311   8.653
    6PS8B    B4  583  10.217  12.265   8.643
    6PS8B    B5  584  10.082  12.283   8.575
    6PS8B    B6  585  10.058  12.355   8.469
    6PS8B    B7  586  10.128  12.393   8.368
    6PS8B    B8  587  10.209  12.336   8.285
    6PS8B    B9  588  10.225  12.215   8.241
    6PS8B   B10  589  10.158  12.113   8.243
    6PS8B   B11  590  10.076  12.063   8.322
    6PS8B   B12  591   9.969  12.103   8.379
    6PS8B   B13  592   9.888  12.202   8.362
    6PS8B   B14  593   9.900  12.322   8.316
    6PS8B   B15  594   9.990  12.387   8.249
    6PS8B   B16  595  10.052  12.090   8.259
    6PS8B   B17  596  10.051  12.177   8.219
    6PS8B   B18  597   9.972  12.136   8.243
    6PS8B   B19  598  10.101  12.244   8.141
    6PS8B   B20  599  10.153  12.215   8.027
    6PS8B   B21  600  10.140  12.119   7.942
    6PS8B   B22  601  10.219  12.032   7.891
    6PS8B   B23  602  10.205  11.929   7.814
    6PS8B   B24  603   9.867  12.123   8.215
    6PS8B   B25  604   9.778  12.030   8.214
    6PS8B   B26  605   9.776  11.906   8.246
    6PS8B   B27  606   9.743  11.840   8.351
    6PS8B   B28  607   9.666  11.741   8.376
    6PS8B   B29  608   9.966  12.498   8.150
    6PS8B   C30  609   9.912  12.627   8.130
    6PS8B   C31  610   9.858  12.754   8.251
    6PS8B   C32  611   9.708  12.841   8.275
    6PS8B   C33  612   9.619  12.941   8.162
    7PS8B    C0  613   9.908  14.788   6.153
    7PS8B    C1  614   9.829  14.638   6.110
    7PS8B    C2  615   9.858  14.477   6.173
    7PS8B    C3  616   9.843  14.307   6.101
    7PS8B    B4  617   9.734  14.242   6.045
    7PS8B    B5  618   9.670  14.107   6.012
    7PS8B    B6  619   9.708  13.991   6.057
    7PS8B    B7  620   9.769  13.950   6.162
    7PS8B    B8  621   9.757  13.971   6.289
    7PS8B    B9  622   9.660  14.008   6.367
    7PS8B   B10  623   9.539  14.014   6.357
    7PS8B   B11  624   9.460  14.040   6.264
    7PS8B   B12  625   9.441  13.994   6.146
    7PS8B   B13  626   9.479  13.889   6.082
    7PS8B   B14  627   9.582  13.811   6.088
    7PS8B   B15  628   9.678  13.792   6.172
    7PS8B   B16  629   9.464  13.972   6.290
    7PS8B   B17  630   9.532  13.906   6.293
    7PS8B   B18  631   9.458  13.892   6.241
    7PS8B   B19  632   9.608  13.854   6.361
    7PS8B   B20  633   9.602  13.824   6.486
    7PS8B   B21  634   9.507  13.805   6.571
    7PS8B   B22  635   9.472  13.860   6.682
    7PS8B   B23  636   9.371  13.847   6.762
    7PS8B   B24  637   9.389  13.816   6.205
    7PS8B   B25  638   9.263  13.804   6.180
    7PS8B   B26  639   9.160  13.880   6.192
    7PS8B   B27  640   9.097  13.959   6.113
    7PS8B   B28  641   8.974  13.974   6.078
    7PS8B   B29  642   9.750  13.662   6.200
    7PS8B   C30  643   9.828  13.557   6.146
    7PS8B   C31  644   9.915  13.546   5.984
    7PS8B   C32  645   9.910  13.431   5.852
    7PS8B   C33  646   9.937  13.258   5.856
    8PS8B    C0  647  11.316  13.434   4.378
    8PS8B    C1  648  11.272  13.592   4.441
    8PS8B    C2  649  11.221  13.735   4.354
    8PS8B    C3  650  11.237  13.916   4.386
    8PS8B    B4  651  11.195  13.993   4.494
    8PS8B    B5  652  11.157  14.133   4.543
    8PS8B    B6  653  11.132  14.236   4.468
    8PS8B    B7  654  11.088  14.253   4.348
    8PS8B    B8  655  10.991  14.205   4.278
    8PS8B    B9  656  10.875  14.153   4.304
    8PS8B   B10  657  10.803  14.151   4.403
    8PS8B   B11  658  10.822  14.147   4.525
    8PS8B   B12  659  10.889  14.217   4.609
    8PS8B   B13  660  10.945  14.333   4.607
    8PS8B   B14  661  10.997  14.407   4.514
    8PS8B   B15  662  10.997  14.406   4.385
    8PS8B   B16  663  10.796  14.208   4.496
    8PS8B   B17  664  10.829  14.271   4.433
    8PS8B   B18  665  10.815  14.297   4.520
    8PS8B   B19  666  10.822  14.306   4.324
    8PS8B   B20  667  10.722  14.308   4.242
    8PS8B   B21  668  10.594  14.309   4.255
    8PS8B   B22  669  10.498  14.233   4.218
    8PS8B   B23  670  10.370  14.229   4.239
    8PS8B   B24  671  10.784  14.379   4.583
    8PS8B   B25  672  10.716  14.398   4.691
    8PS8B   B26  673  10.651  14.322   4.772
    8PS8B   B27  674  10.678  14.263   4.883
    8PS8B   B28  675  10.624  14.257   4.999
    8PS8B   B29  676  11.005  14.526   4.293
    8PS8B   C30  677  11.080  14.639   4.255
    8PS8B   C31  678  11.255  14.684   4.292
    8PS8B   C32  679  11.330  14.825   4.364
    8PS8B   C33  680  11.319  14.993   4.316
    9PS8B    C0  681  12.725  11.420   8.505
    9PS8B    C1  682  12.555  11.461   8.490
    9PS8B    C2  683  12.442  11.413   8.365
    9PS8B    C3  684  12.292  11.492   8.292
    9PS8B    B4  685  12.174  11.536   8.352
    9PS8B    B5  686  12.026  11.568   8.332
    9PS8B    B6  687  11.954  11.536   8.228
    9PS8B    B7  688  11.958  11.443   8.140
    9PS8B    B8  689  11.972  11.315   8.142
    9PS8B    B9  690  11.950  11.221   8.229
    9PS8B   B10  691  11.885  11.215   8.333
    9PS8B   B11  692  11.858  11.293   8.425
    9PS8B   B12  693  11.806  11.410   8.432
    9PS8B   B13  694  11.740  11.485   8.351
    9PS8B   B14  695  11.735  11.498   8.223
    9PS8B   B15  696  11.777  11.430   8.122
    9PS8B   B16  697  11.806  11.272   8.379
    9PS8B   B17  698  11.790  11.283   8.286
    9PS8B   B18  699  11.735  11.325   8.346
    9PS8B   B19  700  11.794  11.230   8.185
    9PS8B   B20  701  11.770  11.107   8.153
    9PS8B   B21  702  11.703  11.010   8.207
    9PS8B   B22  703  11.731  10.893   8.250
    9PS8B   B23  704  11.665  10.800   8.311
    9PS8B   B24  705  11.632  11.355   8.365
    9PS8B   B25  706  11.550  11.362   8.463
    9PS8B   B26  707  11.554  11.332   8.588
    9PS8B   B27  708  11.580  11.396   8.696
    9PS8B   B28  709  11.521  11.412   8.809
    9PS8B   B29  710  11.712  11.421   7.985
    9PS8B   C30  711  11.669  11.492   7.872
    9PS8B   C31  712  11.704  11.664   7.818
    9PS8B   C32  713  11.603  11.801   7.777
    9PS8B   C33  714  11.476  11.812   7.657
   10PS8B    C0  715  10.833   9.513   4.127
   10PS8B    C1  716  10.916   9.661   4.083
   10PS8B    C2  717  10.895   9.761   3.941
   10PS8B    C3  718  11.008   9.870   3.844
   10PS8B    B4  719  11.084   9.980   3.884
   10PS8B    B5  720  11.153  10.108   3.839
   10PS8B    B6  721  11.138  10.169   3.725
   10PS8B    B7  722  11.043  10.176   3.638
   10PS8B    B8  723  10.916  10.197   3.642
   10PS8B    B9  724  10.836  10.257   3.724
   10PS8B   B10  725  10.851  10.337   3.815
   10PS8B   B11  726  10.937  10.357   3.902
   10PS8B   B12  727  11.064  10.376   3.900
   10PS8B   B13  728  11.151  10.406   3.810
   10PS8B   B14  729  11.160  10.386   3.683
   10PS8B   B15  730  11.078  10.348   3.589
   10PS8B   B16  731  10.930  10.405   3.847
   10PS8B   B17  732  10.940  10.401   3.753
   10PS8B   B18  733  10.998  10.452   3.803
   10PS8B   B19  734  10.884  10.396   3.654
   10PS8B   B20  735  10.771  10.447   3.618
   10PS8B   B21  736  10.698  10.545   3.659
   10PS8B   B22  737  10.579  10.558   3.706
   10PS8B   B23  738  10.510  10.655   3.755
   10PS8B   B24  739  11.055  10.545   3.804
   10PS8B   B25  740  11.088  10.637   3.888
   10PS8B   B26  741  11.063  10.662   4.011
   10PS8B   B27  742  11.122  10.637   4.122
   10PS8B   B28  743  11.158  10.707   4.224
   10PS8B   B29  744  11.081  10.389   3.444
   10PS8B   C30  745  11.157  10.393   3.325
   10PS8B   C31  746  11.311  10.304   3.279
   10PS8B   C32  747  11.468  10.356   3.222
   10PS8B   C33  748  11.507  10.454   3.082
   11PS8B    C0  749  10.160  13.695   6.091
   11PS8B    C1  750  10.306  13.608   6.047
   11PS8B    C2  751  10.450  13.669   5.968
   11PS8B    C3  752  10.575  13.592   5.855
   11PS8B    B4  753  10.658  13.481   5.873
   11PS8B    B5  754  10.786  13.412   5.832
   11PS8B    B6  755  10.883  13.464   5.762
   11PS8B    B7  756  10.928  13.583   5.744
   11PS8B    B8  757  10.957  13.682   5.820
   11PS8B    B9  758  10.993  13.696   5.944
   11PS8B   B10  759  11.036  13.619   6.030
   11PS8B   B11  760  11.017  13.500   6.058
   11PS8B   B12  761  11.024  13.390   5.994
   11PS8B   B13  762  11.075  13.352   5.882
   11PS8B   B14  763  11.099  13.410   5.769
   11PS8B   B15  764  11.102  13.533   5.728
   11PS8B   B16  765  11.081  13.520   6.030
   11PS8B   B17  766  11.109  13.557   5.947
   11PS8B   B18  767  11.134  13.472   5.969
   11PS8B   B19  768  11.143  13.654   5.896
   11PS8B   B20  769  11.213  13.753   5.940
   11PS8B   B21  770  11.297  13.769   6.036
   11PS8B   B22  771  11.304  13.844   6.140
   11PS8B   B23  772  11.384  13.854   6.240
   11PS8B   B24  773  11.216  13.400   5.962
   11PS8B   B25  774  11.271  13.309   6.035
   11PS8B   B26  775  11.254  13.265   6.154
   11PS8B   B27  776  11.188  13.168   6.207
   11PS8B   B28  777  11.215  13.071   6.287
   11PS8B   B29  778  11.190  13.590   5.619
   11PS8B   C30  779  11.227  13.582   5.483
   11PS8B   C31  780  11.146  13.497   5.342
   11PS8B   C32  781  11.200  13.379   5.225
   11PS8B   C33  782  11.336  13.388   5.114
   12PS8B    C0  783  10.125  11.584   5.573
   12PS8B    C1  784  10.154  11.752   5.534
   12PS8B    C2  785  10.075  11.895   5.597
   12PS8B    C3  786  10.039  12.062   5.528
   12PS8B    B4  787  10.125  12.160   5.476
   12PS8B    B5  788  10.144  12.308   5.446
   12PS8B    B6  789  10.071  12.406   5.491
   12PS8B    B7  790   9.998  12.424   5.595
   12PS8B    B8  791  10.012  12.405   5.722
   12PS8B    B9  792  10.113  12.398   5.803
   12PS8B   B10  793  10.231  12.430   5.796
   12PS8B   B11  794  10.316  12.432   5.706
   12PS8B   B12  795  10.323  12.484   5.589
   12PS8B   B13  796  10.256  12.573   5.525
   12PS8B   B14  797  10.134  12.615   5.528
   12PS8B   B15  798  10.034  12.602   5.609
   12PS8B   B16  799  10.290  12.495   5.732
   12PS8B   B17  800  10.205  12.537   5.734
   12PS8B   B18  801  10.273  12.574   5.684
   12PS8B   B19  802  10.115  12.561   5.800
   12PS8B   B20  803  10.108  12.589   5.925
   12PS8B   B21  804  10.190  12.634   6.014
   12PS8B   B22  805  10.237  12.591   6.125
   12PS8B   B23  806  10.327  12.633   6.208
   12PS8B   B24  807  10.316  12.668   5.651
   12PS8B   B25  808  10.433  12.719   5.631
   12PS8B   B26  809  10.554  12.678   5.644
   12PS8B   B27  810  10.641  12.624   5.567
   12PS8B   B28  811  10.763  12.648   5.536
   12PS8B   B29  812   9.925  12.703   5.636
   12PS8B   C30  813   9.821  12.779   5.580
   12PS8B   C31  814   9.738  12.767   5.416
   12PS8B   C32  815   9.711  12.880   5.286
   12PS8B   C33  816   9.632  13.036   5.290
    1PS8B    C0  817   5.269   9.935  17.684
    1PS8B    C1  818   5.189  10.057  17.586
    1PS8B    C2  819   5.247  10.136  17.441
    1PS8B    C3  820   5.218  10.303  17.367
    1PS8B    B4  821   5.100  10.366  17.328
    1PS8B    B5  822   5.036  10.472  17.239
    1PS8B    B6  823   5.094  10.533  17.139
    1PS8B    B7  824   5.189  10.504  17.057
    1PS8B    B8  825   5.219  10.402  16.985
    1PS8B    B9  826   5.153  10.304  16.931
    1PS8B   B10  827   5.034  10.283  16.909
    1PS8B   B11  828   4.928  10.311  16.965
    1PS8B   B12  829   4.873  10.419  17.007
    1PS8B   B13  830   4.893  10.545  16.987
    1PS8B   B14  831   4.996  10.617  16.958
    1PS8B   B15  832   5.116  10.593  16.916
    1PS8B   B16  833   4.944  10.344  16.902
    1PS8B   B17  834   5.013  10.403  16.874
    1PS8B   B18  835   4.927  10.433  16.878
    1PS8B   B19  836   5.110  10.409  16.814
    1PS8B   B20  837   5.149  10.346  16.708
    1PS8B   B21  838   5.089  10.284  16.612
    1PS8B   B22  839   5.090  10.164  16.566
    1PS8B   B23  840   5.023  10.100  16.476
    1PS8B   B24  841   4.853  10.498  16.830
    1PS8B   B25  842   4.728  10.498  16.802
    1PS8B   B26  843   4.631  10.416  16.819
    1PS8B   B27  844   4.540  10.399  16.908
    1PS8B   B28  845   4.412  10.387  16.907
    1PS8B   B29  846   5.201  10.682  16.827
    1PS8B   C30  847   5.261  10.809  16.813
    1PS8B   C31  848   5.290  10.942  16.936
    1PS8B   C32  849   5.247  11.112  16.943
    1PS8B   C33  850   5.283  11.239  16.828
    2PS8B    C0  851   5.269   8.141  16.464
    2PS8B    C1  852   5.284   8.234  16.611
    2PS8B    C2  853   5.214   8.202  16.769
    2PS8B    C3  854   5.159   8.311  16.908
    2PS8B    B4  855   5.229   8.406  16.982
    2PS8B    B5  856   5.237   8.482  17.114
    2PS8B    B6  857   5.171   8.456  17.223
    2PS8B    B7  858   5.120   8.350  17.274
    2PS8B    B8  859   5.160   8.229  17.294
    2PS8B    B9  860   5.275   8.172  17.309
    2PS8B   B10  861   5.388   8.212  17.334
    2PS8B   B11  862   5.453   8.313  17.306
    2PS8B   B12  863   5.435   8.439  17.320
    2PS8B   B13  864   5.353   8.513  17.387
    2PS8B   B14  865   5.233   8.498  17.432
    2PS8B   B15  866   5.152   8.398  17.447
    2PS8B   B16  867   5.431   8.303  17.375
    2PS8B   B17  868   5.346   8.297  17.417
    2PS8B   B18  869   5.401   8.368  17.436
    2PS8B   B19  870   5.271   8.224  17.463
    2PS8B   B20  871   5.288   8.115  17.528
    2PS8B   B21  872   5.385   8.063  17.596
    2PS8B   B22  873   5.455   7.956  17.588
    2PS8B   B23  874   5.558   7.909  17.650
    2PS8B   B24  875   5.434   8.436  17.514
    2PS8B   B25  876   5.542   8.494  17.553
    2PS8B   B26  877   5.665   8.493  17.515
    2PS8B   B27  878   5.736   8.566  17.437
    2PS8B   B28  879   5.849   8.628  17.448
    2PS8B   B29  880   5.047   8.381  17.554
    2PS8B   C30  881   4.931   8.436  17.613
    2PS8B   C31  882   4.817   8.568  17.553
    2PS8B   C32  883   4.761   8.718  17.622
    2PS8B   C33  884   4.679   8.746  17.774
    3PS8B    C0  885   2.273  10.638  16.787
    3PS8B    C1  886   2.423  10.584  16.714
    3PS8B    C2  887   2.583  10.573  16.785
    3PS8B    C3  888   2.754  10.587  16.716
    3PS8B    B4  889   2.818  10.514  16.616
    3PS8B    B5  890   2.951  10.469  16.559
    3PS8B    B6  891   3.067  10.477  16.617
    3PS8B    B7  892   3.107  10.479  16.739
    3PS8B    B8  893   3.082  10.410  16.845
    3PS8B    B9  894   3.040  10.290  16.868
    3PS8B   B10  895   3.030  10.188  16.802
    3PS8B   B11  896   3.006  10.162  16.683
    3PS8B   B12  897   3.054  10.200  16.570
    3PS8B   B13  898   3.162  10.259  16.533
    3PS8B   B14  899   3.243  10.344  16.587
    3PS8B   B15  900   3.262  10.389  16.707
    3PS8B   B16  901   3.073  10.151  16.708
    3PS8B   B17  902   3.141  10.208  16.744
    3PS8B   B18  903   3.154  10.166  16.663
    3PS8B   B19  904   3.193  10.241  16.840
    3PS8B   B20  905   3.219  10.175  16.948
    3PS8B   B21  906   3.232  10.051  16.979
    3PS8B   B22  907   3.174   9.970  17.059
    3PS8B   B23  908   3.181   9.843  17.083
    3PS8B   B24  909   3.229  10.119  16.599
    3PS8B   B25  910   3.238  10.019  16.519
    3PS8B   B26  911   3.159   9.926  16.479
    3PS8B   B27  912   3.080   9.910  16.379
    3PS8B   B28  913   3.063   9.819  16.290
    3PS8B   B29  914   3.393  10.434  16.767
    3PS8B   C30  915   3.501  10.524  16.757
    3PS8B   C31  916   3.520  10.677  16.656
    3PS8B   C32  917   3.638  10.730  16.539
    3PS8B   C33  918   3.812  10.745  16.556
    4PS8B    C0  919   3.061  11.009  17.181
    4PS8B    C1  920   3.208  10.978  17.091
    4PS8B    C2  921   3.343  11.086  17.062
    4PS8B    C3  922   3.465  11.103  16.925
    4PS8B    B4  923   3.555  11.011  16.871
    4PS8B    B5  924   3.685  10.991  16.794
    4PS8B    B6  925   3.774  11.083  16.768
    4PS8B    B7  926   3.810  11.192  16.825
    4PS8B    B8  927   3.839  11.228  16.946
    4PS8B    B9  928   3.882  11.167  17.052
    4PS8B   B10  929   3.934  11.059  17.074
    4PS8B   B11  930   3.924  10.945  17.025
    4PS8B   B12  931   3.933  10.896  16.907
    4PS8B   B13  932   3.979  10.938  16.795
    4PS8B   B14  933   3.993  11.054  16.739
    4PS8B   B15  934   3.986  11.177  16.780
    4PS8B   B16  935   3.985  10.983  17.014
    4PS8B   B17  936   4.005  11.065  16.970
    4PS8B   B18  937   4.037  10.986  16.936
    4PS8B   B19  938   4.030  11.175  16.986
    4PS8B   B20  939   4.097  11.234  17.080
    4PS8B   B21  940   4.186  11.196  17.165
    4PS8B   B22  941   4.194  11.194  17.293
    4PS8B   B23  942   4.280  11.148  17.378
    4PS8B   B24  943   4.122  10.939  16.885
    4PS8B   B25  944   4.186  10.828  16.887
    4PS8B   B26  945   4.179  10.720  16.956
    4PS8B   B27  946   4.122  10.606  16.941
    4PS8B   B28  947   4.161  10.483  16.947
    4PS8B   B29  948   4.064  11.294  16.726
    4PS8B   C30  949   4.093  11.373  16.612
    4PS8B   C31  950   4.008  11.383  16.449
    4PS8B   C32  951   4.062  11.363  16.284
    4PS8B   C33  952   4.190  11.448  16.199
    5PS8B    C0  953   8.350  11.927  16.232
    5PS8B    C1  954   8.203  11.833  16.238
    5PS8B    C2  955   8.049  11.865  16.161
    5PS8B    C3  956   7.874  11.825  16.205
    5PS8B    B4  957   7.812  11.703  16.228
    5PS8B    B5  958   7.680  11.626  16.229
    5PS8B    B6  959   7.567  11.666  16.178
    5PS8B    B7  960   7.534  11.745  16.082
    5PS8B    B8  961   7.571  11.761  15.960
    5PS8B    B9  962   7.625  11.686  15.869
    5PS8B   B10  963   7.640  11.565  15.856
    5PS8B   B11  964   7.661  11.470  15.933
    5PS8B   B12  965   7.603  11.425  16.038
    5PS8B   B13  966   7.488  11.442  16.094
    5PS8B   B14  967   7.403  11.539  16.098
    5PS8B   B15  968   7.386  11.650  16.034
    5PS8B   B16  969   7.596  11.476  15.900
    5PS8B   B17  970   7.525  11.539  15.902
    5PS8B   B18  971   7.512  11.455  15.936
    5PS8B   B19  972   7.476  11.625  15.844
    5PS8B   B20  973   7.462  11.644  15.718
    5PS8B   B21  974   7.461  11.568  15.613
    5PS8B   B22  975   7.531  11.560  15.506
    5PS8B   B23  976   7.537  11.478  15.407
    5PS8B   B24  977   7.438  11.375  15.947
    5PS8B   B25  978   7.434  11.247  15.943
    5PS8B   B26  979   7.519  11.153  15.922
    5PS8B   B27  980   7.593  11.079  15.996
    5PS8B   B28  981   7.614  10.953  16.007
    5PS8B   B29  982   7.255  11.719  16.003
    5PS8B   C30  983   7.138  11.776  16.058
    5PS8B   C31  984   7.100  11.827  16.230
    5PS8B   C32  985   6.971  11.788  16.342
    5PS8B   C33  986   6.798  11.805  16.321
    6PS8B    C0  987   7.882  12.689  16.814
    6PS8B    C1  988   7.733  12.604  16.784
    6PS8B    C2  989   7.615  12.545  16.900
    6PS8B    C3  990   7.497  12.402  16.900
    6PS8B    B4  991   7.395  12.368  16.812
    6PS8B    B5  992   7.264  12.293  16.792
    6PS8B    B6  993   7.189  12.243  16.887
    6PS8B    B7  994   7.169  12.271  17.011
    6PS8B    B8  995   7.145  12.378  17.078
    6PS8B    B9  996   7.094  12.494  17.051
    6PS8B   B10  997   7.026  12.538  16.959
    6PS8B   B11  998   7.020  12.518  16.837
    6PS8B   B12  999   7.004  12.415  16.763
    6PS8B   B13 1000   6.966  12.294  16.782
    6PS8B   B14 1001   6.970  12.212  16.882
    6PS8B   B15 1002   6.994  12.223  17.009
    6PS8B   B16 1003   6.965  12.496  16.879
    6PS8B   B17 1004   6.957  12.433  16.950
    6PS8B   B18 1005   6.915  12.417  16.870
    6PS8B   B19 1006   6.948  12.422  17.063
    6PS8B   B20 1007   6.891  12.497  17.151
    6PS8B   B21 1008   6.796  12.585  17.148
    6PS8B   B22 1009   6.787  12.709  17.178
    6PS8B   B23 1010   6.695  12.799  17.166
    6PS8B   B24 1011   6.824  12.376  16.825
    6PS8B   B25 1012   6.744  12.401  16.728
    6PS8B   B26 1013   6.735  12.494  16.640
    6PS8B   B27 1014   6.775  12.508  16.519
    6PS8B   B28 1015   6.719  12.541  16.407
    6PS8B   B29 1016   6.934  12.140  17.121
    6PS8B   C30 1017   6.917  12.010  17.173
    6PS8B   C31 1018   7.003  11.853  17.132
    6PS8B   C32 1019   6.948  11.695  17.082
    6PS8B   C33 1020   6.835  11.587  17.161
    7PS8B    C0 1021   6.769   8.396  19.384
    7PS8B    C1 1022   6.834   8.511  19.500
    7PS8B    C2 1023   7.001   8.556  19.528
    7PS8B    C3 1024   7.093   8.613  19.678
    7PS8B    B4 1025   7.073   8.723  19.761
    7PS8B    B5 1026   7.136   8.821  19.859
    7PS8B    B6 1027   7.263   8.838  19.881
    7PS8B    B7 1028   7.370   8.821  19.810
    7PS8B    B8 1029   7.407   8.853  19.691
    7PS8B    B9 1030   7.374   8.945  19.606
    7PS8B   B10 1031   7.313   9.050  19.614
    7PS8B   B11 1032   7.218   9.092  19.680
    7PS8B   B12 1033   7.191   9.099  19.805
    7PS8B   B13 1034   7.259   9.087  19.914
    7PS8B   B14 1035   7.365   9.023  19.948
    7PS8B   B15 1036   7.460   8.961  19.885
    7PS8B   B16 1037   7.285   9.118  19.693
    7PS8B   B17 1038   7.366   9.080  19.724
    7PS8B   B18 1039   7.322   9.141  19.777
    7PS8B   B19 1040   7.470   9.045  19.692
    7PS8B   B20 1041   7.549   9.089  19.600
    7PS8B   B21 1042   7.563   9.201  19.538
    7PS8B   B22 1043   7.558   9.239  19.415
    7PS8B   B23 1044   7.563   9.352  19.354
    7PS8B   B24 1045   7.335   9.223  19.848
    7PS8B   B25 1046   7.280   9.336  19.876
    7PS8B   B26 1047   7.183   9.405  19.828
    7PS8B   B27 1048   7.058   9.417  19.856
    7PS8B   B28 1049   6.979   9.515  19.879
    7PS8B   B29 1050   7.604   8.947  19.927
    7PS8B   C30 1051   7.693   8.902  20.027
    7PS8B   C31 1052   7.664   8.790  20.170
    7PS8B   C32 1053   7.690   8.806  20.342
    7PS8B   C33 1054   7.838   8.843  20.428
    8PS8B    C0 1055   7.486  10.967  20.261
    8PS8B    C1 1056   7.578  10.930  20.117
    8PS8B    C2 1057   7.659  10.781  20.074
    8PS8B    C3 1058   7.809  10.743  19.972
    8PS8B    B4 1059   7.838  10.772  19.839
    8PS8B    B5 1060   7.920  10.733  19.716
    8PS8B    B6 1061   7.987  10.623  19.700
    8PS8B    B7 1062   7.977  10.503  19.746
    8PS8B    B8 1063   7.881  10.418  19.760
    8PS8B    B9 1064   7.767  10.398  19.702
    8PS8B   B10 1065   7.715  10.436  19.597
    8PS8B   B11 1066   7.720  10.539  19.530
    8PS8B   B12 1067   7.813  10.609  19.478
    8PS8B   B13 1068   7.939  10.591  19.454
    8PS8B   B14 1069   8.032  10.520  19.508
    8PS8B   B15 1070   8.036  10.423  19.593
    8PS8B   B16 1071   7.751  10.479  19.504
    8PS8B   B17 1072   7.823  10.424  19.533
    8PS8B   B18 1073   7.832  10.472  19.456
    8PS8B   B19 1074   7.850  10.325  19.583
    8PS8B   B20 1075   7.792  10.210  19.579
    8PS8B   B21 1076   7.711  10.152  19.496
    8PS8B   B22 1077   7.592  10.103  19.504
    8PS8B   B23 1078   7.508  10.054  19.419
    8PS8B   B24 1079   7.873  10.471  19.355
    8PS8B   B25 1080   7.841  10.510  19.236
    8PS8B   B26 1081   7.738  10.566  19.184
    8PS8B   B27 1082   7.705  10.687  19.157
    8PS8B   B28 1083   7.663  10.749  19.052
    8PS8B   B29 1084   8.137  10.310  19.598
    8PS8B   C30 1085   8.274  10.277  19.610
    8PS8B   C31 1086   8.417  10.379  19.663
    8PS8B   C32 1087   8.571  10.417  19.589
    8PS8B   C33 1088   8.696  10.309  19.531
    9PS8B    C0 1089   3.352   9.286  16.851
    9PS8B    C1 1090   3.443   9.139  16.821
    9PS8B    C2 1091   3.388   8.988  16.750
    9PS8B    C3 1092   3.437   8.812  16.772
    9PS8B    B4 1093   3.561   8.750  16.754
    9PS8B    B5 1094   3.633   8.618  16.726
    9PS8B    B6 1095   3.579   8.508  16.684
    9PS8B    B7 1096   3.475   8.479  16.614
    9PS8B    B8 1097   3.424   8.522  16.504
    9PS8B    B9 1098   3.469   8.581  16.398
    9PS8B   B10 1099   3.580   8.597  16.351
    9PS8B   B11 1100   3.694   8.615  16.397
    9PS8B   B12 1101   3.768   8.552  16.480
    9PS8B   B13 1102   3.767   8.435  16.532
    9PS8B   B14 1103   3.675   8.349  16.562
    9PS8B   B15 1104   3.550   8.335  16.532
    9PS8B   B16 1105   3.678   8.552  16.364
    9PS8B   B17 1106   3.618   8.481  16.381
    9PS8B   B18 1107   3.708   8.466  16.387
    9PS8B   B19 1108   3.519   8.434  16.349
    9PS8B   B20 1109   3.463   8.426  16.233
    9PS8B   B21 1110   3.504   8.431  16.111
    9PS8B   B22 1111   3.480   8.506  16.010
    9PS8B   B23 1112   3.529   8.517  15.891
    9PS8B   B24 1113   3.787   8.393  16.370
    9PS8B   B25 1114   3.909   8.390  16.329
    9PS8B   B26 1115   3.992   8.477  16.285
    9PS8B   B27 1116   4.085   8.548  16.337
    9PS8B   B28 1117   4.210   8.569  16.311
    9PS8B   B29 1118   3.475   8.204  16.517
    9PS8B   C30 1119   3.435   8.085  16.581
    9PS8B   C31 1120   3.437   8.038  16.759
    9PS8B   C32 1121   3.507   7.904  16.847
    9PS8B   C33 1122   3.484   7.732  16.823
   10PS8B    C0 1123   5.836   9.906  17.902
   10PS8B    C1 1124   5.745  10.055  17.884
   10PS8B    C2 1125   5.593  10.100  17.959
   10PS8B    C3 1126   5.454  10.209  17.906
   10PS8B    B4 1127   5.452  10.344  17.871
   10PS8B    B5 1128   5.368  10.471  17.860
   10PS8B    B6 1129   5.250  10.490  17.911
   10PS8B    B7 1130   5.186  10.442  18.012
   10PS8B    B8 1131   5.214  10.422  18.136
   10PS8B    B9 1132   5.296  10.474  18.222
   10PS8B   B10 1133   5.364  10.576  18.225
   10PS8B   B11 1134   5.423  10.644  18.141
   10PS8B   B12 1135   5.390  10.702  18.031
   10PS8B   B13 1136   5.279  10.732  17.974
   10PS8B   B14 1137   5.160  10.683  17.975
   10PS8B   B15 1138   5.097  10.597  18.048
   10PS8B   B16 1139   5.363  10.671  18.173
   10PS8B   B17 1140   5.272  10.646  18.174
   10PS8B   B18 1141   5.296  10.724  18.133
   10PS8B   B19 1142   5.190  10.596  18.237
   10PS8B   B20 1143   5.170  10.597  18.365
   10PS8B   B21 1144   5.205  10.674  18.462
   10PS8B   B22 1145   5.273  10.659  18.570
   10PS8B   B23 1146   5.315  10.739  18.663
   10PS8B   B24 1147   5.266  10.827  18.113
   10PS8B   B25 1148   5.319  10.943  18.106
   10PS8B   B26 1149   5.437  10.991  18.122
   10PS8B   B27 1150   5.535  11.018  18.044
   10PS8B   B28 1151   5.610  11.120  18.023
   10PS8B   B29 1152   4.949  10.596  18.080
   10PS8B   C30 1153   4.818  10.591  18.028
   10PS8B   C31 1154   4.759  10.547  17.859
   10PS8B   C32 1155   4.660  10.630  17.741
   10PS8B   C33 1156   4.497  10.693  17.758
   11PS8B    C0 1157   4.803  10.926  18.310
   11PS8B    C1 1158   4.870  10.918  18.472
   11PS8B    C2 1159   5.036  10.941  18.523
   11PS8B    C3 1160   5.135  10.874  18.663
   11PS8B    B4 1161   5.115  10.880  18.801
   11PS8B    B5 1162   5.179  10.875  18.939
   11PS8B    B6 1163   5.307  10.881  18.965
   11PS8B    B7 1164   5.409  10.934  18.906
   11PS8B    B8 1165   5.435  11.048  18.853
   11PS8B    B9 1166   5.391  11.169  18.868
   11PS8B   B10 1167   5.325  11.226  18.954
   11PS8B   B11 1168   5.232  11.193  19.029
   11PS8B   B12 1169   5.214  11.100  19.115
   11PS8B   B13 1170   5.291  11.017  19.177
   11PS8B   B14 1171   5.403  10.959  19.149
   11PS8B   B15 1172   5.496  10.976  19.060
   11PS8B   B16 1173   5.298  11.206  19.057
   11PS8B   B17 1174   5.384  11.166  19.048
   11PS8B   B18 1175   5.340  11.161  19.128
   11PS8B   B19 1176   5.486  11.178  18.999
   11PS8B   B20 1177   5.556  11.283  18.973
   11PS8B   B21 1178   5.559  11.404  19.018
   11PS8B   B22 1179   5.542  11.521  18.967
   11PS8B   B23 1180   5.536  11.641  19.014
   11PS8B   B24 1181   5.354  11.161  19.237
   11PS8B   B25 1182   5.295  11.208  19.341
   11PS8B   B26 1183   5.191  11.279  19.363
   11PS8B   B27 1184   5.068  11.254  19.391
   11PS8B   B28 1185   4.985  11.293  19.482
   11PS8B   B29 1186   5.644  10.949  19.077
   11PS8B   C30 1187   5.742  10.852  19.107
   11PS8B   C31 1188   5.730  10.669  19.114
   11PS8B   C32 1189   5.768  10.551  19.237
   11PS8B   C33 1190   5.920  10.524  19.321
   12PS8B    C0 1191   5.853  11.398  15.744
   12PS8B    C1 1192   6.003  11.453  15.816
   12PS8B    C2 1193   6.167  11.403  15.779
   12PS8B    C3 1194   6.321  11.391  15.880
   12PS8B    B4 1195   6.390  11.488  15.953
   12PS8B    B5 1196   6.524  11.530  16.012
   12PS8B    B6 1197   6.640  11.477  15.985
   12PS8B    B7 1198   6.691  11.415  15.884
   12PS8B    B8 1199   6.694  11.435  15.757
   12PS8B    B9 1200   6.685  11.539  15.680
   12PS8B   B10 1201   6.693  11.660  15.697
   12PS8B   B11 1202   6.663  11.738  15.788
   12PS8B   B12 1203   6.689  11.745  15.913
   12PS8B   B13 1204   6.775  11.690  15.991
   12PS8B   B14 1205   6.838  11.577  15.992
   12PS8B   B15 1206   6.859  11.482  15.907
   12PS8B   B16 1207   6.733  11.725  15.774
   12PS8B   B17 1208   6.789  11.648  15.778
   12PS8B   B18 1209   6.803  11.717  15.836
   12PS8B   B19 1210   6.841  11.568  15.715
   12PS8B   B20 1211   6.893  11.574  15.597
   12PS8B   B21 1212   6.939  11.669  15.523
   12PS8B   B22 1213   6.910  11.716  15.406
   12PS8B   B23 1214   6.950  11.816  15.336
   12PS8B   B24 1215   6.880  11.774  15.889
   12PS8B   B25 1216   6.905  11.895  15.923
   12PS8B   B26 1217   6.846  12.008  15.906
   12PS8B   B27 1218   6.764  12.079  15.974
   12PS8B   B28 1219   6.760  12.202  16.013
   12PS8B   B29 1220   6.981  11.393  15.896
   12PS8B   C30 1221   7.063  11.300  15.963
   12PS8B   C31 1222   7.034  11.205  16.118
   12PS8B   C32 1223   7.123  11.189  16.267
   12PS8B   C33 1224   7.289  11.137  16.292
    1PS8B    C0 1225  17.201   6.049  12.850
    1PS8B    C1 1226  17.075   6.165  12.812
    1PS8B    C2 1227  16.989   6.273  12.919
    1PS8B    C3 1228  16.818   6.344  12.918
    1PS8B    B4 1229  16.754   6.423  12.822
    1PS8B    B5 1230  16.643   6.524  12.796
    1PS8B    B6 1231  16.577   6.591  12.886
    1PS8B    B7 1232  16.602   6.631  13.006
    1PS8B    B8 1233  16.700   6.691  13.064
    1PS8B    B9 1234  16.795   6.770  13.026
    1PS8B   B10 1235  16.815   6.838  12.926
    1PS8B   B11 1236  16.790   6.825  12.805
    1PS8B   B12 1237  16.684   6.804  12.736
    1PS8B   B13 1238  16.558   6.808  12.759
    1PS8B   B14 1239  16.484   6.792  12.864
    1PS8B   B15 1240  16.506   6.785  12.992
    1PS8B   B16 1241  16.754   6.876  12.844
    1PS8B   B17 1242  16.694   6.873  12.917
    1PS8B   B18 1243  16.664   6.901  12.835
    1PS8B   B19 1244  16.684   6.890  13.030
    1PS8B   B20 1245  16.742   6.975  13.107
    1PS8B   B21 1246  16.799   7.089  13.091
    1PS8B   B22 1247  16.917   7.137  13.112
    1PS8B   B23 1248  16.976   7.249  13.086
    1PS8B   B24 1249  16.597   6.970  12.785
    1PS8B   B25 1250  16.596   7.044  12.679
    1PS8B   B26 1251  16.679   7.070  12.585
    1PS8B   B27 1252  16.700   7.024  12.467
    1PS8B   B28 1253  16.712   7.075  12.350
    1PS8B   B29 1254  16.412   6.830  13.102
    1PS8B   C30 1255  16.285   6.814  13.160
    1PS8B   C31 1256  16.158   6.683  13.136
    1PS8B   C32 1257  15.989   6.686  13.091
    1PS8B   C33 1258  15.856   6.772  13.165
    2PS8B    C0 1259  17.372   2.945  10.989
    2PS8B    C1 1260  17.272   3.088  10.989
    2PS8B    C2 1261  17.252   3.209  11.115
    2PS8B    C3 1262  17.113   3.319  11.165
    2PS8B    B4 1263  17.042   3.415  11.092
    2PS8B    B5 1264  16.957   3.541  11.100
    2PS8B    B6 1265  16.941   3.618  11.204
    2PS8B    B7 1266  17.011   3.645  11.308
    2PS8B    B8 1267  17.134   3.677  11.329
    2PS8B    B9 1268  17.228   3.733  11.260
    2PS8B   B10 1269  17.231   3.798  11.157
    2PS8B   B11 1270  17.167   3.797  11.050
    2PS8B   B12 1271  17.043   3.805  11.020
    2PS8B   B13 1272  16.936   3.838  11.082
    2PS8B   B14 1273  16.897   3.835  11.205
    2PS8B   B15 1274  16.956   3.818  11.320
    2PS8B   B16 1275  17.159   3.853  11.097
    2PS8B   B17 1276  17.126   3.861  11.186
    2PS8B   B18 1277  17.080   3.899  11.117
    2PS8B   B19 1278  17.157   3.875  11.295
    2PS8B   B20 1279  17.255   3.941  11.347
    2PS8B   B21 1280  17.330   4.039  11.309
    2PS8B   B22 1281  17.456   4.055  11.290
    2PS8B   B23 1282  17.529   4.151  11.243
    2PS8B   B24 1283  17.018   3.985  11.088
    2PS8B   B25 1284  17.001   4.062  10.986
    2PS8B   B26 1285  17.054   4.071  10.870
    2PS8B   B27 1286  17.025   4.027  10.753
    2PS8B   B28 1287  17.011   4.079  10.636
    2PS8B   B29 1288  16.916   3.879  11.452
    2PS8B   C30 1289  16.814   3.891  11.549
    2PS8B   C31 1290  16.658   3.796  11.571
    2PS8B   C32 1291  16.489   3.841  11.582
    2PS8B   C33 1292  16.412   3.952  11.692
    3PS8B    C0 1293  21.882   4.030  11.295
    3PS8B    C1 1294  21.759   4.120  11.208
    3PS8B    C2 1295  21.655   4.248  11.265
    3PS8B    C3 1296  21.485   4.304  11.220
    3PS8B    B4 1297  21.433   4.345  11.098
    3PS8B    B5 1298  21.324   4.426  11.028
    3PS8B    B6 1299  21.244   4.512  11.084
    3PS8B    B7 1300  21.250   4.588  11.188
    3PS8B    B8 1301  21.337   4.670  11.237
    3PS8B    B9 1302  21.434   4.740  11.188
    3PS8B   B10 1303  21.467   4.776  11.075
    3PS8B   B11 1304  21.460   4.726  10.962
    3PS8B   B12 1305  21.365   4.677  10.891
    3PS8B   B13 1306  21.237   4.679  10.895
    3PS8B   B14 1307  21.150   4.690  10.990
    3PS8B   B15 1308  21.153   4.724  11.115
    3PS8B   B16 1309  21.417   4.783  10.979
    3PS8B   B17 1310  21.347   4.798  11.041
    3PS8B   B18 1311  21.329   4.798  10.951
    3PS8B   B19 1312  21.321   4.847  11.141
    3PS8B   B20 1313  21.365   4.956  11.195
    3PS8B   B21 1314  21.421   5.064  11.151
    3PS8B   B22 1315  21.533   5.123  11.172
    3PS8B   B23 1316  21.592   5.226  11.121
    3PS8B   B24 1317  21.267   4.844  10.874
    3PS8B   B25 1318  21.279   4.883  10.752
    3PS8B   B26 1319  21.374   4.885  10.666
    3PS8B   B27 1320  21.413   4.807  10.571
    3PS8B   B28 1321  21.440   4.820  10.446
    3PS8B   B29 1322  21.043   4.793  11.193
    3PS8B   C30 1323  20.910   4.787  11.237
    3PS8B   C31 1324  20.791   4.646  11.239
    3PS8B   C32 1325  20.630   4.623  11.174
    3PS8B   C33 1326  20.486   4.718  11.201
    4PS8B    C0 1327  19.938   4.865  14.493
    4PS8B    C1 1328  19.857   4.898  14.644
    4PS8B    C2 1329  19.877   4.820  14.799
    4PS8B    C3 1330  19.764   4.790  14.942
    4PS8B    B4 1331  19.691   4.879  15.021
    4PS8B    B5 1332  19.624   4.902  15.156
    4PS8B    B6 1333  19.637   4.830  15.263
    4PS8B    B7 1334  19.730   4.753  15.309
    4PS8B    B8 1335  19.858   4.763  15.325
    4PS8B    B9 1336  19.941   4.861  15.339
    4PS8B   B10 1337  19.930   4.980  15.366
    4PS8B   B11 1338  19.847   5.068  15.343
    4PS8B   B12 1339  19.721   5.080  15.361
    4PS8B   B13 1340  19.632   5.017  15.431
    4PS8B   B14 1341  19.619   4.896  15.474
    4PS8B   B15 1342  19.698   4.793  15.484
    4PS8B   B16 1343  19.854   5.043  15.411
    4PS8B   B17 1344  19.841   4.958  15.453
    4PS8B   B18 1345  19.786   5.028  15.474
    4PS8B   B19 1346  19.895   4.866  15.495
    4PS8B   B20 1347  20.008   4.856  15.555
    4PS8B   B21 1348  20.084   4.936  15.622
    4PS8B   B22 1349  20.204   4.979  15.610
    4PS8B   B23 1350  20.277   5.066  15.671
    4PS8B   B24 1351  19.730   5.075  15.556
    4PS8B   B25 1352  19.702   5.193  15.598
    4PS8B   B26 1353  19.730   5.312  15.561
    4PS8B   B27 1354  19.674   5.401  15.487
    4PS8B   B28 1355  19.642   5.525  15.501
    4PS8B   B29 1356  19.692   4.685  15.589
    4PS8B   C30 1357  19.614   4.584  15.649
    4PS8B   C31 1358  19.456   4.507  15.594
    4PS8B   C32 1359  19.299   4.486  15.668
    4PS8B   C33 1360  19.258   4.411  15.821
    5PS8B    C0 1361  19.216   5.124  14.636
    5PS8B    C1 1362  19.211   5.018  14.776
    5PS8B    C2 1363  19.083   4.910  14.827
    5PS8B    C3 1364  19.027   4.848  14.992
    5PS8B    B4 1365  19.097   4.779  15.091
    5PS8B    B5 1366  19.086   4.686  15.212
    5PS8B    B6 1367  18.980   4.618  15.247
    5PS8B    B7 1368  18.878   4.570  15.185
    5PS8B    B8 1369  18.860   4.501  15.078
    5PS8B    B9 1370  18.932   4.419  15.008
    5PS8B   B10 1371  19.035   4.356  15.029
    5PS8B   B11 1372  19.139   4.377  15.093
    5PS8B   B12 1373  19.166   4.409  15.214
    5PS8B   B13 1374  19.100   4.410  15.325
    5PS8B   B14 1375  18.975   4.425  15.356
    5PS8B   B15 1376  18.863   4.423  15.291
    5PS8B   B16 1377  19.092   4.327  15.117
    5PS8B   B17 1378  19.002   4.329  15.148
    5PS8B   B18 1379  19.069   4.307  15.206
    5PS8B   B19 1380  18.894   4.306  15.119
    5PS8B   B20 1381  18.844   4.213  15.044
    5PS8B   B21 1382  18.884   4.097  15.005
    5PS8B   B22 1383  18.907   4.042  14.891
    5PS8B   B23 1384  18.955   3.928  14.853
    5PS8B   B24 1385  19.095   4.245  15.292
    5PS8B   B25 1386  19.196   4.177  15.335
    5PS8B   B26 1387  19.314   4.152  15.292
    5PS8B   B27 1388  19.430   4.203  15.310
    5PS8B   B28 1389  19.546   4.159  15.343
    5PS8B   B29 1390  18.729   4.377  15.344
    5PS8B   C30 1391  18.629   4.397  15.441
    5PS8B   C31 1392  18.602   4.536  15.558
    5PS8B   C32 1393  18.586   4.546  15.732
    5PS8B   C33 1394  18.472   4.464  15.837
    6PS8B    C0 1395  17.206   4.137  12.324
    6PS8B    C1 1396  17.350   4.113  12.422
    6PS8B    C2 1397  17.455   3.973  12.430
    6PS8B    C3 1398  17.559   3.900  12.564
    6PS8B    B4 1399  17.663   3.955  12.639
    6PS8B    B5 1400  17.788   3.928  12.722
    6PS8B    B6 1401  17.852   3.815  12.729
    6PS8B    B7 1402  17.868   3.714  12.650
    6PS8B    B8 1403  17.897   3.699  12.526
    6PS8B    B9 1404  17.960   3.769  12.437
    6PS8B   B10 1405  18.036   3.865  12.441
    6PS8B   B11 1406  18.048   3.965  12.514
    6PS8B   B12 1407  18.058   3.984  12.640
    6PS8B   B13 1408  18.085   3.910  12.742
    6PS8B   B14 1409  18.068   3.785  12.770
    6PS8B   B15 1410  18.038   3.679  12.703
    6PS8B   B16 1411  18.097   3.912  12.518
    6PS8B   B17 1412  18.096   3.820  12.543
    6PS8B   B18 1413  18.142   3.881  12.595
    6PS8B   B19 1414  18.097   3.713  12.503
    6PS8B   B20 1415  18.156   3.662  12.401
    6PS8B   B21 1416  18.258   3.695  12.328
    6PS8B   B22 1417  18.277   3.722  12.204
    6PS8B   B23 1418  18.376   3.763  12.134
    6PS8B   B24 1419  18.230   3.895  12.657
    6PS8B   B25 1420  18.318   3.986  12.681
    6PS8B   B26 1421  18.340   4.104  12.638
    6PS8B   B27 1422  18.309   4.223  12.676
    6PS8B   B28 1423  18.374   4.332  12.700
    6PS8B   B29 1424  18.084   3.537  12.731
    6PS8B   C30 1425  18.086   3.432  12.825
    6PS8B   C31 1426  17.989   3.408  12.979
    6PS8B   C32 1427  18.032   3.379  13.146
    6PS8B   C33 1428  18.131   3.251  13.214
    7PS8B    C0 1429  20.605   6.197  14.935
    7PS8B    C1 1430  20.574   6.027  14.908
    7PS8B    C2 1431  20.493   5.913  15.013
    7PS8B    C3 1432  20.510   5.731  15.039
    7PS8B    B4 1433  20.496   5.624  14.949
    7PS8B    B5 1434  20.466   5.476  14.933
    7PS8B    B6 1435  20.416   5.397  15.023
    7PS8B    B7 1436  20.340   5.413  15.126
    7PS8B    B8 1437  20.229   5.475  15.149
    7PS8B    B9 1438  20.128   5.513  15.077
    7PS8B   B10 1439  20.088   5.485  14.965
    7PS8B   B11 1440  20.140   5.455  14.857
    7PS8B   B12 1441  20.225   5.366  14.819
    7PS8B   B13 1442  20.272   5.258  14.870
    7PS8B   B14 1443  20.292   5.215  14.990
    7PS8B   B15 1444  20.256   5.253  15.108
    7PS8B   B16 1445  20.104   5.404  14.894
    7PS8B   B17 1446  20.115   5.363  14.979
    7PS8B   B18 1447  20.125   5.313  14.902
    7PS8B   B19 1448  20.075   5.360  15.086
    7PS8B   B20 1449  19.956   5.377  15.133
    7PS8B   B21 1450  19.837   5.367  15.085
    7PS8B   B22 1451  19.738   5.448  15.070
    7PS8B   B23 1452  19.623   5.441  15.013
    7PS8B   B24 1453  20.109   5.215  14.858
    7PS8B   B25 1454  20.074   5.164  14.745
    7PS8B   B26 1455  20.039   5.212  14.631
    7PS8B   B27 1456  20.099   5.239  14.521
    7PS8B   B28 1457  20.080   5.209  14.397
    7PS8B   B29 1458  20.231   5.163  15.228
    7PS8B   C30 1459  20.287   5.068  15.316
    7PS8B   C31 1460  20.462   5.021  15.345
    7PS8B   C32 1461  20.548   4.869  15.340
    7PS8B   C33 1462  20.516   4.721  15.428
    8PS8B    C0 1463  21.451   4.199  11.439
    8PS8B    C1 1464  21.356   4.055  11.411
    8PS8B    C2 1465  21.374   3.895  11.481
    8PS8B    C3 1466  21.337   3.725  11.420
    8PS8B    B4 1467  21.217   3.668  11.376
    8PS8B    B5 1468  21.139   3.539  11.356
    8PS8B    B6 1469  21.169   3.422  11.404
    8PS8B    B7 1470  21.234   3.381  11.507
    8PS8B    B8 1471  21.235   3.409  11.633
    8PS8B    B9 1472  21.149   3.459  11.716
    8PS8B   B10 1473  21.028   3.477  11.715
    8PS8B   B11 1474  20.945   3.506  11.627
    8PS8B   B12 1475  20.912   3.456  11.514
    8PS8B   B13 1476  20.934   3.345  11.453
    8PS8B   B14 1477  21.029   3.257  11.456
    8PS8B   B15 1478  21.130   3.233  11.533
    8PS8B   B16 1479  20.944   3.439  11.656
    8PS8B   B17 1480  21.006   3.366  11.658
    8PS8B   B18 1481  20.927   3.358  11.613
    8PS8B   B19 1482  21.082   3.311  11.723
    8PS8B   B20 1483  21.084   3.288  11.850
    8PS8B   B21 1484  20.995   3.283  11.943
    8PS8B   B22 1485  20.974   3.346  12.053
    8PS8B   B23 1486  20.880   3.348  12.141
    8PS8B   B24 1487  20.847   3.287  11.587
    8PS8B   B25 1488  20.719   3.287  11.573
    8PS8B   B26 1489  20.626   3.373  11.587
    8PS8B   B27 1490  20.564   3.454  11.510
    8PS8B   B28 1491  20.441   3.480  11.483
    8PS8B   B29 1492  21.191   3.098  11.563
    8PS8B   C30 1493  21.253   2.984  11.508
    8PS8B   C31 1494  21.326   2.955  11.342
    8PS8B   C32 1495  21.299   2.835  11.217
    8PS8B   C33 1496  21.309   2.661  11.229
    9PS8B    C0 1497  21.260   5.927  11.717
    9PS8B    C1 1498  21.162   5.799  11.648
    9PS8B    C2 1499  21.030   5.812  11.534
    9PS8B    C3 1500  20.878   5.712  11.504
    9PS8B    B4 1501  20.862   5.577  11.473
    9PS8B    B5 1502  20.773   5.471  11.410
    9PS8B    B6 1503  20.668   5.493  11.335
    9PS8B    B7 1504  20.632   5.588  11.257
    9PS8B    B8 1505  20.687   5.657  11.163
    9PS8B    B9 1506  20.785   5.637  11.080
    9PS8B   B10 1507  20.847   5.538  11.043
    9PS8B   B11 1508  20.883   5.432  11.096
    9PS8B   B12 1509  20.824   5.338  11.159
    9PS8B   B13 1510  20.702   5.301  11.175
    9PS8B   B14 1511  20.588   5.362  11.175
    9PS8B   B15 1512  20.546   5.479  11.138
    9PS8B   B16 1513  20.831   5.431  11.045
    9PS8B   B17 1514  20.743   5.466  11.039
    9PS8B   B18 1515  20.755   5.376  11.043
    9PS8B   B19 1516  20.680   5.549  10.991
    9PS8B   B20 1517  20.690   5.607  10.877
    9PS8B   B21 1518  20.743   5.576  10.763
    9PS8B   B22 1519  20.833   5.627  10.688
    9PS8B   B23 1520  20.892   5.591  10.579
    9PS8B   B24 1521  20.716   5.280  11.008
    9PS8B   B25 1522  20.761   5.165  10.971
    9PS8B   B26 1523  20.878   5.114  10.957
    9PS8B   B27 1524  20.955   5.042  11.031
    9PS8B   B28 1525  21.019   4.931  11.016
    9PS8B   B29 1526  20.410   5.515  11.084
    9PS8B   C30 1527  20.271   5.514  11.108
    9PS8B   C31 1528  20.177   5.488  11.264
    9PS8B   C32 1529  20.050   5.377  11.311
    9PS8B   C33 1530  19.893   5.350  11.237
   10PS8B    C0 1531  21.563   2.859  14.488
   10PS8B    C1 1532  21.415   2.935  14.433
   10PS8B    C2 1533  21.255   2.925  14.503
   10PS8B    C3 1534  21.084   2.935  14.432
   10PS8B    B4 1535  21.022   3.035  14.358
   10PS8B    B5 1536  20.890   3.098  14.316
   10PS8B    B6 1537  20.773   3.074  14.369
   10PS8B    B7 1538  20.732   3.036  14.484
   10PS8B    B8 1539  20.757   3.070  14.606
   10PS8B    B9 1540  20.799   3.177  14.665
   10PS8B   B10 1541  20.811   3.294  14.632
   10PS8B   B11 1542  20.837   3.353  14.526
   10PS8B   B12 1543  20.789   3.352  14.408
   10PS8B   B13 1544  20.681   3.308  14.353
   10PS8B   B14 1545  20.599   3.212  14.379
   10PS8B   B15 1546  20.578   3.133  14.480
   10PS8B   B16 1547  20.770   3.357  14.553
   10PS8B   B17 1548  20.701   3.294  14.570
   10PS8B   B18 1549  20.689   3.358  14.505
   10PS8B   B19 1550  20.648   3.234  14.652
   10PS8B   B20 1551  20.621   3.264  14.774
   10PS8B   B21 1552  20.608   3.374  14.840
   10PS8B   B22 1553  20.667   3.426  14.942
   10PS8B   B23 1554  20.660   3.540  15.002
   10PS8B   B24 1555  20.615   3.423  14.458
   10PS8B   B25 1556  20.608   3.543  14.411
   10PS8B   B26 1557  20.689   3.642  14.402
   10PS8B   B27 1558  20.769   3.686  14.312
   10PS8B   B28 1559  20.788   3.800  14.255
   10PS8B   B29 1560  20.446   3.074  14.523
   10PS8B   C30 1561  20.337   2.993  14.485
   10PS8B   C31 1562  20.318   2.878  14.343
   10PS8B   C32 1563  20.200   2.864  14.214
   10PS8B   C33 1564  20.026   2.846  14.225
   11PS8B    C0 1565  20.023   6.200  12.667
   11PS8B    C1 1566  20.195   6.204  12.639
   11PS8B    C2 1567  20.319   6.094  12.696
   11PS8B    C3 1568  20.498   6.114  12.738
   11PS8B    B4 1569  20.605   6.159  12.661
   11PS8B    B5 1570  20.756   6.157  12.641
   11PS8B    B6 1571  20.840   6.077  12.699
   11PS8B    B7 1572  20.833   5.958  12.748
   11PS8B    B8 1573  20.785   5.845  12.709
   11PS8B    B9 1574  20.760   5.791  12.594
   11PS8B   B10 1575  20.793   5.815  12.479
   11PS8B   B11 1576  20.816   5.918  12.414
   11PS8B   B12 1577  20.894   6.018  12.429
   11PS8B   B13 1578  20.996   6.045  12.503
   11PS8B   B14 1579  21.035   6.006  12.619
   11PS8B   B15 1580  21.003   5.911  12.701
   11PS8B   B16 1581  20.871   5.873  12.431
   11PS8B   B17 1582  20.911   5.844  12.512
   11PS8B   B18 1583  20.959   5.897  12.454
   11PS8B   B19 1584  20.919   5.757  12.585
   11PS8B   B20 1585  20.916   5.629  12.565
   11PS8B   B21 1586  20.940   5.552  12.464
   11PS8B   B22 1587  20.872   5.466  12.397
   11PS8B   B23 1588  20.894   5.397  12.291
   11PS8B   B24 1589  21.059   5.916  12.414
   11PS8B   B25 1590  21.113   5.948  12.302
   11PS8B   B26 1591  21.070   5.970  12.183
   11PS8B   B27 1592  21.036   6.074  12.116
   11PS8B   B28 1593  21.068   6.123  12.002
   11PS8B   B29 1594  21.094   5.839  12.798
   11PS8B   C30 1595  21.182   5.853  12.908
   11PS8B   C31 1596  21.208   5.994  13.023
   11PS8B   C32 1597  21.348   6.087  13.071
   11PS8B   C33 1598  21.499   6.030  13.140
   12PS8B    C0 1599  20.775   5.601  15.451
   12PS8B    C1 1600  20.733   5.602  15.281
   12PS8B    C2 1601  20.752   5.474  15.163
   12PS8B    C3 1602  20.781   5.472  14.980
   12PS8B    B4 1603  20.706   5.528  14.876
   12PS8B    B5 1604  20.673   5.521  14.727
   12PS8B    B6 1605  20.702   5.425  14.646
   12PS8B    B7 1606  20.723   5.298  14.658
   12PS8B    B8 1607  20.664   5.201  14.718
   12PS8B    B9 1608  20.542   5.177  14.757
   12PS8B   B10 1609  20.433   5.226  14.731
   12PS8B   B11 1610  20.392   5.340  14.704
   12PS8B   B12 1611  20.423   5.429  14.617
   12PS8B   B13 1612  20.491   5.431  14.508
   12PS8B   B14 1613  20.591   5.363  14.463
   12PS8B   B15 1614  20.652   5.254  14.497
   12PS8B   B16 1615  20.393   5.289  14.652
   12PS8B   B17 1616  20.461   5.239  14.608
   12PS8B   B18 1617  20.413   5.301  14.561
   12PS8B   B19 1618  20.511   5.137  14.602
   12PS8B   B20 1619  20.462   5.018  14.616
   12PS8B   B21 1620  20.345   4.966  14.607
   12PS8B   B22 1621  20.266   4.903  14.686
   12PS8B   B23 1622  20.145   4.859  14.679
   12PS8B   B24 1623  20.369   5.323  14.463
   12PS8B   B25 1624  20.263   5.377  14.415
   12PS8B   B26 1625  20.157   5.429  14.464
   12PS8B   B27 1626  20.119   5.548  14.495
   12PS8B   B28 1627  20.017   5.622  14.468
   12PS8B   B29 1628  20.720   5.155  14.405
   12PS8B   C30 1629  20.822   5.137  14.309
   12PS8B   C31 1630  20.963   5.245  14.263
   12PS8B   C32 1631  21.018   5.314  14.112
   12PS8B   C33 1632  21.058   5.234  13.962
    1PS8B    C0 1633  14.202  15.538  17.771
    1PS8B    C1 1634  14.117  15.402  17.842
    1PS8B    C2 1635  13.974  15.403  17.944
    1PS8B    C3 1636  13.913  15.290  18.077
    1PS8B    B4 1637  13.884  15.154  18.075
    1PS8B    B5 1638  13.806  15.040  18.140
    1PS8B    B6 1639  13.708  15.053  18.225
    1PS8B    B7 1640  13.620  15.143  18.248
    1PS8B    B8 1641  13.539  15.214  18.177
    1PS8B    B9 1642  13.482  15.200  18.061
    1PS8B   B10 1643  13.465  15.105  17.985
    1PS8B   B11 1644  13.529  15.003  17.955
    1PS8B   B12 1645  13.580  14.906  18.021
    1PS8B   B13 1646  13.567  14.861  18.141
    1PS8B   B14 1647  13.538  14.913  18.256
    1PS8B   B15 1648  13.488  15.026  18.295
    1PS8B   B16 1649  13.467  14.997  17.994
    1PS8B   B17 1650  13.439  15.026  18.080
    1PS8B   B18 1651  13.449  14.936  18.064
    1PS8B   B19 1652  13.375  15.103  18.135
    1PS8B   B20 1653  13.263  15.159  18.103
    1PS8B   B21 1654  13.167  15.130  18.022
    1PS8B   B22 1655  13.113  15.186  17.920
    1PS8B   B23 1656  13.023  15.151  17.834
    1PS8B   B24 1657  13.410  14.837  18.086
    1PS8B   B25 1658  13.389  14.726  18.026
    1PS8B   B26 1659  13.405  14.683  17.906
    1PS8B   B27 1660  13.497  14.619  17.844
    1PS8B   B28 1661  13.502  14.512  17.771
    1PS8B   B29 1662  13.402  15.050  18.417
    1PS8B   C30 1663  13.392  15.039  18.557
    1PS8B   C31 1664  13.523  15.009  18.684
    1PS8B   C32 1665  13.543  14.890  18.810
    1PS8B   C33 1666  13.435  14.850  18.942
    2PS8B    C0 1667  13.011  15.232  16.367
    2PS8B    C1 1668  12.977  15.087  16.458
    2PS8B    C2 1669  12.822  15.015  16.497
    2PS8B    C3 1670  12.760  14.913  16.638
    2PS8B    B4 1671  12.805  14.791  16.688
    2PS8B    B5 1672  12.768  14.666  16.767
    2PS8B    B6 1673  12.648  14.628  16.800
    2PS8B    B7 1674  12.531  14.646  16.751
    2PS8B    B8 1675  12.478  14.638  16.634
    2PS8B    B9 1676  12.505  14.573  16.525
    2PS8B   B10 1677  12.576  14.477  16.498
    2PS8B   B11 1678  12.685  14.434  16.539
    2PS8B   B12 1679  12.732  14.403  16.654
    2PS8B   B13 1680  12.682  14.380  16.770
    2PS8B   B14 1681  12.576  14.420  16.833
    2PS8B   B15 1682  12.468  14.482  16.800
    2PS8B   B16 1683  12.624  14.397  16.555
    2PS8B   B17 1684  12.545  14.416  16.604
    2PS8B   B18 1685  12.603  14.351  16.634
    2PS8B   B19 1686  12.435  14.444  16.595
    2PS8B   B20 1687  12.347  14.412  16.507
    2PS8B   B21 1688  12.333  14.316  16.422
    2PS8B   B22 1689  12.323  14.309  16.294
    2PS8B   B23 1690  12.319  14.212  16.208
    2PS8B   B24 1691  12.610  14.254  16.684
    2PS8B   B25 1692  12.679  14.146  16.676
    2PS8B   B26 1693  12.773  14.104  16.600
    2PS8B   B27 1694  12.901  14.102  16.607
    2PS8B   B28 1695  12.993  14.012  16.595
    2PS8B   B29 1696  12.331  14.466  16.863
    2PS8B   C30 1697  12.256  14.475  16.982
    2PS8B   C31 1698  12.297  14.554  17.143
    2PS8B   C32 1699  12.300  14.497  17.308
    2PS8B   C33 1700  12.172  14.421  17.401
    3PS8B    C0 1701  12.791  14.079  19.899
    3PS8B    C1 1702  12.675  14.007  19.789
    3PS8B    C2 1703  12.626  14.060  19.630
    3PS8B    C3 1704  12.469  14.046  19.534
    3PS8B    B4 1705  12.396  13.934  19.494
    3PS8B    B5 1706  12.295  13.877  19.395
    3PS8B    B6 1707  12.258  13.932  19.283
    3PS8B    B7 1708  12.311  14.014  19.200
    3PS8B    B8 1709  12.426  14.023  19.142
    3PS8B    B9 1710  12.520  13.941  19.109
    3PS8B   B10 1711  12.527  13.819  19.099
    3PS8B   B11 1712  12.477  13.723  19.159
    3PS8B   B12 1713  12.357  13.686  19.187
    3PS8B   B13 1714  12.240  13.720  19.147
    3PS8B   B14 1715  12.188  13.828  19.099
    3PS8B   B15 1716  12.234  13.940  19.053
    3PS8B   B16 1717  12.456  13.737  19.090
    3PS8B   B17 1718  12.412  13.810  19.048
    3PS8B   B18 1719  12.370  13.729  19.054
    3PS8B   B19 1720  12.428  13.901  18.981
    3PS8B   B20 1721  12.510  13.921  18.883
    3PS8B   B21 1722  12.576  13.845  18.803
    3PS8B   B22 1723  12.700  13.826  18.776
    3PS8B   B23 1724  12.766  13.743  18.702
    3PS8B   B24 1725  12.302  13.660  19.002
    3PS8B   B25 1726  12.288  13.533  18.984
    3PS8B   B26 1727  12.353  13.429  19.021
    3PS8B   B27 1728  12.344  13.346  19.118
    3PS8B   B28 1729  12.337  13.217  19.128
    3PS8B   B29 1730  12.171  14.027  18.945
    3PS8B   C30 1731  12.058  14.101  18.907
    3PS8B   C31 1732  11.914  14.158  19.006
    3PS8B   C32 1733  11.741  14.139  18.990
    3PS8B   C33 1734  11.637  14.180  18.854
    4PS8B    C0 1735  13.202  14.118  17.763
    4PS8B    C1 1736  13.096  14.020  17.664
    4PS8B    C2 1737  13.055  13.851  17.682
    4PS8B    C3 1738  13.009  13.718  17.562
    4PS8B    B4 1739  12.904  13.711  17.470
    4PS8B    B5 1740  12.814  13.620  17.388
    4PS8B    B6 1741  12.800  13.491  17.403
    4PS8B    B7 1742  12.813  13.410  17.501
    4PS8B    B8 1743  12.774  13.407  17.624
    4PS8B    B9 1744  12.676  13.460  17.690
    4PS8B   B10 1745  12.571  13.513  17.659
    4PS8B   B11 1746  12.532  13.584  17.566
    4PS8B   B12 1747  12.533  13.574  17.438
    4PS8B   B13 1748  12.553  13.479  17.354
    4PS8B   B14 1749  12.621  13.369  17.356
    4PS8B   B15 1750  12.679  13.298  17.447
    4PS8B   B16 1751  12.508  13.516  17.571
    4PS8B   B17 1752  12.548  13.430  17.567
    4PS8B   B18 1753  12.491  13.456  17.500
    4PS8B   B19 1754  12.583  13.341  17.630
    4PS8B   B20 1755  12.534  13.290  17.737
    4PS8B   B21 1756  12.418  13.290  17.794
    4PS8B   B22 1757  12.372  13.330  17.907
    4PS8B   B23 1758  12.255  13.339  17.960
    4PS8B   B24 1759  12.414  13.420  17.431
    4PS8B   B25 1760  12.303  13.462  17.381
    4PS8B   B26 1761  12.230  13.566  17.395
    4PS8B   B27 1762  12.218  13.678  17.333
    4PS8B   B28 1763  12.121  13.744  17.282
    4PS8B   B29 1764  12.697  13.148  17.449
    4PS8B   C30 1765  12.750  13.036  17.381
    4PS8B   C31 1766  12.871  13.026  17.243
    4PS8B   C32 1767  12.867  12.952  17.084
    4PS8B   C33 1768  12.837  12.785  17.042
    5PS8B    C0 1769  13.691  12.906  17.477
    5PS8B    C1 1770  13.601  12.925  17.328
    5PS8B    C2 1771  13.617  12.835  17.178
    5PS8B    C3 1772  13.589  12.878  17.001
    5PS8B    B4 1773  13.475  12.925  16.935
    5PS8B    B5 1774  13.401  12.936  16.802
    5PS8B    B6 1775  13.429  12.872  16.693
    5PS8B    B7 1776  13.485  12.760  16.666
    5PS8B    B8 1777  13.473  12.639  16.709
    5PS8B    B9 1778  13.380  12.570  16.766
    5PS8B   B10 1779  13.259  12.585  16.779
    5PS8B   B11 1780  13.183  12.681  16.795
    5PS8B   B12 1781  13.162  12.790  16.731
    5PS8B   B13 1782  13.192  12.835  16.615
    5PS8B   B14 1783  13.288  12.814  16.531
    5PS8B   B15 1784  13.382  12.726  16.519
    5PS8B   B16 1785  13.182  12.645  16.732
    5PS8B   B17 1786  13.245  12.629  16.662
    5PS8B   B18 1787  13.170  12.680  16.646
    5PS8B   B19 1788  13.315  12.552  16.617
    5PS8B   B20 1789  13.306  12.423  16.609
    5PS8B   B21 1790  13.209  12.339  16.613
    5PS8B   B22 1791  13.177  12.239  16.688
    5PS8B   B23 1792  13.075  12.161  16.697
    5PS8B   B24 1793  13.095  12.705  16.570
    5PS8B   B25 1794  12.969  12.729  16.564
    5PS8B   B26 1795  12.873  12.733  16.649
    5PS8B   B27 1796  12.816  12.826  16.718
    5PS8B   B28 1797  12.695  12.866  16.737
    5PS8B   B29 1798  13.443  12.675  16.390
    5PS8B   C30 1799  13.512  12.709  16.272
    5PS8B   C31 1800  13.601  12.864  16.227
    5PS8B   C32 1801  13.588  12.975  16.092
    5PS8B   C33 1802  13.600  12.942  15.921
    6PS8B    C0 1803  12.502  14.099  18.455
    6PS8B    C1 1804  12.628  13.977  18.461
    6PS8B    C2 1805  12.613  13.804  18.440
    6PS8B    C3 1806  12.708  13.660  18.507
    6PS8B    B4 1807  12.843  13.628  18.497
    6PS8B    B5 1808  12.947  13.516  18.501
    6PS8B    B6 1809  12.924  13.388  18.497
    6PS8B    B7 1810  12.830  13.315  18.448
    6PS8B    B8 1811  12.768  13.309  18.335
    6PS8B    B9 1812  12.795  13.343  18.213
    6PS8B   B10 1813  12.898  13.372  18.153
    6PS8B   B11 1814  13.003  13.430  18.182
    6PS8B   B12 1815  13.092  13.415  18.273
    6PS8B   B13 1816  13.123  13.323  18.356
    6PS8B   B14 1817  13.057  13.230  18.417
    6PS8B   B15 1818  12.939  13.177  18.404
    6PS8B   B16 1819  13.004  13.358  18.170
    6PS8B   B17 1820  12.965  13.283  18.212
    6PS8B   B18 1821  13.056  13.294  18.214
    6PS8B   B19 1822  12.881  13.205  18.203
    6PS8B   B20 1823  12.828  13.150  18.100
    6PS8B   B21 1824  12.865  13.129  17.978
    6PS8B   B22 1825  12.821  13.162  17.862
    6PS8B   B23 1826  12.864  13.149  17.741
    6PS8B   B24 1827  13.151  13.240  18.212
    6PS8B   B25 1828  13.269  13.255  18.162
    6PS8B   B26 1829  13.326  13.343  18.088
    6PS8B   B27 1830  13.398  13.447  18.110
    6PS8B   B28 1831  13.512  13.490  18.068
    6PS8B   B29 1832  12.901  13.033  18.433
    6PS8B   C30 1833  12.894  12.932  18.531
    6PS8B   C31 1834  12.910  12.942  18.714
    6PS8B   C32 1835  13.014  12.862  18.830
    6PS8B   C33 1836  13.036  12.691  18.859
    7PS8B    C0 1837  13.679  12.438  19.053
    7PS8B    C1 1838  13.551  12.335  18.991
    7PS8B    C2 1839  13.550  12.161  18.973
    7PS8B    C3 1840  13.467  12.046  18.855
    7PS8B    B4 1841  13.331  12.028  18.826
    7PS8B    B5 1842  13.225  11.933  18.772
    7PS8B    B6 1843  13.239  11.805  18.752
    7PS8B    B7 1844  13.314  11.713  18.803
    7PS8B    B8 1845  13.346  11.676  18.922
    7PS8B    B9 1846  13.291  11.686  19.039
    7PS8B   B10 1847  13.179  11.713  19.079
    7PS8B   B11 1848  13.087  11.787  19.041
    7PS8B   B12 1849  13.023  11.802  18.932
    7PS8B   B13 1850  13.008  11.734  18.824
    7PS8B   B14 1851  13.082  11.649  18.760
    7PS8B   B15 1852  13.189  11.581  18.787
    7PS8B   B16 1853  13.079  11.715  19.036
    7PS8B   B17 1854  13.123  11.646  18.988
    7PS8B   B18 1855  13.036  11.667  18.967
    7PS8B   B19 1856  13.198  11.560  18.997
    7PS8B   B20 1857  13.220  11.478  19.093
    7PS8B   B21 1858  13.153  11.436  19.195
    7PS8B   B22 1859  13.168  11.438  19.322
    7PS8B   B23 1860  13.096  11.405  19.424
    7PS8B   B24 1861  12.941  11.626  18.935
    7PS8B   B25 1862  12.815  11.644  18.959
    7PS8B   B26 1863  12.747  11.719  19.036
    7PS8B   B27 1864  12.689  11.833  19.024
    7PS8B   B28 1865  12.571  11.879  19.047
    7PS8B   B29 1866  13.225  11.444  18.734
    7PS8B   C30 1867  13.250  11.366  18.619
    7PS8B   C31 1868  13.280  11.417  18.445
    7PS8B   C32 1869  13.204  11.375  18.293
    7PS8B   C33 1870  13.179  11.218  18.221
    8PS8B    C0 1871  12.438  13.413  15.850
    8PS8B    C1 1872  12.553  13.353  15.967
    8PS8B    C2 1873  12.614  13.189  15.988
    8PS8B    C3 1874  12.674  13.094  16.134
    8PS8B    B4 1875  12.777  13.120  16.224
    8PS8B    B5 1876  12.877  13.061  16.323
    8PS8B    B6 1877  12.906  12.934  16.337
    8PS8B    B7 1878  12.904  12.832  16.260
    8PS8B    B8 1879  12.945  12.806  16.140
    8PS8B    B9 1880  13.037  12.854  16.062
    8PS8B   B10 1881  13.135  12.925  16.079
    8PS8B   B11 1882  13.163  13.019  16.154
    8PS8B   B12 1883  13.161  13.038  16.281
    8PS8B   B13 1884  13.152  12.962  16.384
    8PS8B   B14 1885  13.097  12.847  16.408
    8PS8B   B15 1886  13.049  12.752  16.335
    8PS8B   B16 1887  13.195  12.955  16.164
    8PS8B   B17 1888  13.165  12.868  16.188
    8PS8B   B18 1889  13.218  12.915  16.246
    8PS8B   B19 1890  13.142  12.764  16.147
    8PS8B   B20 1891  13.199  12.696  16.053
    8PS8B   B21 1892  13.314  12.698  15.996
    8PS8B   B22 1893  13.357  12.715  15.876
    8PS8B   B23 1894  13.473  12.726  15.821
    8PS8B   B24 1895  13.297  12.905  16.321
    8PS8B   B25 1896  13.403  12.969  16.358
    8PS8B   B26 1897  13.463  13.076  16.321
    8PS8B   B27 1898  13.460  13.199  16.356
    8PS8B   B28 1899  13.549  13.286  16.390
    8PS8B   B29 1900  13.049  12.604  16.368
    8PS8B   C30 1901  13.009  12.505  16.459
    8PS8B   C31 1902  12.888  12.512  16.598
    8PS8B   C32 1903  12.898  12.476  16.769
    8PS8B   C33 1904  12.947  12.327  16.847
    9PS8B    C0 1905  12.863  14.271  16.829
    9PS8B    C1 1906  12.957  14.318  16.688
    9PS8B    C2 1907  12.923  14.288  16.519
    9PS8B    C3 1908  13.029  14.264  16.370
    9PS8B    B4 1909  13.127  14.347  16.314
    9PS8B    B5 1910  13.204  14.383  16.187
    9PS8B    B6 1911  13.175  14.345  16.066
    9PS8B    B7 1912  13.067  14.311  16.005
    9PS8B    B8 1913  12.948  14.359  15.996
    9PS8B    B9 1914  12.895  14.476  16.008
    9PS8B   B10 1915  12.939  14.590  16.011
    9PS8B   B11 1916  13.042  14.644  16.053
    9PS8B   B12 1917  13.167  14.625  16.034
    9PS8B   B13 1918  13.238  14.559  15.949
    9PS8B   B14 1919  13.219  14.454  15.877
    9PS8B   B15 1920  13.117  14.382  15.845
    9PS8B   B16 1921  13.031  14.639  15.981
    9PS8B   B17 1922  13.022  14.567  15.919
    9PS8B   B18 1923  13.095  14.622  15.914
    9PS8B   B19 1924  12.947  14.507  15.858
    9PS8B   B20 1925  12.838  14.542  15.799
    9PS8B   B21 1926  12.790  14.654  15.757
    9PS8B   B22 1927  12.685  14.724  15.782
    9PS8B   B23 1928  12.642  14.840  15.746
    9PS8B   B24 1929  13.165  14.670  15.845
    9PS8B   B25 1930  13.226  14.783  15.833
    9PS8B   B26 1931  13.229  14.893  15.899
    9PS8B   B27 1932  13.305  14.942  15.991
    9PS8B   B28 1933  13.369  15.052  16.007
    9PS8B   B29 1934  13.097  14.305  15.715
    9PS8B   C30 1935  13.148  14.205  15.630
    9PS8B   C31 1936  13.276  14.076  15.661
    9PS8B   C32 1937  13.424  14.033  15.579
    9PS8B   C33 1938  13.449  13.988  15.412
   10PS8B    C0 1939  13.738  12.031  17.437
   10PS8B    C1 1940  13.748  12.196  17.496
   10PS8B    C2 1941  13.620  12.299  17.555
   10PS8B    C3 1942  13.594  12.482  17.554
   10PS8B    B4 1943  13.671  12.585  17.607
   10PS8B    B5 1944  13.673  12.728  17.659
   10PS8B    B6 1945  13.569  12.801  17.689
   10PS8B    B7 1946  13.449  12.775  17.728
   10PS8B    B8 1947  13.396  12.700  17.817
   10PS8B    B9 1948  13.435  12.649  17.930
   10PS8B   B10 1949  13.528  12.670  18.006
   10PS8B   B11 1950  13.646  12.706  17.993
   10PS8B   B12 1951  13.705  12.805  17.935
   10PS8B   B13 1952  13.667  12.919  17.889
   10PS8B   B14 1953  13.557  12.964  17.839
   10PS8B   B15 1954  13.434  12.924  17.833
   10PS8B   B16 1955  13.598  12.752  18.022
   10PS8B   B17 1956  13.519  12.795  17.992
   10PS8B   B18 1957  13.594  12.845  18.011
   10PS8B   B19 1958  13.405  12.794  17.996
   10PS8B   B20 1959  13.325  12.762  18.092
   10PS8B   B21 1960  13.335  12.755  18.221
   10PS8B   B22 1961  13.322  12.663  18.309
   10PS8B   B23 1962  13.341  12.654  18.436
   10PS8B   B24 1963  13.628  12.941  18.052
   10PS8B   B25 1964  13.723  12.986  18.126
   10PS8B   B26 1965  13.822  12.933  18.188
   10PS8B   B27 1966  13.946  12.914  18.161
   10PS8B   B28 1967  14.058  12.940  18.220
   10PS8B   B29 1968  13.310  13.009  17.830
   10PS8B   C30 1969  13.240  13.111  17.763
   10PS8B   C31 1970  13.264  13.181  17.594
   10PS8B   C32 1971  13.290  13.344  17.534
   10PS8B   C33 1972  13.191  13.486  17.556
   11PS8B    C0 1973  13.551  13.521  15.806
   11PS8B    C1 1974  13.443  13.593  15.924
   11PS8B    C2 1975  13.352  13.742  15.912
   11PS8B    C3 1976  13.294  13.865  16.037
   11PS8B    B4 1977  13.213  13.849  16.150
   11PS8B    B5 1978  13.119  13.917  16.248
   11PS8B    B6 1979  13.065  14.035  16.234
   11PS8B    B7 1980  13.033  14.109  16.134
   11PS8B    B8 1981  12.971  14.091  16.023
   11PS8B    B9 1982  12.881  14.007  15.980
   11PS8B   B10 1983  12.805  13.929  16.034
   11PS8B   B11 1984  12.809  13.857  16.135
   11PS8B   B12 1985  12.833  13.877  16.259
   11PS8B   B13 1986  12.840  13.981  16.335
   11PS8B   B14 1987  12.871  14.105  16.317
   11PS8B   B15 1988  12.887  14.182  16.214
   11PS8B   B16 1989  12.765  13.915  16.135
   11PS8B   B17 1990  12.778  14.009  16.128
   11PS8B   B18 1991  12.746  13.974  16.206
   11PS8B   B19 1992  12.771  14.099  16.058
   11PS8B   B20 1993  12.689  14.125  15.962
   11PS8B   B21 1994  12.569  14.087  15.933
   11PS8B   B22 1995  12.515  14.027  15.833
   11PS8B   B23 1996  12.397  13.981  15.807
   11PS8B   B24 1997  12.678  13.991  16.290
   11PS8B   B25 1998  12.596  13.924  16.363
   11PS8B   B26 1999  12.557  13.803  16.368
   11PS8B   B27 2000  12.591  13.698  16.433
   11PS8B   B28 2001  12.530  13.611  16.506
   11PS8B   B29 2002  12.858  14.330  16.206
   11PS8B   C30 2003  12.888  14.458  16.258
   11PS8B   C31 2004  13.027  14.512  16.366
   11PS8B   C32 2005  13.034  14.595  16.520
   11PS8B   C33 2006  12.965  14.750  16.566
   12PS8B    C0 2007  13.774  13.854  19.892
   12PS8B    C1 2008  13.712  13.945  19.757
   12PS8B    C2 2009  13.609  14.087  19.758
   12PS8B    C3 2010  13.482  14.153  19.642
   12PS8B    B4 2011  13.491  14.188  19.507
   12PS8B    B5 2012  13.433  14.272  19.394
   12PS8B    B6 2013  13.347  14.369  19.406
   12PS8B    B7 2014  13.318  14.453  19.499
   12PS8B    B8 2015  13.385  14.530  19.577
   12PS8B    B9 2016  13.501  14.588  19.572
   12PS8B   B10 2017  13.582  14.610  19.483
   12PS8B   B11 2018  13.618  14.551  19.380
   12PS8B   B12 2019  13.557  14.504  19.277
   12PS8B   B13 2020  13.440  14.518  19.226
   12PS8B   B14 2021  13.323  14.545  19.273
   12PS8B   B15 2022  13.277  14.589  19.385
   12PS8B   B16 2023  13.579  14.612  19.374
   12PS8B   B17 2024  13.492  14.639  19.400
   12PS8B   B18 2025  13.513  14.633  19.311
   12PS8B   B19 2026  13.432  14.699  19.476
   12PS8B   B20 2027  13.461  14.808  19.539
   12PS8B   B21 2028  13.542  14.906  19.519
   12PS8B   B22 2029  13.641  14.958  19.583
   12PS8B   B23 2030  13.728  15.050  19.558
   12PS8B   B24 2031  13.496  14.677  19.212
   12PS8B   B25 2032  13.563  14.703  19.105
   12PS8B   B26 2033  13.685  14.689  19.069
   12PS8B   B27 2034  13.751  14.600  19.004
   12PS8B   B28 2035  13.829  14.600  18.902
   12PS8B   B29 2036  13.154  14.674  19.406
   12PS8B   C30 2037  13.014  14.684  19.388
   12PS8B   C31 2038  12.891  14.555  19.345
   12PS8B   C32 2039  12.771  14.540  19.218
   12PS8B   C33 2040  12.641  14.649  19.176
    1PS8B    C0 2041   6.494  19.413  15.688
    1PS8B    C1 2042   6.423  19.295  15.795
    1PS8B    C2 2043   6.281  19.194  15.770
    1PS8B    C3 2044   6.155  19.122  15.883
    1PS8B    B4 2045   6.169  19.036  15.992
    1PS8B    B5 2046   6.101  18.933  16.081
    1PS8B    B6 2047   5.988  18.872  16.057
    1PS8B    B7 2048   5.924  18.840  15.950
    1PS8B    B8 2049   5.954  18.785  15.838
    1PS8B    B9 2050   6.046  18.703  15.797
    1PS8B   B10 2051   6.126  18.630  15.854
    1PS8B   B11 2052   6.190  18.634  15.959
    1PS8B   B12 2053   6.160  18.650  16.083
    1PS8B   B13 2054   6.051  18.647  16.151
    1PS8B   B14 2055   5.927  18.670  16.125
    1PS8B   B15 2056   5.857  18.685  16.018
    1PS8B   B16 2057   6.136  18.586  15.953
    1PS8B   B17 2058   6.042  18.594  15.940
    1PS8B   B18 2059   6.074  18.560  16.019
    1PS8B   B19 2060   5.958  18.584  15.863
    1PS8B   B20 2061   5.944  18.504  15.763
    1PS8B   B21 2062   5.992  18.389  15.730
    1PS8B   B22 2063   6.062  18.344  15.632
    1PS8B   B23 2064   6.119  18.231  15.605
    1PS8B   B24 2065   6.056  18.487  16.098
    1PS8B   B25 2066   6.123  18.406  16.172
    1PS8B   B26 2067   6.247  18.374  16.183
    1PS8B   B27 2068   6.345  18.413  16.257
    1PS8B   B28 2069   6.431  18.354  16.333
    1PS8B   B29 2070   5.711  18.647  15.998
    1PS8B   C30 2071   5.579  18.666  16.043
    1PS8B   C31 2072   5.507  18.795  16.153
    1PS8B   C32 2073   5.414  18.788  16.301
    1PS8B   C33 2074   5.262  18.707  16.332
    2PS8B    C0 2075   5.834  17.325  13.955
    2PS8B    C1 2076   5.787  17.350  14.122
    2PS8B    C2 2077   5.879  17.322  14.268
    2PS8B    C3 2078   5.833  17.275  14.440
    2PS8B    B4 2079   5.749  17.338  14.532
    2PS8B    B5 2080   5.714  17.357  14.679
    2PS8B    B6 2081   5.786  17.321  14.781
    2PS8B    B7 2082   5.912  17.303  14.801
    2PS8B    B8 2083   6.019  17.370  14.775
    2PS8B    B9 2084   6.047  17.495  14.756
    2PS8B   B10 2085   5.989  17.601  14.778
    2PS8B   B11 2086   5.870  17.637  14.776
    2PS8B   B12 2087   5.762  17.596  14.832
    2PS8B   B13 2088   5.735  17.517  14.930
    2PS8B   B14 2089   5.792  17.414  14.982
    2PS8B   B15 2090   5.909  17.360  14.974
    2PS8B   B16 2091   5.905  17.632  14.840
    2PS8B   B17 2092   5.944  17.560  14.889
    2PS8B   B18 2093   5.870  17.602  14.922
    2PS8B   B19 2094   6.044  17.512  14.918
    2PS8B   B20 2095   6.160  17.563  14.941
    2PS8B   B21 2096   6.202  17.680  14.975
    2PS8B   B22 2097   6.281  17.768  14.923
    2PS8B   B23 2098   6.315  17.888  14.953
    2PS8B   B24 2099   5.821  17.636  15.014
    2PS8B   B25 2100   5.751  17.736  15.055
    2PS8B   B26 2101   5.710  17.845  15.003
    2PS8B   B27 2102   5.602  17.884  14.945
    2PS8B   B28 2103   5.519  17.981  14.960
    2PS8B   B29 2104   5.982  17.284  15.083
    2PS8B   C30 2105   5.978  17.174  15.171
    2PS8B   C31 2106   5.868  17.026  15.172
    2PS8B   C32 2107   5.764  16.955  15.293
    2PS8B   C33 2108   5.803  16.902  15.455
    3PS8B    C0 2109   9.294  18.496  18.715
    3PS8B    C1 2110   9.245  18.328  18.717
    3PS8B    C2 2111   9.200  18.226  18.582
    3PS8B    C3 2112   9.086  18.082  18.564
    3PS8B    B4 2113   9.083  17.959  18.630
    3PS8B    B5 2114   9.038  17.813  18.624
    3PS8B    B6 2115   8.996  17.750  18.518
    3PS8B    B7 2116   9.014  17.762  18.392
    3PS8B    B8 2117   9.117  17.777  18.315
    3PS8B    B9 2118   9.243  17.748  18.323
    3PS8B   B10 2119   9.309  17.675  18.395
    3PS8B   B11 2120   9.304  17.640  18.514
    3PS8B   B12 2121   9.214  17.587  18.588
    3PS8B   B13 2122   9.102  17.527  18.568
    3PS8B   B14 2123   9.012  17.532  18.476
    3PS8B   B15 2124   9.004  17.583  18.357
    3PS8B   B16 2125   9.289  17.591  18.462
    3PS8B   B17 2126   9.222  17.584  18.395
    3PS8B   B18 2127   9.224  17.524  18.464
    3PS8B   B19 2128   9.201  17.596  18.283
    3PS8B   B20 2129   9.277  17.575  18.181
    3PS8B   B21 2130   9.382  17.504  18.158
    3PS8B   B22 2131   9.502  17.529  18.120
    3PS8B   B23 2132   9.610  17.460  18.106
    3PS8B   B24 2133   9.207  17.419  18.490
    3PS8B   B25 2134   9.259  17.329  18.566
    3PS8B   B26 2135   9.360  17.323  18.645
    3PS8B   B27 2136   9.378  17.340  18.771
    3PS8B   B28 2137   9.433  17.271  18.865
    3PS8B   B29 2138   8.924  17.530  18.240
    3PS8B   C30 2139   8.796  17.496  18.193
    3PS8B   C31 2140   8.629  17.535  18.261
    3PS8B   C32 2141   8.492  17.436  18.307
    3PS8B   C33 2142   8.403  17.320  18.212
    4PS8B    C0 2143   7.732  18.366  15.376
    4PS8B    C1 2144   7.897  18.359  15.316
    4PS8B    C2 2145   8.016  18.488  15.308
    4PS8B    C3 2146   8.157  18.523  15.194
    4PS8B    B4 2147   8.269  18.447  15.162
    4PS8B    B5 2148   8.413  18.448  15.111
    4PS8B    B6 2149   8.489  18.553  15.099
    4PS8B    B7 2150   8.496  18.668  15.156
    4PS8B    B8 2151   8.495  18.709  15.278
    4PS8B    B9 2152   8.526  18.658  15.393
    4PS8B   B10 2153   8.590  18.560  15.429
    4PS8B   B11 2154   8.608  18.446  15.384
    4PS8B   B12 2155   8.647  18.398  15.272
    4PS8B   B13 2156   8.706  18.445  15.168
    4PS8B   B14 2157   8.711  18.561  15.111
    4PS8B   B15 2158   8.677  18.681  15.145
    4PS8B   B16 2159   8.663  18.494  15.383
    4PS8B   B17 2160   8.678  18.577  15.339
    4PS8B   B18 2161   8.728  18.504  15.315
    4PS8B   B19 2162   8.681  18.690  15.355
    4PS8B   B20 2163   8.718  18.760  15.457
    4PS8B   B21 2164   8.795  18.739  15.559
    4PS8B   B22 2165   8.779  18.740  15.686
    4PS8B   B23 2166   8.853  18.710  15.788
    4PS8B   B24 2167   8.827  18.472  15.283
    4PS8B   B25 2168   8.907  18.373  15.302
    4PS8B   B26 2169   8.905  18.266  15.373
    4PS8B   B27 2170   8.871  18.144  15.353
    4PS8B   B28 2171   8.927  18.029  15.371
    4PS8B   B29 2172   8.743  18.810  15.101
    4PS8B   C30 2173   8.780  18.891  14.991
    4PS8B   C31 2174   8.727  18.884  14.815
    4PS8B   C32 2175   8.814  18.872  14.664
    4PS8B   C33 2176   8.939  18.976  14.600
    5PS8B    C0 2177   7.183  14.279  15.477
    5PS8B    C1 2178   7.069  14.300  15.608
    5PS8B    C2 2179   7.015  14.182  15.727
    5PS8B    C3 2180   6.858  14.159  15.821
    5PS8B    B4 2181   6.790  14.245  15.907
    5PS8B    B5 2182   6.690  14.256  16.022
    5PS8B    B6 2183   6.649  14.158  16.098
    5PS8B    B7 2184   6.698  14.045  16.135
    5PS8B    B8 2185   6.811  14.005  16.181
    5PS8B    B9 2186   6.908  14.060  16.247
    5PS8B   B10 2187   6.920  14.164  16.311
    5PS8B   B11 2188   6.875  14.279  16.301
    5PS8B   B12 2189   6.757  14.329  16.293
    5PS8B   B13 2190   6.638  14.286  16.315
    5PS8B   B14 2191   6.581  14.171  16.309
    5PS8B   B15 2192   6.621  14.048  16.300
    5PS8B   B16 2193   6.853  14.236  16.356
    5PS8B   B17 2194   6.805  14.154  16.361
    5PS8B   B18 2195   6.766  14.231  16.393
    5PS8B   B19 2196   6.816  14.042  16.380
    5PS8B   B20 2197   6.896  13.977  16.458
    5PS8B   B21 2198   6.964  14.006  16.563
    5PS8B   B22 2199   7.089  14.005  16.595
    5PS8B   B23 2200   7.157  14.043  16.697
    5PS8B   B24 2201   6.701  14.272  16.470
    5PS8B   B25 2202   6.693  14.378  16.543
    5PS8B   B26 2203   6.762  14.485  16.557
    5PS8B   B27 2204   6.758  14.603  16.508
    5PS8B   B28 2205   6.757  14.722  16.556
    5PS8B   B29 2206   6.554  13.925  16.358
    5PS8B   C30 2207   6.437  13.847  16.359
    5PS8B   C31 2208   6.292  13.847  16.246
    5PS8B   C32 2209   6.119  13.865  16.271
    5PS8B   C33 2210   6.012  13.772  16.374
    6PS8B    C0 2211   5.716  17.376  15.748
    6PS8B    C1 2212   5.875  17.349  15.679
    6PS8B    C2 2213   6.011  17.458  15.670
    6PS8B    C3 2214   6.150  17.478  15.550
    6PS8B    B4 2215   6.248  17.388  15.509
    6PS8B    B5 2216   6.387  17.371  15.450
    6PS8B    B6 2217   6.478  17.464  15.438
    6PS8B    B7 2218   6.504  17.573  15.500
    6PS8B    B8 2219   6.516  17.608  15.623
    6PS8B    B9 2220   6.544  17.547  15.734
    6PS8B   B10 2221   6.595  17.439  15.762
    6PS8B   B11 2222   6.593  17.326  15.711
    6PS8B   B12 2223   6.619  17.278  15.595
    6PS8B   B13 2224   6.679  17.322  15.490
    6PS8B   B14 2225   6.699  17.438  15.438
    6PS8B   B15 2226   6.685  17.560  15.479
    6PS8B   B16 2227   6.654  17.365  15.709
    6PS8B   B17 2228   6.679  17.448  15.668
    6PS8B   B18 2229   6.717  17.369  15.639
    6PS8B   B19 2230   6.700  17.558  15.689
    6PS8B   B20 2231   6.752  17.617  15.791
    6PS8B   B21 2232   6.830  17.580  15.888
    6PS8B   B22 2233   6.821  17.577  16.016
    6PS8B   B23 2234   6.894  17.531  16.111
    6PS8B   B24 2235   6.808  17.324  15.599
    6PS8B   B25 2236   6.874  17.214  15.610
    6PS8B   B26 2237   6.859  17.105  15.677
    6PS8B   B27 2238   6.806  16.991  15.653
    6PS8B   B28 2239   6.845  16.868  15.663
    6PS8B   B29 2240   6.768  17.680  15.436
    6PS8B   C30 2241   6.811  17.760  15.329
    6PS8B   C31 2242   6.748  17.770  15.156
    6PS8B   C32 2243   6.825  17.753  14.999
    6PS8B   C33 2244   6.962  17.840  14.933
    7PS8B    C0 2245   6.869  16.575  18.949
    7PS8B    C1 2246   6.746  16.600  18.827
    7PS8B    C2 2247   6.711  16.503  18.685
    7PS8B    C3 2248   6.642  16.542  18.518
    7PS8B    B4 2249   6.522  16.601  18.481
    7PS8B    B5 2250   6.418  16.618  18.371
    7PS8B    B6 2251   6.408  16.546  18.263
    7PS8B    B7 2252   6.440  16.426  18.231
    7PS8B    B8 2253   6.426  16.309  18.284
    7PS8B    B9 2254   6.343  16.256  18.368
    7PS8B   B10 2255   6.233  16.288  18.411
    7PS8B   B11 2256   6.176  16.395  18.438
    7PS8B   B12 2257   6.153  16.503  18.374
    7PS8B   B13 2258   6.156  16.538  18.251
    7PS8B   B14 2259   6.223  16.501  18.147
    7PS8B   B15 2260   6.299  16.400  18.118
    7PS8B   B16 2261   6.154  16.356  18.381
    7PS8B   B17 2262   6.194  16.329  18.299
    7PS8B   B18 2263   6.124  16.389  18.298
    7PS8B   B19 2264   6.240  16.241  18.243
    7PS8B   B20 2265   6.213  16.115  18.247
    7PS8B   B21 2266   6.111  16.044  18.282
    7PS8B   B22 2267   6.088  15.953  18.370
    7PS8B   B23 2268   5.983  15.890  18.410
    7PS8B   B24 2269   6.035  16.420  18.243
    7PS8B   B25 2270   5.916  16.462  18.267
    7PS8B   B26 2271   5.847  16.483  18.373
    7PS8B   B27 2272   5.823  16.584  18.448
    7PS8B   B28 2273   5.716  16.641  18.493
    7PS8B   B29 2274   6.318  16.336  17.982
    7PS8B   C30 2275   6.357  16.356  17.848
    7PS8B   C31 2276   6.448  16.495  17.770
    7PS8B   C32 2277   6.414  16.601  17.636
    7PS8B   C33 2278   6.377  16.560  17.469
    8PS8B    C0 2279   6.474  15.256  14.833
    8PS8B    C1 2280   6.306  15.303  14.852
    8PS8B    C2 2281   6.203  15.286  14.993
    8PS8B    C3 2282   6.021  15.262  15.014
    8PS8B    B4 2283   5.913  15.340  14.971
    8PS8B    B5 2284   5.767  15.377  14.994
    8PS8B    B6 2285   5.696  15.349  15.099
    8PS8B    B7 2286   5.723  15.328  15.224
    8PS8B    B8 2287   5.795  15.386  15.313
    8PS8B    B9 2288   5.838  15.506  15.332
    8PS8B   B10 2289   5.810  15.616  15.286
    8PS8B   B11 2290   5.771  15.658  15.177
    8PS8B   B12 2291   5.675  15.630  15.098
    8PS8B   B13 2292   5.564  15.564  15.108
    8PS8B   B14 2293   5.525  15.465  15.181
    8PS8B   B15 2294   5.569  15.404  15.286
    8PS8B   B16 2295   5.725  15.658  15.233
    8PS8B   B17 2296   5.686  15.591  15.287
    8PS8B   B18 2297   5.633  15.641  15.231
    8PS8B   B19 2298   5.690  15.541  15.390
    8PS8B   B20 2299   5.719  15.590  15.506
    8PS8B   B21 2300   5.718  15.707  15.559
    8PS8B   B22 2301   5.806  15.784  15.613
    8PS8B   B23 2302   5.807  15.905  15.656
    8PS8B   B24 2303   5.535  15.687  15.220
    8PS8B   B25 2304   5.483  15.794  15.172
    8PS8B   B26 2305   5.529  15.899  15.114
    8PS8B   B27 2306   5.547  15.936  14.992
    8PS8B   B28 2307   5.515  16.039  14.922
    8PS8B   B29 2308   5.487  15.337  15.394
    8PS8B   C30 2309   5.391  15.238  15.423
    8PS8B   C31 2310   5.330  15.097  15.322
    8PS8B   C32 2311   5.171  15.046  15.270
    8PS8B   C33 2312   5.030  15.010  15.367
    9PS8B    C0 2313   6.235  16.240  15.532
    9PS8B    C1 2314   6.341  16.269  15.668
    9PS8B    C2 2315   6.516  16.261  15.674
    9PS8B    C3 2316   6.637  16.220  15.807
    9PS8B    B4 2317   6.657  16.278  15.933
    9PS8B    B5 2318   6.755  16.302  16.047
    9PS8B    B6 2319   6.884  16.281  16.044
    9PS8B    B7 2320   6.973  16.280  15.951
    9PS8B    B8 2321   7.004  16.358  15.853
    9PS8B    B9 2322   6.989  16.484  15.827
    9PS8B   B10 2323   6.961  16.582  15.894
    9PS8B   B11 2324   6.889  16.604  15.992
    9PS8B   B12 2325   6.879  16.554  16.110
    9PS8B   B13 2326   6.953  16.479  16.184
    9PS8B   B14 2327   7.040  16.387  16.160
    9PS8B   B15 2328   7.106  16.346  16.056
    9PS8B   B16 2329   6.962  16.607  16.000
    9PS8B   B17 2330   7.032  16.544  15.991
    9PS8B   B18 2331   7.012  16.579  16.074
    9PS8B   B19 2332   7.118  16.510  15.924
    9PS8B   B20 2333   7.195  16.576  15.845
    9PS8B   B21 2334   7.233  16.699  15.837
    9PS8B   B22 2335   7.225  16.792  15.749
    9PS8B   B23 2336   7.254  16.918  15.745
    9PS8B   B24 2337   7.056  16.612  16.168
    9PS8B   B25 2338   7.038  16.705  16.255
    9PS8B   B26 2339   6.959  16.806  16.266
    9PS8B   B27 2340   6.847  16.827  16.324
    9PS8B   B28 2341   6.801  16.915  16.406
    9PS8B   B29 2342   7.245  16.287  16.054
    9PS8B   C30 2343   7.328  16.183  16.100
    9PS8B   C31 2344   7.285  16.023  16.182
    9PS8B   C32 2345   7.334  15.948  16.332
    9PS8B   C33 2346   7.495  15.910  16.390
   10PS8B    C0 2347   6.810  19.073  17.933
   10PS8B    C1 2348   6.665  18.974  17.940
   10PS8B    C2 2349   6.644  18.815  18.009
   10PS8B    C3 2350   6.533  18.673  17.969
   10PS8B    B4 2351   6.393  18.665  17.964
   10PS8B    B5 2352   6.272  18.574  17.973
   10PS8B    B6 2353   6.270  18.451  18.016
   10PS8B    B7 2354   6.342  18.383  18.098
   10PS8B    B8 2355   6.388  18.402  18.217
   10PS8B    B9 2356   6.353  18.474  18.319
   10PS8B   B10 2357   6.252  18.534  18.351
   10PS8B   B11 2358   6.163  18.596  18.290
   10PS8B   B12 2359   6.084  18.568  18.193
   10PS8B   B13 2360   6.047  18.460  18.133
   10PS8B   B14 2361   6.101  18.345  18.113
   10PS8B   B15 2362   6.204  18.281  18.159
   10PS8B   B16 2363   6.147  18.532  18.321
   10PS8B   B17 2364   6.176  18.442  18.308
   10PS8B   B18 2365   6.090  18.465  18.288
   10PS8B   B19 2366   6.242  18.360  18.351
   10PS8B   B20 2367   6.271  18.330  18.473
   10PS8B   B21 2368   6.216  18.352  18.588
   10PS8B   B22 2369   6.252  18.411  18.696
   10PS8B   B23 2370   6.193  18.441  18.807
   10PS8B   B24 2371   5.987  18.430  18.288
   10PS8B   B25 2372   5.869  18.476  18.312
   10PS8B   B26 2373   5.821  18.589  18.348
   10PS8B   B27 2374   5.773  18.691  18.287
   10PS8B   B28 2375   5.665  18.761  18.296
   10PS8B   B29 2376   6.218  18.132  18.177
   10PS8B   C30 2377   6.217  18.006  18.112
   10PS8B   C31 2378   6.224  17.964  17.934
   10PS8B   C32 2379   6.122  17.869  17.828
   10PS8B   C33 2380   6.072  17.702  17.844
   11PS8B    C0 2381   6.910  15.588  16.368
   11PS8B    C1 2382   6.972  15.623  16.208
   11PS8B    C2 2383   7.109  15.724  16.163
   11PS8B    C3 2384   7.147  15.826  16.014
   11PS8B    B4 2385   7.156  15.790  15.880
   11PS8B    B5 2386   7.215  15.825  15.743
   11PS8B    B6 2387   7.310  15.912  15.720
   11PS8B    B7 2388   7.409  15.958  15.788
   11PS8B    B8 2389   7.502  15.907  15.861
   11PS8B    B9 2390   7.561  15.792  15.868
   11PS8B   B10 2391   7.569  15.696  15.793
   11PS8B   B11 2392   7.493  15.641  15.712
   11PS8B   B12 2393   7.426  15.680  15.611
   11PS8B   B13 2394   7.426  15.785  15.536
   11PS8B   B14 2395   7.457  15.909  15.554
   11PS8B   B15 2396   7.520  15.976  15.645
   11PS8B   B16 2397   7.551  15.677  15.688
   11PS8B   B17 2398   7.579  15.768  15.691
   11PS8B   B18 2399   7.557  15.730  15.610
   11PS8B   B19 2400   7.651  15.842  15.741
   11PS8B   B20 2401   7.770  15.825  15.787
   11PS8B   B21 2402   7.866  15.741  15.764
   11PS8B   B22 2403   7.931  15.657  15.835
   11PS8B   B23 2404   8.020  15.567  15.810
   11PS8B   B24 2405   7.582  15.727  15.504
   11PS8B   B25 2406   7.590  15.641  15.409
   11PS8B   B26 2407   7.574  15.514  15.399
   11PS8B   B27 2408   7.476  15.437  15.367
   11PS8B   B28 2409   7.460  15.340  15.284
   11PS8B   B29 2410   7.603  16.101  15.625
   11PS8B   C30 2411   7.604  16.234  15.579
   11PS8B   C31 2412   7.465  16.347  15.538
   11PS8B   C32 2413   7.422  16.440  15.396
   11PS8B   C33 2414   7.517  16.559  15.310
   12PS8B    C0 2415   5.133  17.102  16.503
   12PS8B    C1 2416   5.178  17.069  16.337
   12PS8B    C2 2417   5.333  17.088  16.259
   12PS8B    C3 2418   5.384  17.126  16.086
   12PS8B    B4 2419   5.357  17.059  15.966
   12PS8B    B5 2420   5.403  17.033  15.823
   12PS8B    B6 2421   5.518  17.062  15.772
   12PS8B    B7 2422   5.637  17.078  15.819
   12PS8B    B8 2423   5.713  17.011  15.900
   12PS8B    B9 2424   5.723  16.887  15.936
   12PS8B   B10 2425   5.680  16.782  15.891
   12PS8B   B11 2426   5.577  16.746  15.833
   12PS8B   B12 2427   5.515  16.785  15.727
   12PS8B   B13 2428   5.544  16.858  15.626
   12PS8B   B14 2429   5.624  16.958  15.607
   12PS8B   B15 2430   5.722  17.012  15.672
   12PS8B   B16 2431   5.640  16.748  15.796
   12PS8B   B17 2432   5.701  16.816  15.772
   12PS8B   B18 2433   5.653  16.773  15.707
   12PS8B   B19 2434   5.803  16.862  15.796
   12PS8B   B20 2435   5.912  16.808  15.839
   12PS8B   B21 2436   5.962  16.690  15.836
   12PS8B   B22 2437   5.999  16.604  15.925
   12PS8B   B23 2438   6.040  16.482  15.923
   12PS8B   B24 2439   5.657  16.735  15.604
   12PS8B   B25 2440   5.615  16.633  15.537
   12PS8B   B26 2441   5.549  16.527  15.565
   12PS8B   B27 2442   5.426  16.493  15.560
   12PS8B   B28 2443   5.360  16.395  15.508
   12PS8B   B29 2444   5.843  17.082  15.614
   12PS8B   C30 2445   5.889  17.187  15.532
   12PS8B   C31 2446   5.801  17.335  15.467
   12PS8B   C32 2447   5.776  17.400  15.307
   12PS8B   C33 2448   5.895  17.444  15.186
    1PS8B    C0 2449  15.186  19.332   6.365
    1PS8B    C1 2450  15.066  19.455   6.397
    1PS8B    C2 2451  15.068  19.582   6.518
    1PS8B    C3 2452  14.935  19.670   6.611
    1PS8B    B4 2453  14.827  19.746   6.566
    1PS8B    B5 2454  14.727  19.855   6.599
    1PS8B    B6 2455  14.732  19.937   6.700
    1PS8B    B7 2456  14.827  19.986   6.772
    1PS8B    B8 2457  14.942  20.041   6.748
    1PS8B    B9 2458  14.993  20.105   6.648
    1PS8B   B10 2459  14.948  20.160   6.549
    1PS8B   B11 2460  14.853  20.139   6.472
    1PS8B   B12 2461  14.727  20.121   6.487
    1PS8B   B13 2462  14.643  20.142   6.582
    1PS8B   B14 2463  14.651  20.143   6.711
    1PS8B   B15 2464  14.747  20.147   6.798
    1PS8B   B16 2465  14.851  20.196   6.517
    1PS8B   B17 2466  14.849  20.207   6.611
    1PS8B   B18 2467  14.775  20.229   6.562
    1PS8B   B19 2468  14.912  20.236   6.702
    1PS8B   B20 2469  15.007  20.322   6.715
    1PS8B   B21 2470  15.044  20.427   6.650
    1PS8B   B22 2471  15.150  20.464   6.587
    1PS8B   B23 2472  15.183  20.565   6.515
    1PS8B   B24 2473  14.693  20.301   6.555
    1PS8B   B25 2474  14.627  20.363   6.463
    1PS8B   B26 2475  14.634  20.371   6.335
    1PS8B   B27 2476  14.576  20.311   6.238
    1PS8B   B28 2477  14.513  20.348   6.132
    1PS8B   B29 2478  14.743  20.212   6.935
    1PS8B   C30 2479  14.680  20.216   7.060
    1PS8B   C31 2480  14.564  20.097   7.139
    1PS8B   C32 2481  14.403  20.114   7.207
    1PS8B   C33 2482  14.348  20.220   7.335
    2PS8B    C0 2483  16.384  19.448   4.370
    2PS8B    C1 2484  16.471  19.325   4.281
    2PS8B    C2 2485  16.410  19.209   4.165
    2PS8B    C3 2486  16.461  19.039   4.116
    2PS8B    B4 2487  16.583  18.991   4.067
    2PS8B    B5 2488  16.652  18.882   3.987
    2PS8B    B6 2489  16.594  18.792   3.911
    2PS8B    B7 2490  16.484  18.787   3.846
    2PS8B    B8 2491  16.422  18.865   3.764
    2PS8B    B9 2492  16.457  18.960   3.683
    2PS8B   B10 2493  16.564  18.997   3.635
    2PS8B   B11 2494  16.681  19.000   3.674
    2PS8B   B12 2495  16.763  18.914   3.722
    2PS8B   B13 2496  16.767  18.786   3.728
    2PS8B   B14 2497  16.678  18.692   3.732
    2PS8B   B15 2498  16.551  18.685   3.710
    2PS8B   B16 2499  16.663  18.953   3.622
    2PS8B   B17 2500  16.604  18.878   3.617
    2PS8B   B18 2501  16.694  18.865   3.610
    2PS8B   B19 2502  16.502  18.843   3.579
    2PS8B   B20 2503  16.435  18.875   3.474
    2PS8B   B21 2504  16.465  18.926   3.359
    2PS8B   B22 2505  16.432  19.032   3.295
    2PS8B   B23 2506  16.469  19.087   3.184
    2PS8B   B24 2507  16.771  18.806   3.561
    2PS8B   B25 2508  16.889  18.822   3.510
    2PS8B   B26 2509  16.968  18.922   3.494
    2PS8B   B27 2510  17.066  18.972   3.560
    2PS8B   B28 2511  17.187  19.006   3.533
    2PS8B   B29 2512  16.474  18.567   3.656
    2PS8B   C30 2513  16.441  18.431   3.675
    2PS8B   C31 2514  16.460  18.323   3.822
    2PS8B   C32 2515  16.537  18.168   3.849
    2PS8B   C33 2516  16.512  18.016   3.767
    3PS8B    C0 2517  16.333  18.355   5.835
    3PS8B    C1 2518  16.314  18.240   5.704
    3PS8B    C2 2519  16.428  18.197   5.577
    3PS8B    C3 2520  16.408  18.140   5.403
    3PS8B    B4 2521  16.343  18.029   5.351
    3PS8B    B5 2522  16.332  17.931   5.234
    3PS8B    B6 2523  16.419  17.916   5.139
    3PS8B    B7 2524  16.546  17.935   5.127
    3PS8B    B8 2525  16.650  17.905   5.198
    3PS8B    B9 2526  16.679  17.813   5.284
    3PS8B   B10 2527  16.628  17.706   5.316
    3PS8B   B11 2528  16.512  17.662   5.323
    3PS8B   B12 2529  16.414  17.654   5.242
    3PS8B   B13 2530  16.399  17.666   5.115
    3PS8B   B14 2531  16.461  17.731   5.022
    3PS8B   B15 2532  16.573  17.795   5.013
    3PS8B   B16 2533  16.557  17.637   5.271
    3PS8B   B17 2534  16.601  17.676   5.197
    3PS8B   B18 2535  16.535  17.614   5.183
    3PS8B   B19 2536  16.702  17.713   5.158
    3PS8B   B20 2537  16.822  17.671   5.181
    3PS8B   B21 2538  16.874  17.560   5.220
    3PS8B   B22 2539  16.946  17.523   5.320
    3PS8B   B23 2540  16.989  17.410   5.364
    3PS8B   B24 2541  16.503  17.532   5.119
    3PS8B   B25 2542  16.444  17.418   5.130
    3PS8B   B26 2543  16.399  17.348   5.228
    3PS8B   B27 2544  16.284  17.334   5.284
    3PS8B   B28 2545  16.209  17.234   5.315
    3PS8B   B29 2546  16.660  17.810   4.890
    3PS8B   C30 2547  16.667  17.856   4.757
    3PS8B   C31 2548  16.553  17.966   4.663
    3PS8B   C32 2549  16.467  17.949   4.511
    3PS8B   C33 2550  16.530  17.913   4.352
    4PS8B    C0 2551  15.967  16.487   4.693
    4PS8B    C1 2552  16.139  16.523   4.682
    4PS8B    C2 2553  16.274  16.412   4.691
    4PS8B    C3 2554  16.448  16.430   4.750
    4PS8B    B4 2555  16.550  16.517   4.710
    4PS8B    B5 2556  16.700  16.541   4.702
    4PS8B    B6 2557  16.794  16.452   4.722
    4PS8B    B7 2558  16.801  16.325   4.711
    4PS8B    B8 2559  16.768  16.238   4.621
    4PS8B    B9 2560  16.752  16.241   4.493
    4PS8B   B10 2561  16.783  16.319   4.404
    4PS8B   B11 2562  16.793  16.442   4.395
    4PS8B   B12 2563  16.858  16.532   4.460
    4PS8B   B13 2564  16.954  16.532   4.545
    4PS8B   B14 2565  16.997  16.449   4.634
    4PS8B   B15 2566  16.976  16.323   4.660
    4PS8B   B16 2567  16.853  16.401   4.394
    4PS8B   B17 2568  16.896  16.342   4.455
    4PS8B   B18 2569  16.937  16.421   4.431
    4PS8B   B19 2570  16.914  16.232   4.481
    4PS8B   B20 2571  16.928  16.129   4.404
    4PS8B   B21 2572  16.963  16.111   4.281
    4PS8B   B22 2573  16.907  16.059   4.178
    4PS8B   B23 2574  16.938  16.049   4.053
    4PS8B   B24 2575  17.034  16.467   4.412
    4PS8B   B25 2576  17.086  16.553   4.331
    4PS8B   B26 2577  17.042  16.622   4.232
    4PS8B   B27 2578  16.996  16.742   4.219
    4PS8B   B28 2579  17.022  16.842   4.142
    4PS8B   B29 2580  17.075  16.225   4.719
    4PS8B   C30 2581  17.158  16.196   4.829
    4PS8B   C31 2582  17.164  16.269   4.997
    4PS8B   C32 2583  17.291  16.343   5.092
    4PS8B   C33 2584  17.447  16.278   5.138
    5PS8B    C0 2585  16.917  17.506   6.129
    5PS8B    C1 2586  17.070  17.478   6.210
    5PS8B    C2 2587  17.212  17.580   6.214
    5PS8B    C3 2588  17.393  17.546   6.229
    5PS8B    B4 2589  17.465  17.479   6.328
    5PS8B    B5 2590  17.601  17.461   6.395
    5PS8B    B6 2591  17.705  17.538   6.382
    5PS8B    B7 2592  17.722  17.663   6.354
    5PS8B    B8 2593  17.670  17.774   6.395
    5PS8B    B9 2594  17.611  17.813   6.503
    5PS8B   B10 2595  17.602  17.770   6.617
    5PS8B   B11 2596  17.596  17.657   6.667
    5PS8B   B12 2597  17.668  17.551   6.661
    5PS8B   B13 2598  17.787  17.524   6.620
    5PS8B   B14 2599  17.866  17.574   6.530
    5PS8B   B15 2600  17.868  17.683   6.460
    5PS8B   B16 2601  17.656  17.697   6.677
    5PS8B   B17 2602  17.723  17.732   6.619
    5PS8B   B18 2603  17.745  17.667   6.679
    5PS8B   B19 2604  17.760  17.828   6.568
    5PS8B   B20 2605  17.759  17.950   6.607
    5PS8B   B21 2606  17.752  18.009   6.722
    5PS8B   B22 2607  17.671  18.092   6.778
    5PS8B   B23 2608  17.660  18.143   6.896
    5PS8B   B24 2609  17.825  17.631   6.745
    5PS8B   B25 2610  17.836  17.578   6.861
    5PS8B   B26 2611  17.755  17.544   6.955
    5PS8B   B27 2612  17.694  17.436   6.988
    5PS8B   B28 2613  17.683  17.367   7.096
    5PS8B   B29 2614  17.991  17.757   6.411
    5PS8B   C30 2615  18.109  17.749   6.335
    5PS8B   C31 2616  18.163  17.623   6.212
    5PS8B   C32 2617  18.306  17.523   6.196
    5PS8B   C33 2618  18.474  17.572   6.190
    6PS8B    C0 2619  16.803  17.618   8.739
    6PS8B    C1 2620  16.818  17.500   8.612
    6PS8B    C2 2621  16.957  17.401   8.569
    6PS8B    C3 2622  17.017  17.329   8.410
    6PS8B    B4 2623  16.956  17.242   8.321
    6PS8B    B5 2624  16.976  17.138   8.211
    6PS8B    B6 2625  17.088  17.079   8.180
    6PS8B    B7 2626  17.196  17.050   8.245
    6PS8B    B8 2627  17.223  16.996   8.358
    6PS8B    B9 2628  17.162  16.914   8.438
    6PS8B   B10 2629  17.067  16.838   8.427
    6PS8B   B11 2630  16.960  16.840   8.363
    6PS8B   B12 2631  16.929  16.855   8.240
    6PS8B   B13 2632  16.993  16.851   8.128
    6PS8B   B14 2633  17.114  16.877   8.093
    6PS8B   B15 2634  17.227  16.895   8.155
    6PS8B   B16 2635  17.013  16.793   8.344
    6PS8B   B17 2636  17.102  16.802   8.311
    6PS8B   B18 2637  17.037  16.766   8.257
    6PS8B   B19 2638  17.212  16.795   8.339
    6PS8B   B20 2639  17.273  16.717   8.422
    6PS8B   B21 2640  17.248  16.602   8.475
    6PS8B   B22 2641  17.233  16.557   8.594
    6PS8B   B23 2642  17.198  16.444   8.646
    6PS8B   B24 2643  17.017  16.692   8.179
    6PS8B   B25 2644  16.925  16.609   8.146
    6PS8B   B26 2645  16.811  16.576   8.194
    6PS8B   B27 2646  16.689  16.611   8.174
    6PS8B   B28 2647  16.579  16.550   8.148
    6PS8B   B29 2648  17.365  16.860   8.104
    6PS8B   C30 2649  17.461  16.880   8.002
    6PS8B   C31 2650  17.469  17.008   7.871
    6PS8B   C32 2651  17.483  17.000   7.696
    6PS8B   C33 2652  17.604  16.921   7.598
    7PS8B    C0 2653  17.632  18.430   8.751
    7PS8B    C1 2654  17.571  18.416   8.588
    7PS8B    C2 2655  17.612  18.298   8.465
    7PS8B    C3 2656  17.616  18.304   8.280
    7PS8B    B4 2657  17.516  18.333   8.188
    7PS8B    B5 2658  17.467  18.315   8.044
    7PS8B    B6 2659  17.514  18.231   7.957
    7PS8B    B7 2660  17.574  18.117   7.963
    7PS8B    B8 2661  17.554  18.007   8.027
    7PS8B    B9 2662  17.451  17.948   8.079
    7PS8B   B10 2663  17.330  17.962   8.068
    7PS8B   B11 2664  17.253  18.057   8.050
    7PS8B   B12 2665  17.245  18.151   7.963
    7PS8B   B13 2666  17.295  18.172   7.847
    7PS8B   B14 2667  17.404  18.138   7.788
    7PS8B   B15 2668  17.499  18.052   7.811
    7PS8B   B16 2669  17.263  18.009   7.997
    7PS8B   B17 2670  17.337  17.981   7.944
    7PS8B   B18 2671  17.267  18.025   7.905
    7PS8B   B19 2672  17.414  17.899   7.929
    7PS8B   B20 2673  17.406  17.771   7.945
    7PS8B   B21 2674  17.309  17.686   7.949
    7PS8B   B22 2675  17.264  17.602   8.035
    7PS8B   B23 2676  17.162  17.524   8.042
    7PS8B   B24 2677  17.207  18.032   7.814
    7PS8B   B25 2678  17.084  18.051   7.781
    7PS8B   B26 2679  16.974  18.069   7.845
    7PS8B   B27 2680  16.907  18.172   7.883
    7PS8B   B28 2681  16.785  18.211   7.871
    7PS8B   B29 2682  17.581  17.978   7.708
    7PS8B   C30 2683  17.670  17.990   7.599
    7PS8B   C31 2684  17.766  18.135   7.540
    7PS8B   C32 2685  17.778  18.216   7.385
    7PS8B   C33 2686  17.821  18.150   7.229
    8PS8B    C0 2687  15.317  17.982   6.812
    8PS8B    C1 2688  15.276  18.149   6.843
    8PS8B    C2 2689  15.118  18.223   6.857
    8PS8B    C3 2690  15.053  18.392   6.819
    8PS8B    B4 2691  15.091  18.517   6.867
    8PS8B    B5 2692  15.049  18.661   6.892
    8PS8B    B6 2693  14.927  18.708   6.889
    8PS8B    B7 2694  14.811  18.657   6.908
    8PS8B    B8 2695  14.757  18.582   6.998
    8PS8B    B9 2696  14.780  18.557   7.123
    8PS8B   B10 2697  14.847  18.611   7.210
    8PS8B   B11 2698  14.953  18.674   7.213
    8PS8B   B12 2699  14.999  18.777   7.152
    8PS8B   B13 2700  14.948  18.871   7.080
    8PS8B   B14 2701  14.846  18.880   7.002
    8PS8B   B15 2702  14.740  18.808   6.980
    8PS8B   B16 2703  14.891  18.710   7.225
    8PS8B   B17 2704  14.813  18.727   7.172
    8PS8B   B18 2705  14.868  18.796   7.196
    8PS8B   B19 2706  14.704  18.697   7.156
    8PS8B   B20 2707  14.614  18.658   7.239
    8PS8B   B21 2708  14.595  18.670   7.366
    8PS8B   B22 2709  14.584  18.588   7.465
    8PS8B   B23 2710  14.575  18.601   7.593
    8PS8B   B24 2711  14.870  18.902   7.226
    8PS8B   B25 2712  14.933  18.978   7.307
    8PS8B   B26 2713  15.025  18.961   7.395
    8PS8B   B27 2714  15.153  18.971   7.396
    8PS8B   B28 2715  15.239  19.032   7.469
    8PS8B   B29 2716  14.603  18.859   6.940
    8PS8B   C30 2717  14.529  18.930   6.843
    8PS8B   C31 2718  14.574  18.982   6.673
    8PS8B   C32 2719  14.576  19.137   6.591
    8PS8B   C33 2720  14.445  19.251   6.568
    9PS8B    C0 2721  17.764  16.322   4.274
    9PS8B    C1 2722  17.888  16.392   4.171
    9PS8B    C2 2723  17.888  16.548   4.091
    9PS8B    C3 2724  17.964  16.610   3.934
    9PS8B    B4 2725  18.097  16.614   3.894
    9PS8B    B5 2726  18.200  16.680   3.803
    9PS8B    B6 2727  18.184  16.792   3.738
    9PS8B    B7 2728  18.113  16.898   3.755
    9PS8B    B8 2729  18.088  16.976   3.854
    9PS8B    B9 2730  18.149  17.009   3.964
    9PS8B   B10 2731  18.264  16.996   4.005
    9PS8B   B11 2732  18.353  16.911   3.992
    9PS8B   B12 2733  18.411  16.856   3.892
    9PS8B   B13 2734  18.419  16.880   3.766
    9PS8B   B14 2735  18.342  16.937   3.680
    9PS8B   B15 2736  18.237  17.012   3.686
    9PS8B   B16 2737  18.361  16.976   3.960
    9PS8B   B17 2738  18.314  17.024   3.892
    9PS8B   B18 2739  18.399  16.995   3.876
    9PS8B   B19 2740  18.240  17.109   3.873
    9PS8B   B20 2741  18.223  17.221   3.934
    9PS8B   B21 2742  18.296  17.296   4.009
    9PS8B   B22 2743  18.287  17.340   4.129
    9PS8B   B23 2744  18.365  17.408   4.207
    9PS8B   B24 2745  18.493  17.020   3.826
    9PS8B   B25 2746  18.619  17.010   3.848
    9PS8B   B26 2747  18.692  16.966   3.944
    9PS8B   B27 2748  18.750  16.855   3.971
    9PS8B   B28 2749  18.869  16.819   4.003
    9PS8B   B29 2750  18.197  17.121   3.588
    9PS8B   C30 2751  18.166  17.152   3.454
    9PS8B   C31 2752  18.126  17.042   3.313
    9PS8B   C32 2753  18.193  17.023   3.152
    9PS8B   C33 2754  18.213  17.143   3.026
   10PS8B    C0 2755  19.862  19.638   6.661
   10PS8B    C1 2756  19.721  19.600   6.566
   10PS8B    C2 2757  19.553  19.593   6.616
   10PS8B    C3 2758  19.407  19.495   6.559
   10PS8B    B4 2759  19.347  19.486   6.433
   10PS8B    B5 2760  19.220  19.453   6.356
   10PS8B    B6 2761  19.101  19.439   6.406
   10PS8B    B7 2762  19.040  19.484   6.510
   10PS8B    B8 2763  19.027  19.600   6.565
   10PS8B    B9 2764  19.032  19.722   6.523
   10PS8B   B10 2765  19.028  19.776   6.414
   10PS8B   B11 2766  19.068  19.747   6.300
   10PS8B   B12 2767  19.053  19.646   6.222
   10PS8B   B13 2768  18.972  19.546   6.217
   10PS8B   B14 2769  18.907  19.478   6.305
   10PS8B   B15 2770  18.877  19.494   6.430
   10PS8B   B16 2771  18.997  19.747   6.314
   10PS8B   B17 2772  18.939  19.697   6.371
   10PS8B   B18 2773  18.932  19.688   6.280
   10PS8B   B19 2774  18.880  19.701   6.469
   10PS8B   B20 2775  18.818  19.798   6.526
   10PS8B   B21 2776  18.768  19.911   6.487
   10PS8B   B22 2777  18.788  20.034   6.515
   10PS8B   B23 2778  18.745  20.147   6.469
   10PS8B   B24 2779  18.861  19.671   6.199
   10PS8B   B25 2780  18.843  19.711   6.077
   10PS8B   B26 2781  18.903  19.792   5.998
   10PS8B   B27 2782  18.992  19.781   5.907
   10PS8B   B28 2783  19.003  19.818   5.784
   10PS8B   B29 2784  18.752  19.445   6.501
   10PS8B   C30 2785  18.674  19.333   6.535
   10PS8B   C31 2786  18.713  19.153   6.528
   10PS8B   C32 2787  18.637  19.016   6.452
   10PS8B   C33 2788  18.472  18.957   6.469
   11PS8B    C0 2789  16.789  18.028   3.155
   11PS8B    C1 2790  16.625  17.967   3.151
   11PS8B    C2 2791  16.534  17.889   3.279
   11PS8B    C3 2792  16.400  17.762   3.280
   11PS8B    B4 2793  16.274  17.763   3.221
   11PS8B    B5 2794  16.132  17.707   3.224
   11PS8B    B6 2795  16.078  17.640   3.322
   11PS8B    B7 2796  16.096  17.635   3.449
   11PS8B    B8 2797  16.108  17.721   3.544
   11PS8B    B9 2798  16.070  17.844   3.562
   11PS8B   B10 2799  15.989  17.917   3.507
   11PS8B   B11 2800  15.948  17.932   3.391
   11PS8B   B12 2801  15.897  17.855   3.303
   11PS8B   B13 2802  15.846  17.737   3.304
   11PS8B   B14 2803  15.863  17.631   3.376
   11PS8B   B15 2804  15.921  17.604   3.489
   11PS8B   B16 2805  15.904  17.904   3.442
   11PS8B   B17 2806  15.904  17.825   3.494
   11PS8B   B18 2807  15.840  17.835   3.430
   11PS8B   B19 2808  15.924  17.784   3.599
   11PS8B   B20 2809  15.904  17.836   3.715
   11PS8B   B21 2810  15.828  17.930   3.762
   11PS8B   B22 2811  15.847  18.042   3.822
   11PS8B   B23 2812  15.771  18.139   3.859
   11PS8B   B24 2813  15.736  17.815   3.405
   11PS8B   B25 2814  15.638  17.874   3.345
   11PS8B   B26 2815  15.621  17.987   3.288
   11PS8B   B27 2816  15.629  18.031   3.168
   11PS8B   B28 2817  15.552  18.097   3.089
   11PS8B   B29 2818  15.880  17.499   3.589
   11PS8B   C30 2819  15.857  17.362   3.612
   11PS8B   C31 2820  15.903  17.215   3.511
   11PS8B   C32 2821  15.812  17.082   3.443
   11PS8B   C33 2822  15.707  16.968   3.524
   12PS8B    C0 2823  16.852  17.661   5.844
   12PS8B    C1 2824  16.837  17.806   5.941
   12PS8B    C2 2825  16.954  17.933   5.967
   12PS8B    C3 2826  16.988  18.048   6.108
   12PS8B    B4 2827  16.905  18.140   6.172
   12PS8B    B5 2828  16.899  18.267   6.256
   12PS8B    B6 2829  16.997  18.350   6.278
   12PS8B    B7 2830  17.104  18.383   6.214
   12PS8B    B8 2831  17.132  18.415   6.092
   12PS8B    B9 2832  17.066  18.466   5.993
   12PS8B   B10 2833  16.960  18.524   5.982
   12PS8B   B11 2834  16.850  18.518   6.039
   12PS8B   B12 2835  16.811  18.525   6.160
   12PS8B   B13 2836  16.863  18.563   6.271
   12PS8B   B14 2837  16.983  18.568   6.318
   12PS8B   B15 2838  17.102  18.557   6.267
   12PS8B   B16 2839  16.892  18.576   6.049
   12PS8B   B17 2840  16.978  18.590   6.088
   12PS8B   B18 2841  16.904  18.625   6.129
   12PS8B   B19 2842  17.088  18.610   6.064
   12PS8B   B20 2843  17.143  18.677   5.969
   12PS8B   B21 2844  17.104  18.772   5.890
   12PS8B   B22 2845  17.093  18.787   5.763
   12PS8B   B23 2846  17.046  18.878   5.685
   12PS8B   B24 2847  16.866  18.710   6.187
   12PS8B   B25 2848  16.759  18.780   6.196
   12PS8B   B26 2849  16.646  18.782   6.135
   12PS8B   B27 2850  16.530  18.731   6.157
   12PS8B   B28 2851  16.410  18.776   6.163
   12PS8B   B29 2852  17.228  18.626   6.315
   12PS8B   C30 2853  17.317  18.646   6.423
   12PS8B   C31 2854  17.334  18.553   6.581
   12PS8B   C32 2855  17.331  18.600   6.750
   12PS8B   C33 2856  17.429  18.719   6.833
    1PS8B    C0 2857   4.909  20.268  11.130
    1PS8B    C1 2858   4.960  20.141  11.238
    1PS8B    C2 2859   4.869  20.005  11.300
    1PS8B    C3 2860   4.876  19.907  11.456
    1PS8B    B4 2861   4.980  19.835  11.514
    1PS8B    B5 2862   5.018  19.722  11.608
    1PS8B    B6 2863   4.938  19.632  11.657
    1PS8B    B7 2864   4.827  19.578  11.619
    1PS8B    B8 2865   4.784  19.527  11.509
    1PS8B    B9 2866   4.838  19.472  11.405
    1PS8B   B10 2867   4.948  19.425  11.381
    1PS8B   B11 2868   5.064  19.451  11.415
    1PS8B   B12 2869   5.124  19.466  11.527
    1PS8B   B13 2870   5.098  19.437  11.649
    1PS8B   B14 2871   4.989  19.424  11.718
    1PS8B   B15 2872   4.863  19.414  11.690
    1PS8B   B16 2873   5.033  19.391  11.440
    1PS8B   B17 2874   4.958  19.372  11.495
    1PS8B   B18 2875   5.042  19.352  11.525
    1PS8B   B19 2876   4.849  19.336  11.495
    1PS8B   B20 2877   4.789  19.251  11.420
    1PS8B   B21 2878   4.826  19.152  11.346
    1PS8B   B22 2879   4.817  19.122  11.222
    1PS8B   B23 2880   4.862  19.027  11.147
    1PS8B   B24 2881   5.101  19.281  11.584
    1PS8B   B25 2882   5.217  19.225  11.580
    1PS8B   B26 2883   5.317  19.228  11.500
    1PS8B   B27 2884   5.426  19.295  11.493
    1PS8B   B28 2885   5.551  19.266  11.481
    1PS8B   B29 2886   4.758  19.338  11.768
    1PS8B   C30 2887   4.694  19.323  11.893
    1PS8B   C31 2888   4.691  19.433  12.040
    1PS8B   C32 2889   4.730  19.410  12.209
    1PS8B   C33 2890   4.666  19.292  12.322
    2PS8B    C0 2891   7.293  18.031   8.812
    2PS8B    C1 2892   7.309  18.026   8.637
    2PS8B    C2 2893   7.450  18.059   8.539
    2PS8B    C3 2894   7.473  18.124   8.368
    2PS8B    B4 2895   7.426  18.077   8.245
    2PS8B    B5 2896   7.447  18.075   8.094
    2PS8B    B6 2897   7.554  18.113   8.031
    2PS8B    B7 2898   7.679  18.121   8.060
    2PS8B    B8 2899   7.765  18.042   8.115
    2PS8B    B9 2900   7.778  17.914   8.128
    2PS8B   B10 2901   7.726  17.817   8.075
    2PS8B   B11 2902   7.614  17.791   8.029
    2PS8B   B12 2903   7.537  17.846   7.943
    2PS8B   B13 2904   7.551  17.936   7.852
    2PS8B   B14 2905   7.629  18.038   7.836
    2PS8B   B15 2906   7.737  18.080   7.892
    2PS8B   B16 2907   7.670  17.799   7.984
    2PS8B   B17 2908   7.728  17.871   7.961
    2PS8B   B18 2909   7.669  17.838   7.898
    2PS8B   B19 2910   7.833  17.913   7.976
    2PS8B   B20 2911   7.947  17.853   7.990
    2PS8B   B21 2912   7.993  17.736   7.961
    2PS8B   B22 2913   8.042  17.638   8.027
    2PS8B   B23 2914   8.080  17.518   7.998
    2PS8B   B24 2915   7.656  17.818   7.792
    2PS8B   B25 2916   7.602  17.729   7.717
    2PS8B   B26 2917   7.538  17.619   7.737
    2PS8B   B27 2918   7.415  17.585   7.747
    2PS8B   B28 2919   7.339  17.497   7.692
    2PS8B   B29 2920   7.849  18.159   7.827
    2PS8B   C30 2921   7.883  18.276   7.757
    2PS8B   C31 2922   7.789  18.433   7.732
    2PS8B   C32 2923   7.740  18.523   7.590
    2PS8B   C33 2924   7.839  18.586   7.461
    3PS8B    C0 2925   7.634  21.223   6.949
    3PS8B    C1 2926   7.547  21.259   7.097
    3PS8B    C2 2927   7.428  21.162   7.180
    3PS8B    C3 2928   7.283  21.203   7.287
    3PS8B    B4 2929   7.274  21.276   7.405
    3PS8B    B5 2930   7.195  21.302   7.533
    3PS8B    B6 2931   7.099  21.227   7.580
    3PS8B    B7 2932   7.068  21.103   7.571
    3PS8B    B8 2933   7.132  20.991   7.584
    3PS8B    B9 2934   7.239  20.953   7.647
    3PS8B   B10 2935   7.307  21.001   7.736
    3PS8B   B11 2936   7.340  21.115   7.771
    3PS8B   B12 2937   7.277  21.223   7.798
    3PS8B   B13 2938   7.155  21.253   7.825
    3PS8B   B14 2939   7.040  21.202   7.793
    3PS8B   B15 2940   7.000  21.092   7.740
    3PS8B   B16 2941   7.294  21.077   7.812
    3PS8B   B17 2942   7.206  21.042   7.800
    3PS8B   B18 2943   7.220  21.111   7.859
    3PS8B   B19 2944   7.147  20.947   7.781
    3PS8B   B20 2945   7.168  20.825   7.819
    3PS8B   B21 2946   7.233  20.770   7.916
    3PS8B   B22 2947   7.330  20.687   7.925
    3PS8B   B23 2948   7.402  20.639   8.021
    3PS8B   B24 2949   7.188  21.151   7.956
    3PS8B   B25 2950   7.240  21.209   8.058
    3PS8B   B26 2951   7.359  21.243   8.093
    3PS8B   B27 2952   7.429  21.350   8.084
    3PS8B   B28 2953   7.497  21.422   8.166
    3PS8B   B29 2954   6.869  21.020   7.766
    3PS8B   C30 2955   6.728  21.030   7.763
    3PS8B   C31 2956   6.619  21.153   7.681
    3PS8B   C32 2957   6.490  21.257   7.739
    3PS8B   C33 2958   6.344  21.214   7.824
    4PS8B    C0 2959   6.137  18.922  11.280
    4PS8B    C1 2960   6.078  18.935  11.115
    4PS8B    C2 2961   6.036  18.808  11.002
    4PS8B    C3 2962   6.041  18.795  10.818
    4PS8B    B4 2963   5.979  18.872  10.720
    4PS8B    B5 2964   5.928  18.877  10.576
    4PS8B    B6 2965   5.912  18.775  10.497
    4PS8B    B7 2966   5.889  18.649  10.514
    4PS8B    B8 2967   5.806  18.580  10.584
    4PS8B    B9 2968   5.689  18.602  10.636
    4PS8B   B10 2969   5.602  18.686  10.620
    4PS8B   B11 2970   5.601  18.806  10.592
    4PS8B   B12 2971   5.650  18.878  10.498
    4PS8B   B13 2972   5.702  18.854  10.383
    4PS8B   B14 2973   5.766  18.755  10.331
    4PS8B   B15 2974   5.787  18.632  10.363
    4PS8B   B16 2975   5.578  18.758  10.543
    4PS8B   B17 2976   5.618  18.687  10.495
    4PS8B   B18 2977   5.590  18.762  10.450
    4PS8B   B19 2978   5.628  18.573  10.488
    4PS8B   B20 2979   5.543  18.480  10.514
    4PS8B   B21 2980   5.414  18.473  10.519
    4PS8B   B22 2981   5.328  18.442  10.610
    4PS8B   B23 2982   5.199  18.444  10.617
    4PS8B   B24 2983   5.546  18.797  10.356
    4PS8B   B25 2984   5.460  18.885  10.317
    4PS8B   B26 2985   5.386  18.972  10.375
    4PS8B   B27 2986   5.397  19.096  10.403
    4PS8B   B28 2987   5.324  19.201  10.384
    4PS8B   B29 2988   5.806  18.515  10.269
    4PS8B   C30 2989   5.882  18.461  10.164
    4PS8B   C31 2990   6.047  18.511  10.098
    4PS8B   C32 2991   6.104  18.555   9.939
    4PS8B   C33 2992   6.095  18.464   9.789
    5PS8B    C0 2993   7.804  19.251  10.311
    5PS8B    C1 2994   7.790  19.091  10.241
    5PS8B    C2 2995   7.662  18.973  10.261
    5PS8B    C3 2996   7.658  18.788  10.257
    5PS8B    B4 2997   7.695  18.699  10.157
    5PS8B    B5 2998   7.676  18.559  10.100
    5PS8B    B6 2999   7.583  18.474  10.132
    5PS8B    B7 3000   7.463  18.485  10.176
    5PS8B    B8 3001   7.359  18.555  10.146
    5PS8B    B9 3002   7.317  18.615  10.039
    5PS8B   B10 3003   7.345  18.608   9.920
    5PS8B   B11 3004   7.449  18.588   9.856
    5PS8B   B12 3005   7.538  18.496   9.855
    5PS8B   B13 3006   7.547  18.377   9.902
    5PS8B   B14 3007   7.496  18.315  10.003
    5PS8B   B15 3008   7.399  18.339  10.086
    5PS8B   B16 3009   7.397  18.537   9.856
    5PS8B   B17 3010   7.358  18.483   9.924
    5PS8B   B18 3011   7.408  18.444   9.858
    5PS8B   B19 3012   7.265  18.469   9.989
    5PS8B   B20 3013   7.141  18.493   9.965
    5PS8B   B21 3014   7.069  18.506   9.859
    5PS8B   B22 3015   6.997  18.598   9.807
    5PS8B   B23 3016   6.933  18.614   9.696
    5PS8B   B24 3017   7.418  18.355   9.795
    5PS8B   B25 3018   7.451  18.326   9.674
    5PS8B   B26 3019   7.487  18.393   9.571
    5PS8B   B27 3020   7.599  18.428   9.519
    5PS8B   B28 3021   7.653  18.419   9.402
    5PS8B   B29 3022   7.310  18.237  10.154
    5PS8B   C30 3023   7.305  18.125  10.239
    5PS8B   C31 3024   7.434  18.053  10.349
    5PS8B   C32 3025   7.505  17.894  10.364
    5PS8B   C33 3026   7.426  17.740  10.391
    6PS8B    C0 3027   8.302  19.920   9.070
    6PS8B    C1 3028   8.230  19.907   9.229
    6PS8B    C2 3029   8.120  19.785   9.289
    6PS8B    C3 3030   7.985  19.786   9.415
    6PS8B    B4 3031   7.988  19.819   9.551
    6PS8B    B5 3032   7.920  19.802   9.686
    6PS8B    B6 3033   7.830  19.713   9.717
    6PS8B    B7 3034   7.800  19.596   9.674
    6PS8B    B8 3035   7.866  19.489   9.646
    6PS8B    B9 3036   7.979  19.438   9.685
    6PS8B   B10 3037   8.055  19.458   9.778
    6PS8B   B11 3038   8.090  19.558   9.842
    6PS8B   B12 3039   8.028  19.650   9.907
    6PS8B   B13 3040   7.909  19.666   9.952
    6PS8B   B14 3041   7.792  19.623   9.917
    6PS8B   B15 3042   7.748  19.532   9.836
    6PS8B   B16 3043   8.048  19.508   9.875
    6PS8B   B17 3044   7.960  19.475   9.860
    6PS8B   B18 3045   7.978  19.522   9.936
    6PS8B   B19 3046   7.900  19.387   9.818
    6PS8B   B20 3047   7.926  19.261   9.816
    6PS8B   B21 3048   8.001  19.182   9.885
    6PS8B   B22 3049   8.099  19.103   9.859
    6PS8B   B23 3050   8.180  19.032   9.930
    6PS8B   B24 3051   7.955  19.531  10.042
    6PS8B   B25 3052   8.017  19.557  10.153
    6PS8B   B26 3053   8.138  19.584  10.186
    6PS8B   B27 3054   8.206  19.691  10.203
    6PS8B   B28 3055   8.280  19.737  10.298
    6PS8B   B29 3056   7.621  19.451   9.851
    6PS8B   C30 3057   7.481  19.455   9.864
    6PS8B   C31 3058   7.363  19.593   9.833
    6PS8B   C32 3059   7.239  19.670   9.930
    6PS8B   C33 3060   7.102  19.598  10.011
    7PS8B    C0 3061   7.286  17.876   7.937
    7PS8B    C1 3062   7.262  17.704   7.960
    7PS8B    C2 3063   7.122  17.621   8.024
    7PS8B    C3 3064   7.100  17.463   8.117
    7PS8B    B4 3065   7.136  17.332   8.085
    7PS8B    B5 3066   7.108  17.184   8.108
    7PS8B    B6 3067   7.004  17.133   8.167
    7PS8B    B7 3068   6.883  17.171   8.184
    7PS8B    B8 3069   6.790  17.218   8.109
    7PS8B    B9 3070   6.762  17.213   7.983
    7PS8B   B10 3071   6.800  17.143   7.890
    7PS8B   B11 3072   6.906  17.088   7.858
    7PS8B   B12 3073   6.985  17.006   7.917
    7PS8B   B13 3074   6.978  16.930   8.020
    7PS8B   B14 3075   6.913  16.934   8.132
    7PS8B   B15 3076   6.813  17.003   8.177
    7PS8B   B16 3077   6.849  17.047   7.879
    7PS8B   B17 3078   6.799  17.039   7.960
    7PS8B   B18 3079   6.851  16.969   7.931
    7PS8B   B19 3080   6.700  17.066   8.011
    7PS8B   B20 3081   6.582  17.079   7.963
    7PS8B   B21 3082   6.520  17.035   7.858
    7PS8B   B22 3083   6.462  17.089   7.757
    7PS8B   B23 3084   6.409  17.045   7.648
    7PS8B   B24 3085   6.857  16.860   7.926
    7PS8B   B25 3086   6.897  16.769   7.843
    7PS8B   B26 3087   6.947  16.770   7.725
    7PS8B   B27 3088   7.066  16.767   7.677
    7PS8B   B28 3089   7.128  16.695   7.590
    7PS8B   B29 3090   6.709  16.956   8.277
    7PS8B   C30 3091   6.686  16.906   8.407
    7PS8B   C31 3092   6.797  16.900   8.553
    7PS8B   C32 3093   6.850  16.770   8.658
    7PS8B   C33 3094   6.755  16.657   8.752
    8PS8B    C0 3095   8.187  17.407  11.363
    8PS8B    C1 3096   8.294  17.546  11.373
    8PS8B    C2 3097   8.308  17.681  11.264
    8PS8B    C3 3098   8.448  17.793  11.216
    8PS8B    B4 3099   8.528  17.875  11.294
    8PS8B    B5 3100   8.619  17.998  11.297
    8PS8B    B6 3101   8.630  18.087  11.203
    8PS8B    B7 3102   8.552  18.132  11.111
    8PS8B    B8 3103   8.429  18.171  11.105
    8PS8B    B9 3104   8.345  18.220  11.189
    8PS8B   B10 3105   8.354  18.270  11.300
    8PS8B   B11 3106   8.426  18.252  11.399
    8PS8B   B12 3107   8.553  18.251  11.419
    8PS8B   B13 3108   8.656  18.289  11.352
    8PS8B   B14 3109   8.683  18.302  11.227
    8PS8B   B15 3110   8.615  18.302  11.117
    8PS8B   B16 3111   8.433  18.313  11.360
    8PS8B   B17 3112   8.459  18.333  11.271
    8PS8B   B18 3113   8.513  18.359  11.340
    8PS8B   B19 3114   8.419  18.363  11.168
    8PS8B   B20 3115   8.320  18.438  11.134
    8PS8B   B21 3116   8.254  18.533  11.191
    8PS8B   B22 3117   8.131  18.551  11.224
    8PS8B   B23 3118   8.067  18.642  11.290
    8PS8B   B24 3119   8.580  18.438  11.374
    8PS8B   B25 3120   8.609  18.499  11.484
    8PS8B   B26 3121   8.567  18.494  11.605
    8PS8B   B27 3122   8.604  18.433  11.711
    8PS8B   B28 3123   8.630  18.467  11.832
    8PS8B   B29 3124   8.646  18.380  10.991
    8PS8B   C30 3125   8.740  18.402  10.888
    8PS8B   C31 3126   8.888  18.305  10.839
    8PS8B   C32 3127   9.058  18.345  10.819
    8PS8B   C33 3128   9.131  18.468  10.719
    9PS8B    C0 3129   5.002  20.576   7.406
    9PS8B    C1 3130   4.967  20.622   7.572
    9PS8B    C2 3131   4.992  20.531   7.719
    9PS8B    C3 3132   4.905  20.526   7.882
    9PS8B    B4 3133   4.882  20.628   7.975
    9PS8B    B5 3134   4.853  20.661   8.121
    9PS8B    B6 3135   4.864  20.580   8.222
    9PS8B    B7 3136   4.935  20.476   8.248
    9PS8B    B8 3137   5.060  20.445   8.236
    9PS8B    B9 3138   5.171  20.511   8.233
    9PS8B   B10 3139   5.204  20.625   8.263
    9PS8B   B11 3140   5.150  20.736   8.259
    9PS8B   B12 3141   5.040  20.785   8.303
    9PS8B   B13 3142   4.952  20.747   8.389
    9PS8B   B14 3143   4.910  20.633   8.433
    9PS8B   B15 3144   4.952  20.511   8.425
    9PS8B   B16 3145   5.162  20.705   8.323
    9PS8B   B17 3146   5.131  20.625   8.366
    9PS8B   B18 3147   5.107  20.707   8.399
    9PS8B   B19 3148   5.161  20.519   8.395
    9PS8B   B20 3149   5.274  20.469   8.431
    9PS8B   B21 3150   5.383  20.517   8.480
    9PS8B   B22 3151   5.506  20.521   8.443
    9PS8B   B23 3152   5.613  20.577   8.489
    9PS8B   B24 3153   5.086  20.763   8.491
    9PS8B   B25 3154   5.105  20.881   8.539
    9PS8B   B26 3155   5.162  20.987   8.497
    9PS8B   B27 3156   5.123  21.094   8.438
    9PS8B   B28 3157   5.136  21.221   8.459
    9PS8B   B29 3158   4.934  20.402   8.529
    9PS8B   C30 3159   4.841  20.327   8.604
    9PS8B   C31 3160   4.660  20.306   8.582
    9PS8B   C32 3161   4.522  20.329   8.688
    9PS8B   C33 3162   4.490  20.259   8.845
   10PS8B    C0 3163   6.886  15.540  10.742
   10PS8B    C1 3164   6.998  15.647  10.660
   10PS8B    C2 3165   6.966  15.762  10.532
   10PS8B    C3 3166   7.067  15.828  10.392
   10PS8B    B4 3167   7.190  15.895  10.392
   10PS8B    B5 3168   7.282  15.990  10.316
   10PS8B    B6 3169   7.249  16.063  10.214
   10PS8B    B7 3170   7.140  16.115  10.170
   10PS8B    B8 3171   7.044  16.184  10.222
   10PS8B    B9 3172   7.032  16.262  10.325
   10PS8B   B10 3173   7.111  16.320  10.398
   10PS8B   B11 3174   7.224  16.295  10.443
   10PS8B   B12 3175   7.336  16.263  10.391
   10PS8B   B13 3176   7.387  16.266  10.273
   10PS8B   B14 3177   7.338  16.258  10.153
   10PS8B   B15 3178   7.220  16.264  10.101
   10PS8B   B16 3179   7.216  16.347  10.393
   10PS8B   B17 3180   7.187  16.350  10.302
   10PS8B   B18 3181   7.275  16.369  10.323
   10PS8B   B19 3182   7.101  16.377  10.233
   10PS8B   B20 3183   7.013  16.472  10.241
   10PS8B   B21 3184   7.007  16.586  10.302
   10PS8B   B22 3185   6.930  16.638  10.390
   10PS8B   B23 3186   6.930  16.749  10.456
   10PS8B   B24 3187   7.360  16.431  10.296
   10PS8B   B25 3188   7.456  16.494  10.354
   10PS8B   B26 3189   7.491  16.514  10.476
   10PS8B   B27 3190   7.573  16.457  10.557
   10PS8B   B28 3191   7.670  16.497  10.632
   10PS8B   B29 3192   7.183  16.316   9.964
   10PS8B   C30 3193   7.203  16.302   9.825
   10PS8B   C31 3194   7.279  16.166   9.728
   10PS8B   C32 3195   7.409  16.159   9.612
   10PS8B   C33 3196   7.428  16.247   9.462
   11PS8B    C0 3197   7.336  17.920  10.094
   11PS8B    C1 3198   7.199  17.895  10.201
   11PS8B    C2 3199   7.134  18.003  10.323
   11PS8B    C3 3200   7.046  17.975  10.483
   11PS8B    B4 3201   6.927  17.907  10.510
   11PS8B    B5 3202   6.810  17.892  10.607
   11PS8B    B6 3203   6.777  17.973  10.702
   11PS8B    B7 3204   6.793  18.099  10.723
   11PS8B    B8 3205   6.776  18.207  10.654
   11PS8B    B9 3206   6.702  18.240  10.554
   11PS8B   B10 3207   6.603  18.192  10.500
   11PS8B   B11 3208   6.561  18.078  10.479
   11PS8B   B12 3209   6.539  17.975  10.553
   11PS8B   B13 3210   6.527  17.954  10.679
   11PS8B   B14 3211   6.574  18.010  10.785
   11PS8B   B15 3212   6.635  18.121  10.811
   11PS8B   B16 3213   6.527  18.120  10.528
   11PS8B   B17 3214   6.551  18.160  10.611
   11PS8B   B18 3215   6.488  18.093  10.610
   11PS8B   B19 3216   6.581  18.258  10.661
   11PS8B   B20 3217   6.543  18.379  10.637
   11PS8B   B21 3218   6.441  18.434  10.581
   11PS8B   B22 3219   6.423  18.511  10.480
   11PS8B   B23 3220   6.319  18.558  10.418
   11PS8B   B24 3221   6.396  18.058  10.656
   11PS8B   B25 3222   6.286  18.001  10.621
   11PS8B   B26 3223   6.235  17.961  10.510
   11PS8B   B27 3224   6.232  17.850  10.446
   11PS8B   B28 3225   6.140  17.777  10.394
   11PS8B   B29 3226   6.627  18.202  10.939
   11PS8B   C30 3227   6.648  18.201  11.079
   11PS8B   C31 3228   6.739  18.082  11.186
   11PS8B   C32 3229   6.695  17.988  11.327
   11PS8B   C33 3230   6.630  18.043  11.480
   12PS8B    C0 3231   6.167  20.374   9.801
   12PS8B    C1 3232   6.333  20.413   9.840
   12PS8B    C2 3233   6.467  20.446   9.732
   12PS8B    C3 3234   6.649  20.421   9.744
   12PS8B    B4 3235   6.742  20.468   9.837
   12PS8B    B5 3236   6.888  20.501   9.865
   12PS8B    B6 3237   6.982  20.513   9.776
   12PS8B    B7 3238   6.986  20.543   9.651
   12PS8B    B8 3239   6.935  20.636   9.578
   12PS8B    B9 3240   6.894  20.757   9.598
   12PS8B   B10 3241   6.907  20.838   9.689
   12PS8B   B11 3242   6.918  20.831   9.812
   12PS8B   B12 3243   6.994  20.768   9.893
   12PS8B   B13 3244   7.106  20.705   9.882
   12PS8B   B14 3245   7.164  20.639   9.788
   12PS8B   B15 3246   7.147  20.627   9.660
   12PS8B   B16 3247   6.976  20.851   9.772
   12PS8B   B17 3248   7.029  20.808   9.706
   12PS8B   B18 3249   7.066  20.827   9.788
   12PS8B   B19 3250   7.050  20.802   9.594
   12PS8B   B20 3251   7.048  20.893   9.503
   12PS8B   B21 3252   7.057  21.022   9.502
   12PS8B   B22 3253   6.982  21.119   9.465
   12PS8B   B23 3254   6.988  21.247   9.473
   12PS8B   B24 3255   7.157  20.859   9.837
   12PS8B   B25 3256   7.193  20.936   9.935
   12PS8B   B26 3257   7.131  21.013  10.017
   12PS8B   B27 3258   7.085  21.000  10.136
   12PS8B   B28 3259   7.097  21.065  10.246
   12PS8B   B29 3260   7.255  20.603   9.556
   12PS8B   C30 3261   7.358  20.517   9.512
   12PS8B   C31 3262   7.398  20.344   9.562
   12PS8B   C32 3263   7.542  20.267   9.624
   12PS8B   C33 3264   7.703  20.262   9.555
    1PS8B    C0 3265  13.578   6.263   4.087
    1PS8B    C1 3266  13.714   6.204   4.180
    1PS8B    C2 3267  13.779   6.041   4.189
    1PS8B    C3 3268  13.866   5.946   4.321
    1PS8B    B4 3269  13.984   5.973   4.390
    1PS8B    B5 3270  14.101   5.915   4.469
    1PS8B    B6 3271  14.133   5.789   4.477
    1PS8B    B7 3272  14.118   5.687   4.401
    1PS8B    B8 3273  14.136   5.661   4.276
    1PS8B    B9 3274  14.212   5.710   4.183
    1PS8B   B10 3275  14.311   5.782   4.181
    1PS8B   B11 3276  14.351   5.877   4.249
    1PS8B   B12 3277  14.373   5.895   4.374
    1PS8B   B13 3278  14.384   5.819   4.477
    1PS8B   B14 3279  14.336   5.704   4.510
    1PS8B   B15 3280  14.275   5.608   4.448
    1PS8B   B16 3281  14.386   5.812   4.253
    1PS8B   B17 3282  14.361   5.725   4.282
    1PS8B   B18 3283  14.424   5.773   4.329
    1PS8B   B19 3284  14.332   5.621   4.246
    1PS8B   B20 3285  14.371   5.554   4.143
    1PS8B   B21 3286  14.474   5.556   4.065
    1PS8B   B22 3287  14.493   5.575   3.940
    1PS8B   B23 3288  14.597   5.587   3.864
    1PS8B   B24 3289  14.516   5.764   4.388
    1PS8B   B25 3290  14.625   5.829   4.405
    1PS8B   B26 3291  14.676   5.936   4.357
    1PS8B   B27 3292  14.679   6.059   4.393
    1PS8B   B28 3293  14.771   6.148   4.410
    1PS8B   B29 3294  14.283   5.460   4.480
    1PS8B   C30 3295  14.262   5.361   4.577
    1PS8B   C31 3296  14.169   5.367   4.736
    1PS8B   C32 3297  14.211   5.331   4.902
    1PS8B   C33 3298  14.275   5.183   4.970
    2PS8B    C0 3299  10.891   2.554   2.676
    2PS8B    C1 3300  10.836   2.685   2.779
    2PS8B    C2 3301  10.925   2.824   2.837
    2PS8B    C3 3302  10.914   2.927   2.989
    2PS8B    B4 3303  10.808   3.002   3.041
    2PS8B    B5 3304  10.767   3.118   3.130
    2PS8B    B6 3305  10.846   3.211   3.178
    2PS8B    B7 3306  10.957   3.263   3.140
    2PS8B    B8 3307  11.003   3.310   3.029
    2PS8B    B9 3308  10.951   3.361   2.922
    2PS8B   B10 3309  10.841   3.406   2.893
    2PS8B   B11 3310  10.724   3.380   2.926
    2PS8B   B12 3311  10.662   3.370   3.037
    2PS8B   B13 3312  10.685   3.404   3.158
    2PS8B   B14 3313  10.792   3.420   3.229
    2PS8B   B15 3314  10.919   3.429   3.204
    2PS8B   B16 3315  10.755   3.442   2.949
    2PS8B   B17 3316  10.829   3.464   3.005
    2PS8B   B18 3317  10.743   3.484   3.032
    2PS8B   B19 3318  10.937   3.500   3.006
    2PS8B   B20 3319  10.999   3.583   2.929
    2PS8B   B21 3320  10.963   3.679   2.851
    2PS8B   B22 3321  10.975   3.704   2.726
    2PS8B   B23 3322  10.930   3.796   2.646
    2PS8B   B24 3323  10.683   3.557   3.087
    2PS8B   B25 3324  10.567   3.612   3.078
    2PS8B   B26 3325  10.469   3.605   2.996
    2PS8B   B27 3326  10.360   3.537   2.990
    2PS8B   B28 3327  10.236   3.566   2.973
    2PS8B   B29 3328  11.022   3.509   3.281
    2PS8B   C30 3329  11.083   3.529   3.406
    2PS8B   C31 3330  11.083   3.425   3.558
    2PS8B   C32 3331  11.040   3.455   3.725
    2PS8B   C33 3332  11.101   3.577   3.834
    3PS8B    C0 3333  13.090   2.518   3.630
    3PS8B    C1 3334  13.207   2.526   3.760
    3PS8B    C2 3335  13.353   2.432   3.782
    3PS8B    C3 3336  13.446   2.374   3.930
    3PS8B    B4 3337  13.502   2.445   4.036
    3PS8B    B5 3338  13.607   2.446   4.147
    3PS8B    B6 3339  13.707   2.363   4.159
    3PS8B    B7 3340  13.776   2.292   4.077
    3PS8B    B8 3341  13.835   2.313   3.964
    3PS8B    B9 3342  13.884   2.417   3.904
    3PS8B   B10 3343  13.915   2.529   3.939
    3PS8B   B11 3344  13.871   2.611   4.022
    3PS8B   B12 3345  13.847   2.607   4.148
    3PS8B   B13 3346  13.877   2.528   4.245
    3PS8B   B14 3347  13.904   2.402   4.254
    3PS8B   B15 3348  13.932   2.307   4.170
    3PS8B   B16 3349  13.936   2.579   4.034
    3PS8B   B17 3350  13.964   2.489   4.048
    3PS8B   B18 3351  13.971   2.550   4.116
    3PS8B   B19 3352  14.014   2.399   3.999
    3PS8B   B20 3353  14.109   2.393   3.912
    3PS8B   B21 3354  14.203   2.472   3.874
    3PS8B   B22 3355  14.236   2.528   3.763
    3PS8B   B23 3356  14.325   2.615   3.727
    3PS8B   B24 3357  14.032   2.581   4.201
    3PS8B   B25 3358  14.071   2.689   4.258
    3PS8B   B26 3359  14.054   2.815   4.235
    3PS8B   B27 3360  13.973   2.905   4.276
    3PS8B   B28 3361  13.984   3.022   4.328
    3PS8B   B29 3362  14.021   2.188   4.195
    3PS8B   C30 3363  14.043   2.073   4.274
    3PS8B   C31 3364  13.932   1.987   4.392
    3PS8B   C32 3365  13.946   1.942   4.561
    3PS8B   C33 3366  14.070   1.845   4.639
    4PS8B    C0 3367  15.644   3.410   3.336
    4PS8B    C1 3368  15.662   3.556   3.431
    4PS8B    C2 3369  15.809   3.632   3.488
    4PS8B    C3 3370  15.850   3.734   3.636
    4PS8B    B4 3371  15.796   3.855   3.681
    4PS8B    B5 3372  15.819   3.980   3.764
    4PS8B    B6 3373  15.934   4.022   3.812
    4PS8B    B7 3374  16.056   4.008   3.776
    4PS8B    B8 3375  16.122   4.019   3.666
    4PS8B    B9 3376  16.105   4.084   3.555
    4PS8B   B10 3377  16.034   4.178   3.521
    4PS8B   B11 3378  15.920   4.217   3.549
    4PS8B   B12 3379  15.859   4.246   3.658
    4PS8B   B13 3380  15.895   4.269   3.779
    4PS8B   B14 3381  15.994   4.231   3.853
    4PS8B   B15 3382  16.108   4.173   3.833
    4PS8B   B16 3383  15.978   4.255   3.571
    4PS8B   B17 3384  16.051   4.239   3.630
    4PS8B   B18 3385  15.988   4.301   3.653
    4PS8B   B19 3386  16.163   4.215   3.634
    4PS8B   B20 3387  16.259   4.250   3.556
    4PS8B   B21 3388  16.279   4.347   3.473
    4PS8B   B22 3389  16.304   4.356   3.348
    4PS8B   B23 3390  16.314   4.453   3.263
    4PS8B   B24 3391  15.973   4.398   3.702
    4PS8B   B25 3392  15.901   4.503   3.687
    4PS8B   B26 3393  15.815   4.543   3.601
    4PS8B   B27 3394  15.687   4.541   3.593
    4PS8B   B28 3395  15.594   4.628   3.571
    4PS8B   B29 3396  16.236   4.193   3.911
    4PS8B   C30 3397  16.297   4.186   4.038
    4PS8B   C31 3398  16.241   4.104   4.193
    4PS8B   C32 3399  16.216   4.160   4.357
    4PS8B   C33 3400  16.330   4.239   4.464
    5PS8B    C0 3401  14.631   4.039   2.830
    5PS8B    C1 3402  14.536   4.164   2.910
    5PS8B    C2 3403  14.579   4.264   3.046
    5PS8B    C3 3404  14.481   4.343   3.182
    5PS8B    B4 3405  14.376   4.434   3.176
    5PS8B    B5 3406  14.298   4.543   3.250
    5PS8B    B6 3407  14.336   4.603   3.359
    5PS8B    B7 3408  14.449   4.630   3.414
    5PS8B    B8 3409  14.561   4.679   3.373
    5PS8B    B9 3410  14.597   4.758   3.277
    5PS8B   B10 3411  14.538   4.833   3.201
    5PS8B   B11 3412  14.427   4.834   3.147
    5PS8B   B12 3413  14.306   4.824   3.188
    5PS8B   B13 3414  14.248   4.832   3.302
    5PS8B   B14 3415  14.283   4.809   3.424
    5PS8B   B15 3416  14.396   4.789   3.485
    5PS8B   B16 3417  14.441   4.882   3.200
    5PS8B   B17 3418  14.462   4.875   3.292
    5PS8B   B18 3419  14.382   4.912   3.266
    5PS8B   B19 3420  14.546   4.881   3.369
    5PS8B   B20 3421  14.651   4.955   3.373
    5PS8B   B21 3422  14.685   5.068   3.321
    5PS8B   B22 3423  14.778   5.108   3.242
    5PS8B   B23 3424  14.807   5.218   3.182
    5PS8B   B24 3425  14.309   4.990   3.290
    5PS8B   B25 3426  14.233   5.073   3.229
    5PS8B   B26 3427  14.213   5.104   3.106
    5PS8B   B27 3428  14.128   5.069   3.016
    5PS8B   B28 3429  14.049   5.131   2.936
    5PS8B   B29 3430  14.430   4.827   3.627
    5PS8B   C30 3431  14.396   4.812   3.763
    5PS8B   C31 3432  14.286   4.689   3.846
    5PS8B   C32 3433  14.147   4.705   3.952
    5PS8B   C33 3434  14.134   4.789   4.105
    6PS8B    C0 3435  15.130   5.898   4.144
    6PS8B    C1 3436  15.115   5.906   3.970
    6PS8B    C2 3437  14.996   5.830   3.866
    6PS8B    C3 3438  15.000   5.768   3.692
    6PS8B    B4 3439  15.029   5.835   3.573
    6PS8B    B5 3440  15.010   5.837   3.422
    6PS8B    B6 3441  14.925   5.766   3.353
    6PS8B    B7 3442  14.811   5.713   3.378
    6PS8B    B8 3443  14.701   5.753   3.434
    6PS8B    B9 3444  14.644   5.868   3.452
    6PS8B   B10 3445  14.658   5.979   3.404
    6PS8B   B11 3446  14.755   6.045   3.363
    6PS8B   B12 3447  14.847   6.025   3.277
    6PS8B   B13 3448  14.867   5.941   3.181
    6PS8B   B14 3449  14.831   5.819   3.159
    6PS8B   B15 3450  14.744   5.738   3.211
    6PS8B   B16 3451  14.705   6.020   3.315
    6PS8B   B17 3452  14.677   5.934   3.288
    6PS8B   B18 3453  14.721   5.988   3.228
    6PS8B   B19 3454  14.593   5.857   3.298
    6PS8B   B20 3455  14.466   5.872   3.312
    6PS8B   B21 3456  14.382   5.965   3.285
    6PS8B   B22 3457  14.300   6.036   3.354
    6PS8B   B23 3458  14.222   6.137   3.329
    6PS8B   B24 3459  14.728   6.017   3.123
    6PS8B   B25 3460  14.748   6.123   3.054
    6PS8B   B26 3461  14.768   6.247   3.080
    6PS8B   B27 3462  14.871   6.322   3.095
    6PS8B   B28 3463  14.911   6.433   3.046
    6PS8B   B29 3464  14.669   5.628   3.139
    6PS8B   C30 3465  14.679   5.510   3.063
    6PS8B   C31 3466  14.823   5.398   3.035
    6PS8B   C32 3467  14.902   5.338   2.892
    6PS8B   C33 3468  14.834   5.250   2.757
    7PS8B    C0 3469  13.348   5.298   2.827
    7PS8B    C1 3470  13.459   5.406   2.910
    7PS8B    C2 3471  13.441   5.484   3.065
    7PS8B    C3 3472  13.503   5.643   3.136
    7PS8B    B4 3473  13.634   5.691   3.151
    7PS8B    B5 3474  13.725   5.785   3.228
    7PS8B    B6 3475  13.696   5.848   3.339
    7PS8B    B7 3476  13.617   5.826   3.437
    7PS8B    B8 3477  13.590   5.725   3.512
    7PS8B    B9 3478  13.653   5.618   3.549
    7PS8B   B10 3479  13.770   5.583   3.547
    7PS8B   B11 3480  13.866   5.601   3.470
    7PS8B   B12 3481  13.924   5.704   3.421
    7PS8B   B13 3482  13.923   5.830   3.447
    7PS8B   B14 3483  13.837   5.912   3.498
    7PS8B   B15 3484  13.726   5.900   3.563
    7PS8B   B16 3485  13.866   5.632   3.536
    7PS8B   B17 3486  13.812   5.697   3.579
    7PS8B   B18 3487  13.899   5.718   3.559
    7PS8B   B19 3488  13.730   5.712   3.658
    7PS8B   B20 3489  13.705   5.649   3.767
    7PS8B   B21 3490  13.775   5.576   3.848
    7PS8B   B22 3491  13.769   5.455   3.891
    7PS8B   B23 3492  13.844   5.380   3.964
    7PS8B   B24 3493  13.987   5.772   3.592
    7PS8B   B25 3494  14.115   5.757   3.594
    7PS8B   B26 3495  14.196   5.665   3.556
    7PS8B   B27 3496  14.265   5.642   3.450
    7PS8B   B28 3497  14.389   5.617   3.425
    7PS8B   B29 3498  13.671   5.994   3.668
    7PS8B   C30 3499  13.631   6.126   3.698
    7PS8B   C31 3500  13.594   6.267   3.585
    7PS8B   C32 3501  13.654   6.430   3.574
    7PS8B   C33 3502  13.657   6.556   3.696
    8PS8B    C0 3503  17.359   3.763   3.021
    8PS8B    C1 3504  17.356   3.875   3.156
    8PS8B    C2 3505  17.237   3.889   3.284
    8PS8B    C3 3506  17.177   4.031   3.386
    8PS8B    B4 3507  17.246   4.118   3.470
    8PS8B    B5 3508  17.237   4.213   3.589
    8PS8B    B6 3509  17.137   4.223   3.672
    8PS8B    B7 3510  17.045   4.143   3.713
    8PS8B    B8 3511  17.042   4.022   3.757
    8PS8B    B9 3512  17.126   3.943   3.814
    8PS8B   B10 3513  17.234   3.959   3.871
    8PS8B   B11 3514  17.330   4.035   3.857
    8PS8B   B12 3515  17.345   4.162   3.851
    8PS8B   B13 3516  17.272   4.264   3.881
    8PS8B   B14 3517  17.145   4.286   3.885
    8PS8B   B15 3518  17.038   4.213   3.881
    8PS8B   B16 3519  17.287   4.043   3.915
    8PS8B   B17 3520  17.196   4.065   3.928
    8PS8B   B18 3521  17.261   4.123   3.956
    8PS8B   B19 3522  17.093   4.022   3.953
    8PS8B   B20 3523  17.058   3.924   4.030
    8PS8B   B21 3524  17.112   3.864   4.130
    8PS8B   B22 3525  17.149   3.744   4.156
    8PS8B   B23 3526  17.211   3.686   4.253
    8PS8B   B24 3527  17.287   4.194   4.034
    8PS8B   B25 3528  17.391   4.231   4.101
    8PS8B   B26 3529  17.514   4.194   4.105
    8PS8B   B27 3530  17.622   4.233   4.049
    8PS8B   B28 3531  17.740   4.266   4.090
    8PS8B   B29 3532  16.906   4.241   3.949
    8PS8B   C30 3533  16.798   4.331   3.961
    8PS8B   C31 3534  16.749   4.473   3.855
    8PS8B   C32 3535  16.720   4.643   3.887
    8PS8B   C33 3536  16.608   4.716   4.000
    9PS8B    C0 3537  14.046   5.109   5.467
    9PS8B    C1 3538  13.912   5.069   5.361
    9PS8B    C2 3539  13.916   5.020   5.193
    9PS8B    C3 3540  13.798   5.041   5.052
    9PS8B    B4 3541  13.666   5.001   5.038
    9PS8B    B5 3542  13.554   4.965   4.940
    9PS8B    B6 3543  13.567   4.942   4.813
    9PS8B    B7 3544  13.662   4.899   4.738
    9PS8B    B8 3545  13.745   4.800   4.743
    9PS8B    B9 3546  13.746   4.684   4.799
    9PS8B   B10 3547  13.661   4.612   4.850
    9PS8B   B11 3548  13.557   4.631   4.914
    9PS8B   B12 3549  13.450   4.700   4.896
    9PS8B   B13 3550  13.396   4.758   4.795
    9PS8B   B14 3551  13.440   4.812   4.686
    9PS8B   B15 3552  13.553   4.811   4.622
    9PS8B   B16 3553  13.552   4.606   4.846
    9PS8B   B17 3554  13.576   4.640   4.760
    9PS8B   B18 3555  13.488   4.628   4.781
    9PS8B   B19 3556  13.653   4.634   4.676
    9PS8B   B20 3557  13.721   4.533   4.632
    9PS8B   B21 3558  13.707   4.405   4.635
    9PS8B   B22 3559  13.776   4.307   4.682
    9PS8B   B23 3560  13.758   4.180   4.693
    9PS8B   B24 3561  13.391   4.598   4.741
    9PS8B   B25 3562  13.287   4.531   4.777
    9PS8B   B26 3563  13.254   4.465   4.882
    9PS8B   B27 3564  13.188   4.491   4.989
    9PS8B   B28 3565  13.089   4.438   5.051
    9PS8B   B29 3566  13.573   4.821   4.472
    9PS8B   C30 3567  13.551   4.898   4.357
    9PS8B   C31 3568  13.499   5.074   4.339
    9PS8B   C32 3569  13.368   5.153   4.254
    9PS8B   C33 3570  13.326   5.145   4.084
   10PS8B    C0 3571  12.099   3.236   3.197
   10PS8B    C1 3572  11.978   3.282   3.316
   10PS8B    C2 3573  11.982   3.262   3.490
   10PS8B    C3 3574  11.850   3.238   3.617
   10PS8B    B4 3575  11.740   3.317   3.650
   10PS8B    B5 3576  11.639   3.354   3.758
   10PS8B    B6 3577  11.646   3.323   3.884
   10PS8B    B7 3578  11.742   3.298   3.966
   10PS8B    B8 3579  11.855   3.353   3.994
   10PS8B    B9 3580  11.903   3.473   3.986
   10PS8B   B10 3581  11.855   3.584   3.969
   10PS8B   B11 3582  11.759   3.630   3.906
   10PS8B   B12 3583  11.633   3.604   3.902
   10PS8B   B13 3584  11.551   3.538   3.976
   10PS8B   B14 3585  11.562   3.437   4.055
   10PS8B   B15 3586  11.660   3.373   4.110
   10PS8B   B16 3587  11.756   3.628   3.979
   10PS8B   B17 3588  11.757   3.560   4.044
   10PS8B   B18 3589  11.682   3.611   4.033
   10PS8B   B19 3590  11.822   3.507   4.122
   10PS8B   B20 3591  11.916   3.552   4.198
   10PS8B   B21 3592  11.950   3.668   4.243
   10PS8B   B22 3593  12.054   3.743   4.233
   10PS8B   B23 3594  12.084   3.862   4.270
   10PS8B   B24 3595  11.598   3.658   4.085
   10PS8B   B25 3596  11.530   3.767   4.080
   10PS8B   B26 3597  11.533   3.873   4.009
   10PS8B   B27 3598  11.474   3.913   3.902
   10PS8B   B28 3599  11.408   4.018   3.869
   10PS8B   B29 3600  11.659   3.303   4.245
   10PS8B   C30 3601  11.599   3.204   4.324
   10PS8B   C31 3602  11.486   3.066   4.278
   10PS8B   C32 3603  11.327   3.017   4.333
   10PS8B   C33 3604  11.273   2.979   4.495
   11PS8B    C0 3605  12.855   5.636   4.891
   11PS8B    C1 3606  12.749   5.509   4.946
   11PS8B    C2 3607  12.743   5.341   4.897
   11PS8B    C3 3608  12.607   5.216   4.887
   11PS8B    B4 3609  12.521   5.167   4.985
   11PS8B    B5 3610  12.431   5.052   5.029
   11PS8B    B6 3611  12.427   4.933   4.977
   11PS8B    B7 3612  12.512   4.859   4.914
   11PS8B    B8 3613  12.635   4.824   4.932
   11PS8B    B9 3614  12.713   4.814   5.034
   11PS8B   B10 3615  12.696   4.811   5.155
   11PS8B   B11 3616  12.616   4.863   5.234
   11PS8B   B12 3617  12.489   4.868   5.244
   11PS8B   B13 3618  12.391   4.804   5.190
   11PS8B   B14 3619  12.373   4.743   5.078
   11PS8B   B15 3620  12.450   4.702   4.982
   11PS8B   B16 3621  12.612   4.791   5.222
   11PS8B   B17 3622  12.594   4.738   5.145
   11PS8B   B18 3623  12.535   4.738   5.215
   11PS8B   B19 3624  12.641   4.672   5.065
   11PS8B   B20 3625  12.742   4.592   5.070
   11PS8B   B21 3626  12.804   4.529   5.164
   11PS8B   B22 3627  12.925   4.529   5.209
   11PS8B   B23 3628  12.984   4.473   5.309
   11PS8B   B24 3629  12.465   4.677   5.273
   11PS8B   B25 3630  12.428   4.662   5.395
   11PS8B   B26 3631  12.461   4.714   5.507
   11PS8B   B27 3632  12.417   4.811   5.579
   11PS8B   B28 3633  12.381   4.825   5.702
   11PS8B   B29 3634  12.428   4.581   4.893
   11PS8B   C30 3635  12.342   4.518   4.801
   11PS8B   C31 3636  12.198   4.584   4.708
   11PS8B   C32 3637  12.030   4.534   4.694
   11PS8B   C33 3638  11.965   4.379   4.644
   12PS8B    C0 3639  12.321   4.205   3.250
   12PS8B    C1 3640  12.366   4.363   3.309
   12PS8B    C2 3641  12.514   4.452   3.285
   12PS8B    C3 3642  12.606   4.577   3.386
   12PS8B    B4 3643  12.566   4.700   3.437
   12PS8B    B5 3644  12.611   4.837   3.486
   12PS8B    B6 3645  12.729   4.889   3.472
   12PS8B    B7 3646  12.825   4.875   3.387
   12PS8B    B8 3647  12.834   4.873   3.259
   12PS8B    B9 3648  12.764   4.920   3.161
   12PS8B   B10 3649  12.677   5.005   3.151
   12PS8B   B11 3650  12.583   5.044   3.223
   12PS8B   B12 3651  12.574   5.086   3.344
   12PS8B   B13 3652  12.657   5.128   3.432
   12PS8B   B14 3653  12.781   5.105   3.458
   12PS8B   B15 3654  12.880   5.049   3.396
   12PS8B   B16 3655  12.641   5.087   3.213
   12PS8B   B17 3656  12.733   5.082   3.233
   12PS8B   B18 3657  12.681   5.145   3.275
   12PS8B   B19 3658  12.837   5.063   3.190
   12PS8B   B20 3659  12.886   5.090   3.074
   12PS8B   B21 3660  12.858   5.175   2.980
   12PS8B   B22 3661  12.824   5.166   2.857
   12PS8B   B23 3662  12.787   5.251   2.766
   12PS8B   B24 3663  12.680   5.246   3.315
   12PS8B   B25 3664  12.599   5.346   3.321
   12PS8B   B26 3665  12.480   5.370   3.279
   12PS8B   B27 3666  12.363   5.362   3.330
   12PS8B   B28 3667  12.262   5.441   3.342
   12PS8B   B29 3668  13.026   5.085   3.406
   12PS8B   C30 3669  13.138   5.098   3.491
   12PS8B   C31 3670  13.163   5.037   3.663
   12PS8B   C32 3671  13.208   5.116   3.813
   12PS8B   C33 3672  13.349   5.213   3.849
    1PS8B    C0 3673  12.644   7.504  18.144
    1PS8B    C1 3674  12.493   7.416  18.126
    1PS8B    C2 3675  12.461   7.247  18.155
    1PS8B    C3 3676  12.341   7.126  18.081
    1PS8B    B4 3677  12.202   7.129  18.074
    1PS8B    B5 3678  12.075   7.047  18.060
    1PS8B    B6 3679  12.064   6.917  18.072
    1PS8B    B7 3680  12.130   6.827  18.136
    1PS8B    B8 3681  12.175   6.813  18.256
    1PS8B    B9 3682  12.143   6.861  18.372
    1PS8B   B10 3683  12.045   6.918  18.417
    1PS8B   B11 3684  11.962   6.998  18.372
    1PS8B   B12 3685  11.883   7.000  18.271
    1PS8B   B13 3686  11.840   6.912  18.187
    1PS8B   B14 3687  11.887   6.802  18.139
    1PS8B   B15 3688  11.985   6.722  18.170
    1PS8B   B16 3689  11.941   6.930  18.387
    1PS8B   B17 3690  11.965   6.844  18.353
    1PS8B   B18 3691  11.880   6.877  18.338
    1PS8B   B19 3692  12.025   6.749  18.375
    1PS8B   B20 3693  12.049   6.689  18.486
    1PS8B   B21 3694  11.994   6.686  18.603
    1PS8B   B22 3695  12.030   6.715  18.722
    1PS8B   B23 3696  11.972   6.721  18.837
    1PS8B   B24 3697  11.775   6.849  18.330
    1PS8B   B25 3698  11.660   6.896  18.363
    1PS8B   B26 3699  11.618   7.000  18.426
    1PS8B   B27 3700  11.578   7.117  18.391
    1PS8B   B28 3701  11.474   7.189  18.416
    1PS8B   B29 3702  11.990   6.572  18.150
    1PS8B   C30 3703  11.982   6.467  18.058
    1PS8B   C31 3704  11.990   6.468  17.874
    1PS8B   C32 3705  11.885   6.409  17.748
    1PS8B   C33 3706  11.823   6.246  17.723
    2PS8B    C0 3707  14.782   2.856  21.687
    2PS8B    C1 3708  14.628   2.852  21.603
    2PS8B    C2 3709  14.473   2.912  21.657
    2PS8B    C3 3710  14.298   2.860  21.624
    2PS8B    B4 3711  14.228   2.849  21.504
    2PS8B    B5 3712  14.091   2.848  21.437
    2PS8B    B6 3713  13.979   2.885  21.492
    2PS8B    B7 3714  13.946   2.966  21.585
    2PS8B    B8 3715  13.976   3.088  21.616
    2PS8B    B9 3716  14.017   3.191  21.550
    2PS8B   B10 3717  14.022   3.222  21.432
    2PS8B   B11 3718  14.040   3.160  21.326
    2PS8B   B12 3719  13.986   3.058  21.270
    2PS8B   B13 3720  13.877   2.992  21.288
    2PS8B   B14 3721  13.800   2.968  21.389
    2PS8B   B15 3722  13.788   3.016  21.509
    2PS8B   B16 3723  13.974   3.187  21.341
    2PS8B   B17 3724  13.909   3.171  21.408
    2PS8B   B18 3725  13.891   3.148  21.321
    2PS8B   B19 3726  13.863   3.213  21.504
    2PS8B   B20 3727  13.842   3.335  21.541
    2PS8B   B21 3728  13.829   3.448  21.481
    2PS8B   B22 3729  13.891   3.560  21.483
    2PS8B   B23 3730  13.883   3.670  21.415
    2PS8B   B24 3731  13.812   3.142  21.246
    2PS8B   B25 3732  13.797   3.163  21.119
    2PS8B   B26 3733  13.873   3.203  21.024
    2PS8B   B27 3734  13.946   3.145  20.936
    2PS8B   B28 3735  13.958   3.153  20.808
    2PS8B   B29 3736  13.661   3.027  21.590
    2PS8B   C30 3737  13.553   2.956  21.647
    2PS8B   C31 3738  13.531   2.776  21.677
    2PS8B   C32 3739  13.407   2.661  21.631
    2PS8B   C33 3740  13.234   2.667  21.663
    3PS8B    C0 3741  12.098   2.571  20.933
    3PS8B    C1 3742  12.255   2.580  20.855
    3PS8B    C2 3743  12.304   2.516  20.700
    3PS8B    C3 3744  12.465   2.453  20.633
    3PS8B    B4 3745  12.589   2.516  20.622
    3PS8B    B5 3746  12.723   2.519  20.549
    3PS8B    B6 3747  12.752   2.457  20.438
    3PS8B    B7 3748  12.684   2.416  20.337
    3PS8B    B8 3749  12.594   2.467  20.260
    3PS8B    B9 3750  12.561   2.587  20.224
    3PS8B   B10 3751  12.615   2.696  20.230
    3PS8B   B11 3752  12.692   2.752  20.310
    3PS8B   B12 3753  12.805   2.723  20.362
    3PS8B   B13 3754  12.897   2.637  20.337
    3PS8B   B14 3755  12.899   2.519  20.284
    3PS8B   B15 3756  12.816   2.447  20.216
    3PS8B   B16 3757  12.717   2.732  20.244
    3PS8B   B17 3758  12.728   2.649  20.200
    3PS8B   B18 3759  12.802   2.698  20.224
    3PS8B   B19 3760  12.685   2.580  20.119
    3PS8B   B20 3761  12.625   2.608  20.008
    3PS8B   B21 3762  12.623   2.710  19.929
    3PS8B   B22 3763  12.531   2.789  19.885
    3PS8B   B23 3764  12.530   2.896  19.814
    3PS8B   B24 3765  12.903   2.726  20.194
    3PS8B   B25 3766  12.979   2.829  20.196
    3PS8B   B26 3767  12.967   2.951  20.236
    3PS8B   B27 3768  12.994   3.014  20.343
    3PS8B   B28 3769  13.059   3.122  20.372
    3PS8B   B29 3770  12.851   2.345  20.109
    3PS8B   C30 3771  12.920   2.226  20.080
    3PS8B   C31 3772  12.994   2.100  20.192
    3PS8B   C32 3773  13.155   2.032  20.207
    3PS8B   C33 3774  13.251   1.950  20.086
    4PS8B    C0 3775  14.327   7.318  18.671
    4PS8B    C1 3776  14.417   7.168  18.674
    4PS8B    C2 3777  14.446   7.055  18.543
    4PS8B    C3 3778  14.473   6.872  18.536
    4PS8B    B4 3779  14.569   6.792  18.597
    4PS8B    B5 3780  14.646   6.660  18.593
    4PS8B    B6 3781  14.651   6.577  18.492
    4PS8B    B7 3782  14.639   6.589  18.365
    4PS8B    B8 3783  14.688   6.668  18.275
    4PS8B    B9 3784  14.794   6.741  18.265
    4PS8B   B10 3785  14.901   6.746  18.324
    4PS8B   B11 3786  14.937   6.728  18.441
    4PS8B   B12 3787  14.925   6.632  18.525
    4PS8B   B13 3788  14.892   6.508  18.519
    4PS8B   B14 3789  14.816   6.438  18.441
    4PS8B   B15 3790  14.759   6.458  18.326
    4PS8B   B16 3791  14.956   6.680  18.390
    4PS8B   B17 3792  14.909   6.620  18.333
    4PS8B   B18 3793  14.963   6.586  18.399
    4PS8B   B19 3794  14.873   6.604  18.225
    4PS8B   B20 3795  14.926   6.637  18.113
    4PS8B   B21 3796  15.046   6.664  18.073
    4PS8B   B22 3797  15.103   6.766  18.019
    4PS8B   B23 3798  15.225   6.796  17.988
    4PS8B   B24 3799  15.031   6.505  18.424
    4PS8B   B25 3800  15.141   6.487  18.488
    4PS8B   B26 3801  15.223   6.564  18.551
    4PS8B   B27 3802  15.238   6.598  18.674
    4PS8B   B28 3803  15.336   6.600  18.757
    4PS8B   B29 3804  14.731   6.354  18.220
    4PS8B   C30 3805  14.664   6.233  18.190
    4PS8B   C31 3806  14.533   6.143  18.282
    4PS8B   C32 3807  14.518   5.980  18.343
    4PS8B   C33 3808  14.533   5.828  18.257
    5PS8B    C0 3809  11.272   3.278  20.026
    5PS8B    C1 3810  11.407   3.302  19.917
    5PS8B    C2 3811  11.406   3.363  19.753
    5PS8B    C3 3812  11.513   3.333  19.605
    5PS8B    B4 3813  11.650   3.350  19.587
    5PS8B    B5 3814  11.762   3.373  19.487
    5PS8B    B6 3815  11.749   3.407  19.363
    5PS8B    B7 3816  11.660   3.472  19.296
    5PS8B    B8 3817  11.596   3.583  19.312
    5PS8B    B9 3818  11.618   3.693  19.375
    5PS8B   B10 3819  11.717   3.745  19.426
    5PS8B   B11 3820  11.818   3.703  19.484
    5PS8B   B12 3821  11.910   3.619  19.456
    5PS8B   B13 3822  11.950   3.560  19.348
    5PS8B   B14 3823  11.892   3.523  19.239
    5PS8B   B15 3824  11.779   3.548  19.181
    5PS8B   B16 3825  11.824   3.732  19.418
    5PS8B   B17 3826  11.792   3.710  19.331
    5PS8B   B18 3827  11.882   3.705  19.348
    5PS8B   B19 3828  11.715   3.736  19.251
    5PS8B   B20 3829  11.664   3.849  19.218
    5PS8B   B21 3830  11.700   3.973  19.229
    5PS8B   B22 3831  11.651   4.077  19.285
    5PS8B   B23 3832  11.692   4.198  19.305
    5PS8B   B24 3833  11.981   3.720  19.305
    5PS8B   B25 3834  12.096   3.765  19.341
    5PS8B   B26 3835  12.144   3.816  19.448
    5PS8B   B27 3836  12.209   3.770  19.550
    5PS8B   B28 3837  12.318   3.801  19.611
    5PS8B   B29 3838  11.753   3.553  19.032
    5PS8B   C30 3839  11.757   3.482  18.910
    5PS8B   C31 3840  11.776   3.302  18.878
    5PS8B   C32 3841  11.888   3.208  18.781
    5PS8B   C33 3842  11.924   3.222  18.611
    6PS8B    C0 3843  14.575   2.223  16.151
    6PS8B    C1 3844  14.516   2.350  16.256
    6PS8B    C2 3845  14.598   2.494  16.312
    6PS8B    C3 3846  14.585   2.596  16.466
    6PS8B    B4 3847  14.477   2.664  16.521
    6PS8B    B5 3848  14.431   2.777  16.612
    6PS8B    B6 3849  14.505   2.874  16.658
    6PS8B    B7 3850  14.612   2.933  16.617
    6PS8B    B8 3851  14.652   2.983  16.505
    6PS8B    B9 3852  14.594   3.032  16.400
    6PS8B   B10 3853  14.480   3.070  16.375
    6PS8B   B11 3854  14.366   3.037  16.411
    6PS8B   B12 3855  14.308   3.022  16.524
    6PS8B   B13 3856  14.333   3.057  16.645
    6PS8B   B14 3857  14.441   3.079  16.712
    6PS8B   B15 3858  14.566   3.096  16.683
    6PS8B   B16 3859  14.394   3.101  16.434
    6PS8B   B17 3860  14.468   3.126  16.488
    6PS8B   B18 3861  14.382   3.141  16.518
    6PS8B   B19 3862  14.574   3.169  16.486
    6PS8B   B20 3863  14.628   3.256  16.407
    6PS8B   B21 3864  14.584   3.350  16.331
    6PS8B   B22 3865  14.590   3.376  16.206
    6PS8B   B23 3866  14.538   3.465  16.128
    6PS8B   B24 3867  14.319   3.210  16.574
    6PS8B   B25 3868  14.200   3.258  16.570
    6PS8B   B26 3869  14.100   3.245  16.490
    6PS8B   B27 3870  13.995   3.171  16.487
    6PS8B   B28 3871  13.869   3.191  16.475
    6PS8B   B29 3872  14.666   3.182  16.758
    6PS8B   C30 3873  14.730   3.205  16.882
    6PS8B   C31 3874  14.741   3.100  17.032
    6PS8B   C32 3875  14.701   3.126  17.201
    6PS8B   C33 3876  14.758   3.251  17.309
    7PS8B    C0 3877  10.687   5.699  20.735
    7PS8B    C1 3878  10.828   5.781  20.800
    7PS8B    C2 3879  10.834   5.926  20.898
    7PS8B    C3 3880  10.959   6.061  20.917
    7PS8B    B4 3881  11.094   6.055  20.954
    7PS8B    B5 3882  11.211   6.132  21.013
    7PS8B    B6 3883  11.206   6.247  21.075
    7PS8B    B7 3884  11.116   6.309  21.143
    7PS8B    B8 3885  11.035   6.277  21.238
    7PS8B    B9 3886  11.033   6.188  21.332
    7PS8B   B10 3887  11.118   6.115  21.381
    7PS8B   B11 3888  11.217   6.054  21.339
    7PS8B   B12 3889  11.323   6.088  21.276
    7PS8B   B13 3890  11.382   6.199  21.249
    7PS8B   B14 3891  11.342   6.321  21.233
    7PS8B   B15 3892  11.233   6.387  21.257
    7PS8B   B16 3893  11.226   6.111  21.384
    7PS8B   B17 3894  11.207   6.204  21.379
    7PS8B   B18 3895  11.294   6.176  21.381
    7PS8B   B19 3896  11.135   6.285  21.414
    7PS8B   B20 3897  11.071   6.300  21.525
    7PS8B   B21 3898  11.088   6.256  21.646
    7PS8B   B22 3899  11.019   6.186  21.727
    7PS8B   B23 3900  11.039   6.135  21.844
    7PS8B   B24 3901  11.394   6.201  21.417
    7PS8B   B25 3902  11.497   6.141  21.466
    7PS8B   B26 3903  11.526   6.020  21.495
    7PS8B   B27 3904  11.585   5.923  21.435
    7PS8B   B28 3905  11.682   5.843  21.463
    7PS8B   B29 3906  11.222   6.533  21.295
    7PS8B   C30 3907  11.248   6.666  21.256
    7PS8B   C31 3908  11.297   6.734  21.092
    7PS8B   C32 3909  11.431   6.833  21.038
    7PS8B   C33 3910  11.483   6.990  21.096
    8PS8B    C0 3911  11.891   5.451  21.079
    8PS8B    C1 3912  11.795   5.585  21.022
    8PS8B    C2 3913  11.801   5.668  20.868
    8PS8B    C3 3914  11.766   5.841  20.815
    8PS8B    B4 3915  11.649   5.918  20.827
    8PS8B    B5 3916  11.570   6.036  20.772
    8PS8B    B6 3917  11.591   6.098  20.659
    8PS8B    B7 3918  11.643   6.065  20.546
    8PS8B    B8 3919  11.632   5.965  20.465
    8PS8B    B9 3920  11.539   5.879  20.439
    8PS8B   B10 3921  11.420   5.871  20.464
    8PS8B   B11 3922  11.347   5.905  20.558
    8PS8B   B12 3923  11.325   6.015  20.620
    8PS8B   B13 3924  11.350   6.139  20.597
    8PS8B   B14 3925  11.442   6.202  20.532
    8PS8B   B15 3926  11.533   6.170  20.447
    8PS8B   B16 3927  11.342   5.940  20.495
    8PS8B   B17 3928  11.401   5.993  20.443
    8PS8B   B18 3929  11.326   6.031  20.481
    8PS8B   B19 3930  11.467   5.994  20.350
    8PS8B   B20 3931  11.455   5.935  20.237
    8PS8B   B21 3932  11.356   5.886  20.170
    8PS8B   B22 3933  11.326   5.769  20.124
    8PS8B   B23 3934  11.223   5.719  20.066
    8PS8B   B24 3935  11.248   6.107  20.467
    8PS8B   B25 3936  11.123   6.121  20.490
    8PS8B   B26 3937  11.031   6.047  20.542
    8PS8B   B27 3938  10.980   6.034  20.659
    8PS8B   B28 3939  10.861   6.035  20.707
    8PS8B   B29 3940  11.587   6.256  20.334
    8PS8B   C30 3941  11.651   6.377  20.301
    8PS8B   C31 3942  11.740   6.498  20.406
    8PS8B   C32 3943  11.723   6.670  20.433
    8PS8B   C33 3944  11.727   6.801  20.316
    9PS8B    C0 3945  11.912   4.146  19.287
    9PS8B    C1 3946  11.954   4.311  19.246
    9PS8B    C2 3947  11.849   4.449  19.222
    9PS8B    C3 3948  11.860   4.601  19.118
    9PS8B    B4 3949  11.956   4.702  19.113
    9PS8B    B5 3950  11.986   4.847  19.077
    9PS8B    B6 3951  11.899   4.939  19.050
    9PS8B    B7 3952  11.776   4.960  19.083
    9PS8B    B8 3953  11.710   4.958  19.194
    9PS8B    B9 3954  11.738   4.974  19.319
    9PS8B   B10 3955  11.835   5.019  19.380
    9PS8B   B11 3956  11.957   5.021  19.362
    9PS8B   B12 3957  12.033   5.059  19.266
    9PS8B   B13 3958  12.019   5.131  19.161
    9PS8B   B14 3959  11.920   5.158  19.082
    9PS8B   B15 3960  11.792   5.142  19.086
    9PS8B   B16 3961  11.919   5.083  19.355
    9PS8B   B17 3962  11.850   5.114  19.298
    9PS8B   B18 3963  11.933   5.153  19.294
    9PS8B   B19 3964  11.738   5.134  19.290
    9PS8B   B20 3965  11.653   5.175  19.378
    9PS8B   B21 3966  11.662   5.241  19.489
    9PS8B   B22 3967  11.631   5.218  19.612
    9PS8B   B23 3968  11.649   5.280  19.723
    9PS8B   B24 3969  11.985   5.247  19.279
    9PS8B   B25 3970  12.088   5.310  19.325
    9PS8B   B26 3971  12.175   5.286  19.416
    9PS8B   B27 3972  12.293   5.235  19.419
    9PS8B   B28 3973  12.407   5.271  19.465
    9PS8B   B29 3974  11.686   5.231  19.024
    9PS8B   C30 3975  11.638   5.286  18.904
    9PS8B   C31 3976  11.675   5.244  18.729
    9PS8B   C32 3977  11.732   5.337  18.591
    9PS8B   C33 3978  11.663   5.481  18.520
   10PS8B    C0 3979  12.682   5.666  17.942
   10PS8B    C1 3980  12.829   5.746  17.892
   10PS8B    C2 3981  12.890   5.904  17.939
   10PS8B    C3 3982  12.994   6.030  17.854
   10PS8B    B4 3983  13.122   6.022  17.800
   10PS8B    B5 3984  13.248   6.098  17.760
   10PS8B    B6 3985  13.277   6.220  17.792
   10PS8B    B7 3986  13.247   6.298  17.889
   10PS8B    B8 3987  13.244   6.288  18.018
   10PS8B    B9 3988  13.305   6.214  18.105
   10PS8B   B10 3989  13.405   6.143  18.103
   10PS8B   B11 3990  13.459   6.070  18.019
   10PS8B   B12 3991  13.500   6.086  17.899
   10PS8B   B13 3992  13.525   6.188  17.824
   10PS8B   B14 3993  13.480   6.308  17.816
   10PS8B   B15 3994  13.407   6.385  17.892
   10PS8B   B16 3995  13.491   6.133  18.038
   10PS8B   B17 3996  13.469   6.225  18.031
   10PS8B   B18 3997  13.540   6.191  17.983
   10PS8B   B19 3998  13.431   6.316  18.089
   10PS8B   B20 3999  13.451   6.351  18.212
   10PS8B   B21 4000  13.540   6.326  18.301
   10PS8B   B22 4001  13.540   6.273  18.418
   10PS8B   B23 4002  13.631   6.239  18.503
   10PS8B   B24 4003  13.639   6.215  17.945
   10PS8B   B25 4004  13.752   6.155  17.928
   10PS8B   B26 4005  13.798   6.038  17.953
   10PS8B   B27 4006  13.811   5.930  17.886
   10PS8B   B28 4007  13.907   5.848  17.861
   10PS8B   B29 4008  13.415   6.535  17.904
   10PS8B   C30 4009  13.407   6.658  17.835
   10PS8B   C31 4010  13.340   6.697  17.668
   10PS8B   C32 4011  13.407   6.777  17.528
   10PS8B   C33 4012  13.477   6.937  17.514
   11PS8B    C0 4013  13.674   5.206  17.256
   11PS8B    C1 4014  13.526   5.126  17.205
   11PS8B    C2 4015  13.413   5.174  17.080
   11PS8B    C3 4016  13.231   5.150  17.058
   11PS8B    B4 4017  13.155   5.033  17.052
   11PS8B    B5 4018  13.025   4.969  17.004
   11PS8B    B6 4019  12.941   5.019  16.918
   11PS8B    B7 4020  12.951   5.102  16.820
   11PS8B    B8 4021  13.030   5.117  16.720
   11PS8B    B9 4022  13.106   5.038  16.651
   11PS8B   B10 4023  13.115   4.917  16.638
   11PS8B   B11 4024  13.100   4.819  16.713
   11PS8B   B12 4025  13.005   4.778  16.789
   11PS8B   B13 4026  12.880   4.805  16.801
   11PS8B   B14 4027  12.807   4.909  16.780
   11PS8B   B15 4028  12.823   5.022  16.719
   11PS8B   B16 4029  13.052   4.831  16.660
   11PS8B   B17 4030  12.990   4.901  16.639
   11PS8B   B18 4031  12.959   4.818  16.663
   11PS8B   B19 4032  12.972   4.991  16.572
   11PS8B   B20 4033  13.005   5.013  16.449
   11PS8B   B21 4034  13.035   4.939  16.348
   11PS8B   B22 4035  13.138   4.926  16.272
   11PS8B   B23 4036  13.172   4.845  16.177
   11PS8B   B24 4037  12.880   4.745  16.643
   11PS8B   B25 4038  12.867   4.617  16.633
   11PS8B   B26 4039  12.946   4.517  16.639
   11PS8B   B27 4040  12.983   4.435  16.731
   11PS8B   B28 4041  12.988   4.307  16.743
   11PS8B   B29 4042  12.717   5.103  16.647
   11PS8B   C30 4043  12.594   5.170  16.660
   11PS8B   C31 4044  12.501   5.223  16.810
   11PS8B   C32 4045  12.339   5.194  16.867
   11PS8B   C33 4046  12.186   5.227  16.788
   12PS8B    C0 4047  15.547   4.616  17.860
   12PS8B    C1 4048  15.625   4.623  17.703
   12PS8B    C2 4049  15.565   4.689  17.553
   12PS8B    C3 4050  15.593   4.648  17.375
   12PS8B    B4 4051  15.711   4.644  17.300
   12PS8B    B5 4052  15.773   4.653  17.161
   12PS8B    B6 4053  15.714   4.694  17.053
   12PS8B    B7 4054  15.617   4.774  17.028
   12PS8B    B8 4055  15.584   4.893  17.065
   12PS8B    B9 4056  15.648   4.996  17.110
   12PS8B   B10 4057  15.765   5.030  17.113
   12PS8B   B11 4058  15.873   4.970  17.124
   12PS8B   B12 4059  15.930   4.873  17.062
   12PS8B   B13 4060  15.911   4.813  16.950
   12PS8B   B14 4061  15.808   4.790  16.876
   12PS8B   B15 4062  15.686   4.835  16.871
   12PS8B   B16 4063  15.856   5.000  17.060
   12PS8B   B17 4064  15.787   4.986  16.996
   12PS8B   B18 4065  15.874   4.967  16.974
   12PS8B   B19 4066  15.688   5.028  16.956
   12PS8B   B20 4067  15.647   5.149  16.943
   12PS8B   B21 4068  15.703   5.264  16.934
   12PS8B   B22 4069  15.700   5.373  17.002
   12PS8B   B23 4070  15.764   5.485  16.998
   12PS8B   B24 4071  15.946   4.968  16.893
   12PS8B   B25 4072  16.071   4.992  16.875
   12PS8B   B26 4073  16.168   5.031  16.950
   12PS8B   B27 4074  16.261   4.972  17.016
   12PS8B   B28 4075  16.389   4.983  17.024
   12PS8B   B29 4076  15.601   4.850  16.747
   12PS8B   C30 4077  15.541   4.784  16.637
   12PS8B   C31 4078  15.516   4.604  16.606
   12PS8B   C32 4079  15.561   4.497  16.474
   12PS8B   C33 4080  15.523   4.511  16.304
   13W        W 4081   0.084   3.595   3.359
   14W        W 4082   0.460   2.488   2.882
   15W        W 4083   3.165   2.218   0.652
   16W        W 4084   3.295   3.303   2.679
   17W        W 4085   1.213   3.294   0.205
   18W        W 4086   1.296   1.446   1.188
   19W        W 4087   0.811   1.294   1.352
   20W        W 4088   1.802   2.109   0.786
   21W        W 4089   1.477   3.201   3.141
   22W        W 4090   0.126   0.762   3.104
   23W        W 4091   0.888   0.042   2.906
   24W        W 4092   2.582   0.430   1.793
   25W        W 4093   2.231   1.301   0.363
   26W        W 4094   2.801   0.735   3.454
   27W        W 4095   0.167   0.527   2.579
   28W        W 4096   0.266   3.146   3.600
   29W        W 4097   1.788   2.536   0.332
   30W        W 4098   0.220   1.319   2.025
   31W        W 4099   1.113   1.210   3.262
   32W        W 4100   3.572   1.069   1.761
   33W        W 4101   3.336   2.112   2.620
   34W        W 4102   1.644   1.445   1.647
   35W        W 4103   2.190   2.784   2.016
   36W        W 4104   0.690   2.218   2.248
   37W        W 4105   0.049   1.746   1.819
   38W        W 4106   1.085   1.718   3.011
   39W        W 4107   3.356   1.501   3.265
   40W        W 4108   0.972   2.945   1.710
   41W        W 4109   2.093   2.634   2.844
   42W        W 4110   1.313   1.274   2.069
   43W        W 4111   1.605   2.058   1.712
   44W        W 4112   2.602   2.831   3.560
   45W        W 4113   1.681   2.151   3.570
   46W        W 4114   1.662   1.867   3.048
   47W        W 4115   0.071   1.258   3.570
   48W        W 4116   2.903   2.793   3.169
   49W        W 4117   0.484   0.375   1.167
   50W        W 4118   1.011   2.633   2.166
   51W        W 4119   3.474   2.416   1.456
   52W        W 4120   2.887   0.816   2.023
   53W        W 4121   3.172   0.769   0.118
   54W        W 4122   3.637   1.570   2.424
   55W        W 4123   1.604   3.277   2.177
   56W        W 4124   3.378   2.743   0.615
   57W        W 4125   0.507   3.529   0.369
   58W        W 4126   0.900   3.575   1.045
   59W        W 4127   0.697   0.329   2.471
   60W        W 4128   3.320   1.347   2.746
   61W        W 4129   2.725   1.769   1.205
   62W        W 4130   2.691   1.457   0.232
   63W        W 4131   1.899   2.601   2.372
   64W        W 4132   1.705   0.931   1.571
   65W        W 4133   2.305   3.018   2.565
   66W        W 4134   3.176   1.809   0.987
   67W        W 4135   2.078   0.467   1.003
   68W        W 4136   0.735   3.161   0.686
   69W        W 4137   0.106   0.660   1.285
   70W        W 4138   2.892   1.267   1.759
   71W        W 4139   0.350   2.884   1.674
   72W        W 4140   1.691   3.234   0.544
   73W        W 4141   3.083   1.260   0.008
   74W        W 4142   0.106   3.018   2.172
   75W        W 4143   0.897   2.590   2.652
   76W        W 4144   1.270   1.950   1.271
   77W        W 4145   1.292   0.355   2.364
   78W        W 4146   3.521   0.117   1.661
   79W        W 4147   0.740   1.989   0.129
   80W        W 4148   0.395   1.022   0.308
   81W        W 4149   0.457   2.978   1.102
   82W        W 4150   1.588   2.461   1.350
   83W        W 4151   2.920   3.320   3.064
   84W        W 4152   1.846   0.962   0.748
   85W        W 4153   3.229   3.360   1.520
   86W        W 4154   2.906   1.213   3.118
   87W        W 4155   3.619   2.869   1.252
   88W        W 4156   2.246   2.161   2.736
   89W        W 4157   0.012   1.712   0.942
   90W        W 4158   1.123   2.127   2.515
   91W        W 4159   2.327   1.391   0.893
   92W        W 4160   2.204   1.881   0.997
   93W        W 4161   0.547   1.301   2.471
   94W        W 4162   0.532   1.177   3.393
   95W        W 4163   0.422   0.094   1.552
   96W        W 4164   2.190   0.441   2.113
   97W        W 4165   1.838   0.626   3.276
   98W        W 4166   2.193   0.775   0.454
   99W        W 4167   3.376   3.168   3.208
  100W        W 4168   2.343   0.249   3.247
  101W        W 4169   3.362   2.550   3.369
  102W        W 4170   2.792   0.717   2.965
  103W        W 4171   2.592   0.655   1.235
  104W        W 4172   2.985   1.789   3.639
  105W        W 4173   0.725   3.365   1.625
  106W        W 4174   1.383   1.082   0.611
  107W        W 4175   0.952   0.366   3.275
  108W        W 4176   3.004   0.850   0.956
  109W        W 4177   3.371   1.332   0.901
  110W        W 4178   1.114   3.549   3.372
  111W        W 4179   1.040   0.085   0.607
  112W        W 4180   3.361   0.619   1.642
  113W        W 4181   3.511   2.868   0.087
  114W        W 4182   0.418   2.071   1.789
  115W        W 4183   2.335   0.658   0.019
  116W        W 4184   3.469   2.990   1.739
  117W        W 4185   3.508   0.184   2.489
  118W        W 4186   1.953   1.396   3.043
  119W        W 4187   2.046   2.735   0.746
  120W        W 4188   2.446   2.029   3.486
  121W        W 4189   2.120   0.006   1.795
  122W        W 4190   0.732   0.909   1.858
  123W        W 4191   0.286   2.109   2.632
  124W        W 4192   2.145   3.302   1.338
  125W        W 4193   3.339   0.899   2.210
  126W        W 4194   1.976   3.246   2.977
  127W        W 4195   3.319   2.305   0.182
  128W        W 4196   1.754   1.788   1.243
  129W        W 4197   3.606   0.299   2.984
  130W        W 4198   1.755   2.134   2.578
  131W        W 4199   1.972   1.020   2.023
  132W        W 4200   2.824   1.318   0.861
  133W        W 4201   3.111   1.051   0.503
  134W        W 4202   2.920   3.091   0.892
  135W        W 4203   2.754   2.694   1.688
  136W        W 4204   2.650   1.773   0.666
  137W        W 4205   2.083   1.983   1.652
  138W        W 4206   2.964   1.771   1.719
  139W        W 4207   0.339   0.786   2.143
  140W        W 4208   3.117   1.838   2.970
  141W        W 4209   3.468   3.456   2.116
  142W        W 4210   1.398   2.900   1.518
  143W        W 4211   2.405   3.433   2.842
  144W        W 4212   2.399   0.763   2.606
  145W        W 4213   1.606   3.471   2.667
  146W        W 4214   3.303   0.425   1.133
  147W        W 4215   3.094   1.744   2.434
  148W        W 4216   0.077   1.065   2.472
  149W        W 4217   2.937   0.860   1.490
  150W        W 4218   3.348   1.011   3.267
  151W        W 4219   2.233   2.710   1.485
  152W        W 4220   1.489   3.301   1.098
  153W        W 4221   0.604   0.481   0.356
  154W        W 4222   1.708   0.135   2.166
  155W        W 4223   0.736   3.255   0.014
  156W        W 4224   1.110   1.721   0.765
  157W        W 4225   1.764   2.350   3.078
  158W        W 4226   1.594   0.708   1.068
  159W        W 4227   2.950   0.305   1.496
  160W        W 4228   2.670   3.587   1.824
  161W        W 4229   2.082   3.235   2.164
  162W        W 4230   1.478   2.272   2.125
  163W        W 4231   3.248   2.995   2.251
  164W        W 4232   0.942   0.498   1.020
  165W        W 4233   1.464   2.795   1.980
  166W        W 4234   0.947   0.726   0.045
  167W        W 4235   1.748   1.335   2.439
  168W        W 4236   2.596   0.201   2.309
  169W        W 4237   0.016   2.044   2.194
  170W        W 4238   1.720   1.862   0.352
  171W        W 4239   0.988   0.177   0.122
  172W        W 4240   1.726   1.258   1.173
  173W        W 4241   2.696   0.234   2.872
  174W        W 4242   1.284   2.246   2.981
  175W        W 4243   2.088   2.028   3.198
  176W        W 4244   2.705   2.058   3.091
  177W        W 4245   1.989   0.198   3.596
  178W        W 4246   1.211   0.814   1.989
  179W        W 4247   0.637   0.770   1.387
  180W        W 4248   0.423   3.482   1.063
  181W        W 4249   1.755   2.812   3.188
  182W        W 4250   0.790   2.297   0.547
  183W        W 4251   2.470   1.682   1.768
  184W        W 4252   2.750   1.481   2.167
  185W        W 4253   1.955   2.155   2.101
  186W        W 4254   2.425   2.529   0.233
  187W        W 4255   2.097   0.550   1.561
  188W        W 4256   3.576   0.828   0.829
  189W        W 4257   0.070   3.417   2.860
  190W        W 4258   0.487   2.643   2.392
  191W        W 4259   0.054   3.489   0.624
  192W        W 4260   1.953   0.759   2.430
  193W        W 4261   1.316   2.782   0.279
  194W        W 4262   3.221   3.164   0.465
  195W        W 4263   2.196   1.817   0.479
  196W        W 4264   1.039   1.008   0.996
  197W        W 4265   1.871   0.918   0.048
  198W        W 4266   2.455   2.483   3.226
  199W        W 4267   2.808   0.389   0.843
  200W        W 4268   0.138   0.237   0.291
  201W        W 4269   1.424   2.556   2.581
  202W        W 4270   1.223   2.472   1.673
  203W        W 4271   0.965   2.424   0.071
  204W        W 4272   0.206   2.665   0.839
  205W        W 4273   0.710   1.735   3.281
  206W        W 4274   1.414   0.295   3.467
  207W        W 4275   2.123   0.437   2.823
  208W        W 4276   1.318   0.205   1.104
  209W        W 4277   2.377   0.282   0.609
  210W        W 4278   0.322   0.214   2.186
  211W        W 4279   0.370   1.177   1.556
  212W        W 4280   3.059   0.285   1.962
  213W        W 4281   0.481   0.783   0.776
  214W        W 4282   3.052   0.471   2.392
  215W        W 4283   3.448   1.674   0.077
  216W        W 4284   0.740   0.432   1.896
  217W        W 4285   1.854   1.004   2.836
  218W        W 4286   0.002   0.694   0.314
  219W        W 4287   0.788   2.083   2.875
  220W        W 4288   2.146   1.481   2.054
  221W        W 4289   2.013   3.560   0.350
  222W        W 4290   0.159   2.067   0.047
  223W        W 4291   0.894   2.478   3.173
  224W        W 4292   0.415   1.645   2.804
  225W        W 4293   1.406   1.750   2.598
  226W        W 4294   3.174   0.109   2.860
  227W        W 4295   3.572   1.719   2.851
  228W        W 4296   3.560   1.919   0.537
  229W        W 4297   2.423   2.251   0.636
  230W        W 4298   2.897   3.551   0.331
  231W        W 4299   2.074   1.541   3.473
  232W        W 4300   0.404   2.508   3.513
  233W        W 4301   3.610   0.430   3.465
  234W        W 4302   3.328   1.358   2.086
  235W        W 4303   1.636   3.488   3.563
  236W        W 4304   1.491   0.117   0.290
  237W        W 4305   3.030   2.716   0.233
  238W        W 4306   0.799   0.809   3.119
  239W        W 4307   1.233   2.803   2.981
  240W        W 4308   3.359   0.794   2.779
  241W        W 4309   2.570   3.453   0.747
  242W        W 4310   2.809   2.072   2.114
  243W        W 4311   1.059   0.488   2.781
  244W        W 4312   1.528   1.557   3.538
  245W        W 4313   1.031   2.736   0.732
  246W        W 4314   2.786   2.234   0.996
  247W        W 4315   0.554   0.860   2.720
  248W        W 4316   1.883   2.922   1.184
  249W        W 4317   3.633   1.482   1.365
  250W        W 4318   1.855   0.115   3.084
  251W        W 4319   2.635   2.820   2.163
  252W        W 4320   2.938   3.164   1.871
  253W        W 4321   2.157   2.966   0.299
  254W        W 4322   0.167   2.858   3.141
  255W        W 4323   0.910   0.850   2.379
  256W        W 4324   0.880   0.198   1.489
  257W        W 4325   2.501   1.040   2.181
  258W        W 4326   1.299   2.211   0.381
  259W        W 4327   3.297   2.153   1.880
  260W        W 4328   0.624   2.911   3.303
  261W        W 4329   3.011   3.593   1.100
  262W        W 4330   1.110   0.613   1.545
  263W        W 4331   0.879   2.106   1.635
  264W        W 4332   1.192   3.517   2.385
  265W        W 4333   3.259   3.613   3.417
  266W        W 4334   2.418   1.801   2.350
  267W        W 4335   0.267   1.599   0.265
  268W        W 4336   3.401   3.257   0.962
  269W        W 4337   3.238   0.581   0.581
  270W        W 4338   1.377   0.100   2.984
  271W        W 4339   3.083   2.902   1.442
  272W        W 4340   3.112   1.458   1.347
  273W        W 4341   1.229   1.131   1.563
  274W        W 4342   1.474   1.393   2.887
  275W        W 4343   2.585   2.546   2.750
  276W        W 4344   1.235   1.000   2.862
  277W        W 4345   1.214   3.466   1.478
  278W        W 4346   0.531   3.425   3.112
  279W        W 4347   0.643   2.786   0.242
  280W        W 4348   3.160   2.544   1.052
  281W        W 4349   0.764   1.336   2.938
  282W        W 4350   3.537   1.266   0.419
  283W        W 4351   1.282   2.323   0.890
  284W        W 4352   2.381   1.705   2.971
  285W        W 4353   2.272   1.333   2.515
  286W        W 4354   0.832   1.705   2.544
  287W        W 4355   3.042   3.593   2.373
  288W        W 4356   2.833   0.227   3.367
  289W        W 4357   0.497   0.377   2.954
  290W        W 4358   0.836   1.400   2.007
  291W        W 4359   1.205   1.214   0.129
  292W        W 4360   0.008   2.973   2.674
  293W        W 4361   1.593   1.682   2.117
  294W        W 4362   1.416   0.707   0.222
  295W        W 4363   0.551   1.523   1.003
  296W        W 4364   0.322   3.375   2.440
  297W        W 4365   3.117   1.601   0.548
  298W        W 4366   3.212   0.517   3.234
  299W        W 4367   2.648   2.726   1.197
  300W        W 4368   0.246   1.650   3.374
  301W        W 4369   3.212   0.114   0.670
  302W        W 4370   2.732   2.589   0.681
  303W        W 4371   1.634   1.647   0.766
  304W        W 4372   2.821   0.451   0.289
  305W        W 4373   2.886   1.058   2.475
  306W        W 4374   0.595   1.651   1.682
  307W        W 4375   0.889   2.590   1.331
  308W        W 4376   2.652   1.210   1.296
  309W        W 4377   1.675   0.589   1.992
  310W        W 4378   3.637   2.500   2.503
  311W        W 4379   3.555   0.487   2.064
  312W        W 4380   0.094   3.317   1.440
  313W        W 4381   0.603   2.504   0.976
  314W        W 4382   0.518   0.121   3.529
  315W        W 4383   1.637   2.974   3.631
  316W        W 4384   3.392   1.942   1.421
  317W        W 4385   2.746   2.119   0.301
  318W        W 4386   2.041   3.640   2.513
  319W        W 4387   2.898   2.362   3.550
  320W        W 4388   1.713   0.072   0.830
  321W        W 4389   2.426   0.941   1.689
  322W        W 4390   0.112   2.528   2.021
  323W        W 4391   1.365   0.490   0.662
  324W        W 4392   1.169   1.974   3.511
  325W        W 4393   2.163   0.955   1.225
  326W        W 4394   2.368   2.365   2.347
  327W        W 4395   0.522   2.970   2.782
  328W        W 4396   1.113   2.953   3.505
  329W        W 4397   0.964   0.750   0.519
  330W        W 4398   2.481   0.892   0.844
  331W        W 4399   2.439   3.000   3.081
  332W        W 4400   1.124   1.592   1.680
  333W        W 4401   0.779   3.290   2.545
  334W        W 4402   3.524   3.407   0.146
  335W        W 4403   0.387   2.079   3.142
  336W        W 4404   2.382   2.341   1.830
  337W        W 4405   0.818   1.990   1.072
  338W        W 4406   1.189   2.997   2.467
  339W        W 4407   1.567   0.416   1.508
  340W        W 4408   0.178   2.400   0.438
  341W        W 4409   1.697   1.351   0.308
  342W        W 4410   0.343   1.900   1.327
  343W        W 4411   1.633   0.542   2.791
  344W        W 4412   3.305   0.251   0.218
  345W        W 4413   3.398   1.997   3.317
  346W        W 4414   2.052   3.254   3.469
  347W        W 4415   3.610   2.348   2.991
  348W        W 4416   3.018   3.146   3.602
  349W        W 4417   0.757   3.602   2.080
  350W        W 4418   3.616   2.224   0.954
  351W        W 4419   2.146   1.491   1.467
  352W        W 4420   1.913   0.103   1.357
  353W        W 4421   0.972   3.087   1.194
  354W        W 4422   1.471   0.828   2.419
  355W        W 4423   1.171   0.197   1.888
  356W        W 4424   0.234   3.019   0.436
  357W        W 4425   2.050   2.383   1.154
  358W        W 4426   0.925   3.178   3.033
  359W        W 4427   0.402   2.001   0.729
  360W        W 4428   0.287   0.544   1.728
  361W        W 4429   1.835   2.509   1.785
  362W        W 4430   0.087   0.363   0.805
  363W        W 4431   2.751   1.569   2.732
  364W        W 4432   2.628   0.955   0.304
  365W        W 4433   3.145   2.627   1.952
  366W        W 4434   1.806   3.111   1.783
  367W        W 4435   1.218   3.215   0.694
  368W        W 4436   2.500   0.118   0.124
  369W        W 4437   0.300   3.378   1.865
  370W        W 4438   2.497   1.136   3.500
  371W        W 4439   0.480   0.666   3.499
  372W        W 4440   0.211   1.266   0.832
  373W        W 4441   0.902   1.255   0.557
  374W        W 4442   2.665   1.582   3.374
  375W        W 4443   1.008   1.863   2.083
  376W        W 4444   2.482   0.149   1.203
  377W        W 4445   1.613   3.580   1.706
  378W        W 4446   2.827   3.042   2.643
  379W        W 4447   2.411   3.191   1.754
  380W        W 4448   2.430   2.171   1.348
  381W        W 4449   1.892   0.396   0.419
  382W        W 4450   3.573   0.024   1.141
  383W        W 4451   1.261   1.659   0.304
  384W        W 4452   3.427   0.996   1.294
  385W        W 4453   2.119   2.166   0.171
  386W        W 4454   3.055   2.366   2.919
  387W        W 4455   2.709   3.067   0.386
  388W        W 4456   1.324   0.742   3.292
  389W        W 4457   1.144   1.326   2.533
  390W        W 4458   3.236   2.821   2.810
  391W        W 4459   2.336   0.771   3.187
  392W        W 4460   0.180   1.242   2.964
  393W        W 4461   1.940   1.719   2.690
  394W        W 4462   0.297   2.477   1.347
  395W        W 4463   0.444   1.774   2.237
  396W        W 4464   2.761   2.060   2.587
  397W        W 4465   2.533   3.440   3.398
  398W        W 4466   2.429   1.179   2.951
  399W        W 4467   2.706   3.233   1.356
  400W        W 4468   1.708   2.953   2.679
  401W        W 4469   1.193   3.308   1.948
  402W        W 4470   2.998   2.479   2.367
  403W        W 4471   2.048   2.551   3.504
  404W        W 4472   0.653   2.504   1.843
  405W        W 4473   2.999   2.263   1.488
  406W        W 4474   2.640   3.329   2.239
  407W        W 4475   0.618   3.058   2.109
  408W        W 4476   1.639   1.110   3.319
  409W        W 4477   2.090   3.276   0.830
  410W        W 4478   1.398   2.531   3.468
  411W        W 4479   1.524   2.769   0.845
  412W        W 4480   0.745   1.509   0.104
  413W        W 4481   0.084   3.595   7.003
  414W        W 4482   0.460   2.488   6.526
  415W        W 4483   3.165   2.218   4.296
  416W        W 4484   3.295   3.303   6.323
  417W        W 4485   1.213   3.294   3.849
  418W        W 4486   1.296   1.446   4.832
  419W        W 4487   0.811   1.294   4.996
  420W        W 4488   1.802   2.109   4.430
  421W        W 4489   1.477   3.201   6.785
  422W        W 4490   0.126   0.762   6.748
  423W        W 4491   0.888   0.042   6.550
  424W        W 4492   2.582   0.430   5.437
  425W        W 4493   2.231   1.301   4.007
  426W        W 4494   2.801   0.735   7.098
  427W        W 4495   0.167   0.527   6.223
  428W        W 4496   0.266   3.146   7.244
  429W        W 4497   1.788   2.536   3.976
  430W        W 4498   0.220   1.319   5.669
  431W        W 4499   1.113   1.210   6.906
  432W        W 4500   3.572   1.069   5.405
  433W        W 4501   3.336   2.112   6.264
  434W        W 4502   1.644   1.445   5.291
  435W        W 4503   2.190   2.784   5.660
  436W        W 4504   0.690   2.218   5.892
  437W        W 4505   0.049   1.746   5.463
  438W        W 4506   1.085   1.718   6.655
  439W        W 4507   3.356   1.501   6.909
  440W        W 4508   0.972   2.945   5.354
  441W        W 4509   2.093   2.634   6.488
  442W        W 4510   1.313   1.274   5.713
  443W        W 4511   1.605   2.058   5.356
  444W        W 4512   2.602   2.831   7.204
  445W        W 4513   1.681   2.151   7.214
  446W        W 4514   1.662   1.867   6.692
  447W        W 4515   0.071   1.258   7.214
  448W        W 4516   2.903   2.793   6.813
  449W        W 4517   0.484   0.375   4.811
  450W        W 4518   1.011   2.633   5.810
  451W        W 4519   3.474   2.416   5.100
  452W        W 4520   2.887   0.816   5.667
  453W        W 4521   3.172   0.769   3.762
  454W        W 4522   3.637   1.570   6.068
  455W        W 4523   1.604   3.277   5.821
  456W        W 4524   3.378   2.743   4.259
  457W        W 4525   0.507   3.529   4.013
  458W        W 4526   0.900   3.575   4.689
  459W        W 4527   0.697   0.329   6.115
  460W        W 4528   3.320   1.347   6.390
  461W        W 4529   2.725   1.769   4.849
  462W        W 4530   2.691   1.457   3.876
  463W        W 4531   1.899   2.601   6.016
  464W        W 4532   1.705   0.931   5.215
  465W        W 4533   2.305   3.018   6.209
  466W        W 4534   3.176   1.809   4.631
  467W        W 4535   2.078   0.467   4.647
  468W        W 4536   0.735   3.161   4.330
  469W        W 4537   0.106   0.660   4.929
  470W        W 4538   2.892   1.267   5.403
  471W        W 4539   0.350   2.884   5.318
  472W        W 4540   1.691   3.234   4.188
  473W        W 4541   3.083   1.260   3.652
  474W        W 4542   0.106   3.018   5.816
  475W        W 4543   0.897   2.590   6.296
  476W        W 4544   1.270   1.950   4.915
  477W        W 4545   1.292   0.355   6.008
  478W        W 4546   3.521   0.117   5.305
  479W        W 4547   0.740   1.989   3.773
  480W        W 4548   0.395   1.022   3.952
  481W        W 4549   0.457   2.978   4.746
  482W        W 4550   1.588   2.461   4.994
  483W        W 4551   2.920   3.320   6.708
  484W        W 4552   1.846   0.962   4.392
  485W        W 4553   3.229   3.360   5.164
  486W        W 4554   2.906   1.213   6.762
  487W        W 4555   3.619   2.869   4.896
  488W        W 4556   2.246   2.161   6.380
  489W        W 4557   0.012   1.712   4.586
  490W        W 4558   1.123   2.127   6.159
  491W        W 4559   2.327   1.391   4.537
  492W        W 4560   2.204   1.881   4.641
  493W        W 4561   0.547   1.301   6.115
  494W        W 4562   0.532   1.177   7.037
  495W        W 4563   0.422   0.094   5.196
  496W        W 4564   2.190   0.441   5.757
  497W        W 4565   1.838   0.626   6.920
  498W        W 4566   2.193   0.775   4.098
  499W        W 4567   3.376   3.168   6.852
  500W        W 4568   2.343   0.249   6.891
  501W        W 4569   3.362   2.550   7.013
  502W        W 4570   2.792   0.717   6.609
  503W        W 4571   2.592   0.655   4.879
  504W        W 4572   2.985   1.789   7.283
  505W        W 4573   0.725   3.365   5.269
  506W        W 4574   1.383   1.082   4.255
  507W        W 4575   0.952   0.366   6.919
  508W        W 4576   3.004   0.850   4.600
  509W        W 4577   3.371   1.332   4.545
  510W        W 4578   1.114   3.549   7.016
  511W        W 4579   1.040   0.085   4.251
  512W        W 4580   3.361   0.619   5.286
  513W        W 4581   3.511   2.868   3.731
  514W        W 4582   0.418   2.071   5.433
  515W        W 4583   2.335   0.658   3.663
  516W        W 4584   3.469   2.990   5.383
  517W        W 4585   3.508   0.184   6.133
  518W        W 4586   1.953   1.396   6.687
  519W        W 4587   2.046   2.735   4.390
  520W        W 4588   2.446   2.029   7.130
  521W        W 4589   2.120   0.006   5.439
  522W        W 4590   0.732   0.909   5.502
  523W        W 4591   0.286   2.109   6.276
  524W        W 4592   2.145   3.302   4.982
  525W        W 4593   3.339   0.899   5.854
  526W        W 4594   1.976   3.246   6.621
  527W        W 4595   3.319   2.305   3.826
  528W        W 4596   1.754   1.788   4.887
  529W        W 4597   3.606   0.299   6.628
  530W        W 4598   1.755   2.134   6.222
  531W        W 4599   1.972   1.020   5.667
  532W        W 4600   2.824   1.318   4.505
  533W        W 4601   3.111   1.051   4.147
  534W        W 4602   2.920   3.091   4.536
  535W        W 4603   2.754   2.694   5.332
  536W        W 4604   2.650   1.773   4.310
  537W        W 4605   2.083   1.983   5.296
  538W        W 4606   2.964   1.771   5.363
  539W        W 4607   0.339   0.786   5.787
  540W        W 4608   3.117   1.838   6.614
  541W        W 4609   3.468   3.456   5.760
  542W        W 4610   1.398   2.900   5.162
  543W        W 4611   2.405   3.433   6.486
  544W        W 4612   2.399   0.763   6.250
  545W        W 4613   1.606   3.471   6.311
  546W        W 4614   3.303   0.425   4.777
  547W        W 4615   3.094   1.744   6.078
  548W        W 4616   0.077   1.065   6.116
  549W        W 4617   2.937   0.860   5.134
  550W        W 4618   3.348   1.011   6.911
  551W        W 4619   2.233   2.710   5.129
  552W        W 4620   1.489   3.301   4.742
  553W        W 4621   0.604   0.481   4.000
  554W        W 4622   1.708   0.135   5.810
  555W        W 4623   0.736   3.255   3.658
  556W        W 4624   1.110   1.721   4.409
  557W        W 4625   1.764   2.350   6.722
  558W        W 4626   1.594   0.708   4.712
  559W        W 4627   2.950   0.305   5.140
  560W        W 4628   2.670   3.587   5.468
  561W        W 4629   2.082   3.235   5.808
  562W        W 4630   1.478   2.272   5.769
  563W        W 4631   3.248   2.995   5.895
  564W        W 4632   0.942   0.498   4.664
  565W        W 4633   1.464   2.795   5.624
  566W        W 4634   0.947   0.726   3.689
  567W        W 4635   1.748   1.335   6.083
  568W        W 4636   2.596   0.201   5.953
  569W        W 4637   0.016   2.044   5.838
  570W        W 4638   1.720   1.862   3.996
  571W        W 4639   0.988   0.177   3.766
  572W        W 4640   1.726   1.258   4.817
  573W        W 4641   2.696   0.234   6.516
  574W        W 4642   1.284   2.246   6.625
  575W        W 4643   2.088   2.028   6.842
  576W        W 4644   2.705   2.058   6.735
  577W        W 4645   1.989   0.198   7.240
  578W        W 4646   1.211   0.814   5.633
  579W        W 4647   0.637   0.770   5.031
  580W        W 4648   0.423   3.482   4.707
  581W        W 4649   1.755   2.812   6.832
  582W        W 4650   0.790   2.297   4.191
  583W        W 4651   2.470   1.682   5.412
  584W        W 4652   2.750   1.481   5.811
  585W        W 4653   1.955   2.155   5.745
  586W        W 4654   2.425   2.529   3.877
  587W        W 4655   2.097   0.550   5.205
  588W        W 4656   3.576   0.828   4.473
  589W        W 4657   0.070   3.417   6.504
  590W        W 4658   0.487   2.643   6.036
  591W        W 4659   0.054   3.489   4.268
  592W        W 4660   1.953   0.759   6.074
  593W        W 4661   1.316   2.782   3.923
  594W        W 4662   3.221   3.164   4.109
  595W        W 4663   2.196   1.817   4.123
  596W        W 4664   1.039   1.008   4.640
  597W        W 4665   1.871   0.918   3.692
  598W        W 4666   2.455   2.483   6.870
  599W        W 4667   2.808   0.389   4.487
  600W        W 4668   0.138   0.237   3.935
  601W        W 4669   1.424   2.556   6.225
  602W        W 4670   1.223   2.472   5.317
  603W        W 4671   0.965   2.424   3.715
  604W        W 4672   0.206   2.665   4.483
  605W        W 4673   0.710   1.735   6.925
  606W        W 4674   1.414   0.295   7.111
  607W        W 4675   2.123   0.437   6.467
  608W        W 4676   1.318   0.205   4.748
  609W        W 4677   2.377   0.282   4.253
  610W        W 4678   0.322   0.214   5.830
  611W        W 4679   0.370   1.177   5.200
  612W        W 4680   3.059   0.285   5.606
  613W        W 4681   0.481   0.783   4.420
  614W        W 4682   3.052   0.471   6.036
  615W        W 4683   3.448   1.674   3.721
  616W        W 4684   0.740   0.432   5.540
  617W        W 4685   1.854   1.004   6.480
  618W        W 4686   0.002   0.694   3.958
  619W        W 4687   0.788   2.083   6.519
  620W        W 4688   2.146   1.481   5.698
  621W        W 4689   2.013   3.560   3.994
  622W        W 4690   0.159   2.067   3.691
  623W        W 4691   0.894   2.478   6.817
  624W        W 4692   0.415   1.645   6.448
  625W        W 4693   1.406   1.750   6.242
  626W        W 4694   3.174   0.109   6.504
  627W        W 4695   3.572   1.719   6.495
  628W        W 4696   3.560   1.919   4.181
  629W        W 4697   2.423   2.251   4.280
  630W        W 4698   2.897   3.551   3.975
  631W        W 4699   2.074   1.541   7.117
  632W        W 4700   0.404   2.508   7.157
  633W        W 4701   3.610   0.430   7.109
  634W        W 4702   3.328   1.358   5.730
  635W        W 4703   1.636   3.488   7.207
  636W        W 4704   1.491   0.117   3.934
  637W        W 4705   3.030   2.716   3.877
  638W        W 4706   0.799   0.809   6.763
  639W        W 4707   1.233   2.803   6.625
  640W        W 4708   3.359   0.794   6.423
  641W        W 4709   2.570   3.453   4.391
  642W        W 4710   2.809   2.072   5.758
  643W        W 4711   1.059   0.488   6.425
  644W        W 4712   1.528   1.557   7.182
  645W        W 4713   1.031   2.736   4.376
  646W        W 4714   2.786   2.234   4.640
  647W        W 4715   0.554   0.860   6.364
  648W        W 4716   1.883   2.922   4.828
  649W        W 4717   3.633   1.482   5.009
  650W        W 4718   1.855   0.115   6.728
  651W        W 4719   2.635   2.820   5.807
  652W        W 4720   2.938   3.164   5.515
  653W        W 4721   2.157   2.966   3.943
  654W        W 4722   0.167   2.858   6.785
  655W        W 4723   0.910   0.850   6.023
  656W        W 4724   0.880   0.198   5.133
  657W        W 4725   2.501   1.040   5.825
  658W        W 4726   1.299   2.211   4.025
  659W        W 4727   3.297   2.153   5.524
  660W        W 4728   0.624   2.911   6.947
  661W        W 4729   3.011   3.593   4.744
  662W        W 4730   1.110   0.613   5.189
  663W        W 4731   0.879   2.106   5.279
  664W        W 4732   1.192   3.517   6.029
  665W        W 4733   3.259   3.613   7.061
  666W        W 4734   2.418   1.801   5.994
  667W        W 4735   0.267   1.599   3.909
  668W        W 4736   3.401   3.257   4.606
  669W        W 4737   3.238   0.581   4.225
  670W        W 4738   1.377   0.100   6.628
  671W        W 4739   3.083   2.902   5.086
  672W        W 4740   3.112   1.458   4.991
  673W        W 4741   1.229   1.131   5.207
  674W        W 4742   1.474   1.393   6.531
  675W        W 4743   2.585   2.546   6.394
  676W        W 4744   1.235   1.000   6.506
  677W        W 4745   1.214   3.466   5.122
  678W        W 4746   0.531   3.425   6.756
  679W        W 4747   0.643   2.786   3.886
  680W        W 4748   3.160   2.544   4.696
  681W        W 4749   0.764   1.336   6.582
  682W        W 4750   3.537   1.266   4.063
  683W        W 4751   1.282   2.323   4.534
  684W        W 4752   2.381   1.705   6.615
  685W        W 4753   2.272   1.333   6.159
  686W        W 4754   0.832   1.705   6.188
  687W        W 4755   3.042   3.593   6.017
  688W        W 4756   2.833   0.227   7.011
  689W        W 4757   0.497   0.377   6.598
  690W        W 4758   0.836   1.400   5.651
  691W        W 4759   1.205   1.214   3.773
  692W        W 4760   0.008   2.973   6.318
  693W        W 4761   1.593   1.682   5.761
  694W        W 4762   1.416   0.707   3.866
  695W        W 4763   0.551   1.523   4.647
  696W        W 4764   0.322   3.375   6.084
  697W        W 4765   3.117   1.601   4.192
  698W        W 4766   3.212   0.517   6.878
  699W        W 4767   2.648   2.726   4.841
  700W        W 4768   0.246   1.650   7.018
  701W        W 4769   3.212   0.114   4.314
  702W        W 4770   2.732   2.589   4.325
  703W        W 4771   1.634   1.647   4.410
  704W        W 4772   2.821   0.451   3.933
  705W        W 4773   2.886   1.058   6.119
  706W        W 4774   0.595   1.651   5.326
  707W        W 4775   0.889   2.590   4.975
  708W        W 4776   2.652   1.210   4.940
  709W        W 4777   1.675   0.589   5.636
  710W        W 4778   3.637   2.500   6.147
  711W        W 4779   3.555   0.487   5.708
  712W        W 4780   0.094   3.317   5.084
  713W        W 4781   0.603   2.504   4.620
  714W        W 4782   0.518   0.121   7.173
  715W        W 4783   1.637   2.974   7.275
  716W        W 4784   3.392   1.942   5.065
  717W        W 4785   2.746   2.119   3.945
  718W        W 4786   2.041   3.640   6.157
  719W        W 4787   2.898   2.362   7.194
  720W        W 4788   1.713   0.072   4.474
  721W        W 4789   2.426   0.941   5.333
  722W        W 4790   0.112   2.528   5.665
  723W        W 4791   1.365   0.490   4.306
  724W        W 4792   1.169   1.974   7.155
  725W        W 4793   2.163   0.955   4.869
  726W        W 4794   2.368   2.365   5.991
  727W        W 4795   0.522   2.970   6.426
  728W        W 4796   1.113   2.953   7.149
  729W        W 4797   0.964   0.750   4.163
  730W        W 4798   2.481   0.892   4.488
  731W        W 4799   2.439   3.000   6.725
  732W        W 4800   1.124   1.592   5.324
  733W        W 4801   0.779   3.290   6.189
  734W        W 4802   3.524   3.407   3.790
  735W        W 4803   0.387   2.079   6.786
  736W        W 4804   2.382   2.341   5.474
  737W        W 4805   0.818   1.990   4.716
  738W        W 4806   1.189   2.997   6.111
  739W        W 4807   1.567   0.416   5.152
  740W        W 4808   0.178   2.400   4.082
  741W        W 4809   1.697   1.351   3.952
  742W        W 4810   0.343   1.900   4.971
  743W        W 4811   1.633   0.542   6.435
  744W        W 4812   3.305   0.251   3.862
  745W        W 4813   3.398   1.997   6.961
  746W        W 4814   2.052   3.254   7.113
  747W        W 4815   3.610   2.348   6.635
  748W        W 4816   3.018   3.146   7.246
  749W        W 4817   0.757   3.602   5.724
  750W        W 4818   3.616   2.224   4.598
  751W        W 4819   2.146   1.491   5.111
  752W        W 4820   1.913   0.103   5.001
  753W        W 4821   0.972   3.087   4.838
  754W        W 4822   1.471   0.828   6.063
  755W        W 4823   1.171   0.197   5.532
  756W        W 4824   0.234   3.019   4.080
  757W        W 4825   2.050   2.383   4.798
  758W        W 4826   0.925   3.178   6.677
  759W        W 4827   0.402   2.001   4.373
  760W        W 4828   0.287   0.544   5.372
  761W        W 4829   1.835   2.509   5.429
  762W        W 4830   0.087   0.363   4.449
  763W        W 4831   2.751   1.569   6.376
  764W        W 4832   2.628   0.955   3.948
  765W        W 4833   3.145   2.627   5.596
  766W        W 4834   1.806   3.111   5.427
  767W        W 4835   1.218   3.215   4.338
  768W        W 4836   2.500   0.118   3.768
  769W        W 4837   0.300   3.378   5.509
  770W        W 4838   2.497   1.136   7.144
  771W        W 4839   0.480   0.666   7.143
  772W        W 4840   0.211   1.266   4.476
  773W        W 4841   0.902   1.255   4.201
  774W        W 4842   2.665   1.582   7.018
  775W        W 4843   1.008   1.863   5.727
  776W        W 4844   2.482   0.149   4.847
  777W        W 4845   1.613   3.580   5.350
  778W        W 4846   2.827   3.042   6.287
  779W        W 4847   2.411   3.191   5.398
  780W        W 4848   2.430   2.171   4.992
  781W        W 4849   1.892   0.396   4.063
  782W        W 4850   3.573   0.024   4.785
  783W        W 4851   1.261   1.659   3.948
  784W        W 4852   3.427   0.996   4.938
  785W        W 4853   2.119   2.166   3.815
  786W        W 4854   3.055   2.366   6.563
  787W        W 4855   2.709   3.067   4.030
  788W        W 4856   1.324   0.742   6.936
  789W        W 4857   1.144   1.326   6.177
  790W        W 4858   3.236   2.821   6.454
  791W        W 4859   2.336   0.771   6.831
  792W        W 4860   0.180   1.242   6.608
  793W        W 4861   1.940   1.719   6.334
  794W        W 4862   0.297   2.477   4.991
  795W        W 4863   0.444   1.774   5.881
  796W        W 4864   2.761   2.060   6.231
  797W        W 4865   2.533   3.440   7.042
  798W        W 4866   2.429   1.179   6.595
  799W        W 4867   2.706   3.233   5.000
  800W        W 4868   1.708   2.953   6.323
  801W        W 4869   1.193   3.308   5.592
  802W        W 4870   2.998   2.479   6.011
  803W        W 4871   2.048   2.551   7.148
  804W        W 4872   0.653   2.504   5.487
  805W        W 4873   2.999   2.263   5.132
  806W        W 4874   2.640   3.329   5.883
  807W        W 4875   0.618   3.058   5.753
  808W        W 4876   1.639   1.110   6.963
  809W        W 4877   2.090   3.276   4.474
  810W        W 4878   1.398   2.531   7.112
  811W        W 4879   1.524   2.769   4.489
  812W        W 4880   0.745   1.509   3.748
  813W        W 4881   0.084   3.595  10.648
  814W        W 4882   0.460   2.488  10.171
  815W        W 4883   3.165   2.218   7.941
  816W        W 4884   3.295   3.303   9.968
  817W        W 4885   1.213   3.294   7.494
  818W        W 4886   1.296   1.446   8.477
  819W        W 4887   0.811   1.294   8.641
  820W        W 4888   1.802   2.109   8.075
  821W        W 4889   1.477   3.201  10.430
  822W        W 4890   0.126   0.762  10.393
  823W        W 4891   0.888   0.042  10.195
  824W        W 4892   2.582   0.430   9.082
  825W        W 4893   2.231   1.301   7.652
  826W        W 4894   2.801   0.735  10.743
  827W        W 4895   0.167   0.527   9.868
  828W        W 4896   0.266   3.146  10.889
  829W        W 4897   1.788   2.536   7.621
  830W        W 4898   0.220   1.319   9.314
  831W        W 4899   1.113   1.210  10.551
  832W        W 4900   3.572   1.069   9.050
  833W        W 4901   3.336   2.112   9.909
  834W        W 4902   1.644   1.445   8.936
  835W        W 4903   2.190   2.784   9.305
  836W        W 4904   0.690   2.218   9.537
  837W        W 4905   0.049   1.746   9.108
  838W        W 4906   1.085   1.718  10.300
  839W        W 4907   3.356   1.501  10.554
  840W        W 4908   0.972   2.945   8.999
  841W        W 4909   2.093   2.634  10.133
  842W        W 4910   1.313   1.274   9.358
  843W        W 4911   1.605   2.058   9.001
  844W        W 4912   2.602   2.831  10.849
  845W        W 4913   1.681   2.151  10.859
  846W        W 4914   1.662   1.867  10.337
  847W        W 4915   0.071   1.258  10.859
  848W        W 4916   2.903   2.793  10.458
  849W        W 4917   0.484   0.375   8.456
  850W        W 4918   1.011   2.633   9.455
  851W        W 4919   3.474   2.416   8.745
  852W        W 4920   2.887   0.816   9.312
  853W        W 4921   3.172   0.769   7.407
  854W        W 4922   3.637   1.570   9.713
  855W        W 4923   1.604   3.277   9.466
  856W        W 4924   3.378   2.743   7.904
  857W        W 4925   0.507   3.529   7.658
  858W        W 4926   0.900   3.575   8.334
  859W        W 4927   0.697   0.329   9.760
  860W        W 4928   3.320   1.347  10.035
  861W        W 4929   2.725   1.769   8.494
  862W        W 4930   2.691   1.457   7.521
  863W        W 4931   1.899   2.601   9.661
  864W        W 4932   1.705   0.931   8.860
  865W        W 4933   2.305   3.018   9.854
  866W        W 4934   3.176   1.809   8.276
  867W        W 4935   2.078   0.467   8.292
  868W        W 4936   0.735   3.161   7.975
  869W        W 4937   0.106   0.660   8.574
  870W        W 4938   2.892   1.267   9.048
  871W        W 4939   0.350   2.884   8.963
  872W        W 4940   1.691   3.234   7.833
  873W        W 4941   3.083   1.260   7.297
  874W        W 4942   0.106   3.018   9.461
  875W        W 4943   0.897   2.590   9.941
  876W        W 4944   1.270   1.950   8.560
  877W        W 4945   1.292   0.355   9.653
  878W        W 4946   3.521   0.117   8.950
  879W        W 4947   0.740   1.989   7.418
  880W        W 4948   0.395   1.022   7.597
  881W        W 4949   0.457   2.978   8.391
  882W        W 4950   1.588   2.461   8.639
  883W        W 4951   2.920   3.320  10.353
  884W        W 4952   1.846   0.962   8.037
  885W        W 4953   3.229   3.360   8.809
  886W        W 4954   2.906   1.213  10.407
  887W        W 4955   3.619   2.869   8.541
  888W        W 4956   2.246   2.161  10.025
  889W        W 4957   0.012   1.712   8.231
  890W        W 4958   1.123   2.127   9.804
  891W        W 4959   2.327   1.391   8.182
  892W        W 4960   2.204   1.881   8.286
  893W        W 4961   0.547   1.301   9.760
  894W        W 4962   0.532   1.177  10.682
  895W        W 4963   0.422   0.094   8.841
  896W        W 4964   2.190   0.441   9.402
  897W        W 4965   1.838   0.626  10.565
  898W        W 4966   2.193   0.775   7.743
  899W        W 4967   3.376   3.168  10.497
  900W        W 4968   2.343   0.249  10.536
  901W        W 4969   3.362   2.550  10.658
  902W        W 4970   2.792   0.717  10.254
  903W        W 4971   2.592   0.655   8.524
  904W        W 4972   2.985   1.789  10.928
  905W        W 4973   0.725   3.365   8.914
  906W        W 4974   1.383   1.082   7.900
  907W        W 4975   0.952   0.366  10.564
  908W        W 4976   3.004   0.850   8.245
  909W        W 4977   3.371   1.332   8.190
  910W        W 4978   1.114   3.549  10.661
  911W        W 4979   1.040   0.085   7.896
  912W        W 4980   3.361   0.619   8.931
  913W        W 4981   3.511   2.868   7.376
  914W        W 4982   0.418   2.071   9.078
  915W        W 4983   2.335   0.658   7.308
  916W        W 4984   3.469   2.990   9.028
  917W        W 4985   3.508   0.184   9.778
  918W        W 4986   1.953   1.396  10.332
  919W        W 4987   2.046   2.735   8.035
  920W        W 4988   2.446   2.029  10.775
  921W        W 4989   2.120   0.006   9.084
  922W        W 4990   0.732   0.909   9.147
  923W        W 4991   0.286   2.109   9.921
  924W        W 4992   2.145   3.302   8.627
  925W        W 4993   3.339   0.899   9.499
  926W        W 4994   1.976   3.246  10.266
  927W        W 4995   3.319   2.305   7.471
  928W        W 4996   1.754   1.788   8.532
  929W        W 4997   3.606   0.299  10.273
  930W        W 4998   1.755   2.134   9.867
  931W        W 4999   1.972   1.020   9.312
  932W        W 5000   2.824   1.318   8.150
  933W        W 5001   3.111   1.051   7.792
  934W        W 5002   2.920   3.091   8.181
  935W        W 5003   2.754   2.694   8.977
  936W        W 5004   2.650   1.773   7.955
  937W        W 5005   2.083   1.983   8.941
  938W        W 5006   2.964   1.771   9.008
  939W        W 5007   0.339   0.786   9.432
  940W        W 5008   3.117   1.838  10.259
  941W        W 5009   3.468   3.456   9.405
  942W        W 5010   1.398   2.900   8.807
  943W        W 5011   2.405   3.433  10.131
  944W        W 5012   2.399   0.763   9.895
  945W        W 5013   1.606   3.471   9.956
  946W        W 5014   3.303   0.425   8.422
  947W        W 5015   3.094   1.744   9.723
  948W        W 5016   0.077   1.065   9.761
  949W        W 5017   2.937   0.860   8.779
  950W        W 5018   3.348   1.011  10.556
  951W        W 5019   2.233   2.710   8.774
  952W        W 5020   1.489   3.301   8.387
  953W        W 5021   0.604   0.481   7.645
  954W        W 5022   1.708   0.135   9.455
  955W        W 5023   0.736   3.255   7.303
  956W        W 5024   1.110   1.721   8.054
  957W        W 5025   1.764   2.350  10.367
  958W        W 5026   1.594   0.708   8.357
  959W        W 5027   2.950   0.305   8.785
  960W        W 5028   2.670   3.587   9.113
  961W        W 5029   2.082   3.235   9.453
  962W        W 5030   1.478   2.272   9.414
  963W        W 5031   3.248   2.995   9.540
  964W        W 5032   0.942   0.498   8.309
  965W        W 5033   1.464   2.795   9.269
  966W        W 5034   0.947   0.726   7.334
  967W        W 5035   1.748   1.335   9.728
  968W        W 5036   2.596   0.201   9.598
  969W        W 5037   0.016   2.044   9.483
  970W        W 5038   1.720   1.862   7.641
  971W        W 5039   0.988   0.177   7.411
  972W        W 5040   1.726   1.258   8.462
  973W        W 5041   2.696   0.234  10.161
  974W        W 5042   1.284   2.246  10.270
  975W        W 5043   2.088   2.028  10.487
  976W        W 5044   2.705   2.058  10.380
  977W        W 5045   1.989   0.198  10.885
  978W        W 5046   1.211   0.814   9.278
  979W        W 5047   0.637   0.770   8.676
  980W        W 5048   0.423   3.482   8.352
  981W        W 5049   1.755   2.812  10.477
  982W        W 5050   0.790   2.297   7.836
  983W        W 5051   2.470   1.682   9.057
  984W        W 5052   2.750   1.481   9.456
  985W        W 5053   1.955   2.155   9.390
  986W        W 5054   2.425   2.529   7.522
  987W        W 5055   2.097   0.550   8.850
  988W        W 5056   3.576   0.828   8.118
  989W        W 5057   0.070   3.417  10.149
  990W        W 5058   0.487   2.643   9.681
  991W        W 5059   0.054   3.489   7.913
  992W        W 5060   1.953   0.759   9.719
  993W        W 5061   1.316   2.782   7.568
  994W        W 5062   3.221   3.164   7.754
  995W        W 5063   2.196   1.817   7.768
  996W        W 5064   1.039   1.008   8.285
  997W        W 5065   1.871   0.918   7.337
  998W        W 5066   2.455   2.483  10.515
  999W        W 5067   2.808   0.389   8.132
 1000W        W 5068   0.138   0.237   7.580
 1001W        W 5069   1.424   2.556   9.870
 1002W        W 5070   1.223   2.472   8.962
 1003W        W 5071   0.965   2.424   7.360
 1004W        W 5072   0.206   2.665   8.128
 1005W        W 5073   0.710   1.735  10.570
 1006W        W 5074   1.414   0.295  10.756
 1007W        W 5075   2.123   0.437  10.112
 1008W        W 5076   1.318   0.205   8.393
 1009W        W 5077   2.377   0.282   7.898
 1010W        W 5078   0.322   0.214   9.475
 1011W        W 5079   0.370   1.177   8.845
 1012W        W 5080   3.059   0.285   9.251
 1013W        W 5081   0.481   0.783   8.065
 1014W        W 5082   3.052   0.471   9.681
 1015W        W 5083   3.448   1.674   7.366
 1016W        W 5084   0.740   0.432   9.185
 1017W        W 5085   1.854   1.004  10.125
 1018W        W 5086   0.002   0.694   7.603
 1019W        W 5087   0.788   2.083  10.164
 1020W        W 5088   2.146   1.481   9.343
 1021W        W 5089   2.013   3.560   7.639
 1022W        W 5090   0.159   2.067   7.336
 1023W        W 5091   0.894   2.478  10.462
 1024W        W 5092   0.415   1.645  10.093
 1025W        W 5093   1.406   1.750   9.887
 1026W        W 5094   3.174   0.109  10.149
 1027W        W 5095   3.572   1.719  10.140
 1028W        W 5096   3.560   1.919   7.826
 1029W        W 5097   2.423   2.251   7.925
 1030W        W 5098   2.897   3.551   7.620
 1031W        W 5099   2.074   1.541  10.762
 1032W        W 5100   0.404   2.508  10.802
 1033W        W 5101   3.610   0.430  10.754
 1034W        W 5102   3.328   1.358   9.375
 1035W        W 5103   1.636   3.488  10.852
 1036W        W 5104   1.491   0.117   7.579
 1037W        W 5105   3.030   2.716   7.522
 1038W        W 5106   0.799   0.809  10.408
 1039W        W 5107   1.233   2.803  10.270
 1040W        W 5108   3.359   0.794  10.068
 1041W        W 5109   2.570   3.453   8.036
 1042W        W 5110   2.809   2.072   9.403
 1043W        W 5111   1.059   0.488  10.070
 1044W        W 5112   1.528   1.557  10.827
 1045W        W 5113   1.031   2.736   8.021
 1046W        W 5114   2.786   2.234   8.285
 1047W        W 5115   0.554   0.860  10.009
 1048W        W 5116   1.883   2.922   8.473
 1049W        W 5117   3.633   1.482   8.654
 1050W        W 5118   1.855   0.115  10.373
 1051W        W 5119   2.635   2.820   9.452
 1052W        W 5120   2.938   3.164   9.160
 1053W        W 5121   2.157   2.966   7.588
 1054W        W 5122   0.167   2.858  10.430
 1055W        W 5123   0.910   0.850   9.668
 1056W        W 5124   0.880   0.198   8.778
 1057W        W 5125   2.501   1.040   9.470
 1058W        W 5126   1.299   2.211   7.670
 1059W        W 5127   3.297   2.153   9.169
 1060W        W 5128   0.624   2.911  10.592
 1061W        W 5129   3.011   3.593   8.389
 1062W        W 5130   1.110   0.613   8.834
 1063W        W 5131   0.879   2.106   8.924
 1064W        W 5132   1.192   3.517   9.674
 1065W        W 5133   3.259   3.613  10.706
 1066W        W 5134   2.418   1.801   9.639
 1067W        W 5135   0.267   1.599   7.554
 1068W        W 5136   3.401   3.257   8.251
 1069W        W 5137   3.238   0.581   7.870
 1070W        W 5138   1.377   0.100  10.273
 1071W        W 5139   3.083   2.902   8.731
 1072W        W 5140   3.112   1.458   8.636
 1073W        W 5141   1.229   1.131   8.852
 1074W        W 5142   1.474   1.393  10.176
 1075W        W 5143   2.585   2.546  10.039
 1076W        W 5144   1.235   1.000  10.151
 1077W        W 5145   1.214   3.466   8.767
 1078W        W 5146   0.531   3.425  10.401
 1079W        W 5147   0.643   2.786   7.531
 1080W        W 5148   3.160   2.544   8.341
 1081W        W 5149   0.764   1.336  10.227
 1082W        W 5150   3.537   1.266   7.708
 1083W        W 5151   1.282   2.323   8.179
 1084W        W 5152   2.381   1.705  10.260
 1085W        W 5153   2.272   1.333   9.804
 1086W        W 5154   0.832   1.705   9.833
 1087W        W 5155   3.042   3.593   9.662
 1088W        W 5156   2.833   0.227  10.656
 1089W        W 5157   0.497   0.377  10.243
 1090W        W 5158   0.836   1.400   9.296
 1091W        W 5159   1.205   1.214   7.418
 1092W        W 5160   0.008   2.973   9.963
 1093W        W 5161   1.593   1.682   9.406
 1094W        W 5162   1.416   0.707   7.511
 1095W        W 5163   0.551   1.523   8.292
 1096W        W 5164   0.322   3.375   9.729
 1097W        W 5165   3.117   1.601   7.837
 1098W        W 5166   3.212   0.517  10.523
 1099W        W 5167   2.648   2.726   8.486
 1100W        W 5168   0.246   1.650  10.663
 1101W        W 5169   3.212   0.114   7.959
 1102W        W 5170   2.732   2.589   7.970
 1103W        W 5171   1.634   1.647   8.055
 1104W        W 5172   2.821   0.451   7.578
 1105W        W 5173   2.886   1.058   9.764
 1106W        W 5174   0.595   1.651   8.971
 1107W        W 5175   0.889   2.590   8.620
 1108W        W 5176   2.652   1.210   8.585
 1109W        W 5177   1.675   0.589   9.281
 1110W        W 5178   3.637   2.500   9.792
 1111W        W 5179   3.555   0.487   9.353
 1112W        W 5180   0.094   3.317   8.729
 1113W        W 5181   0.603   2.504   8.265
 1114W        W 5182   0.518   0.121  10.818
 1115W        W 5183   1.637   2.974  10.920
 1116W        W 5184   3.392   1.942   8.710
 1117W        W 5185   2.746   2.119   7.590
 1118W        W 5186   2.041   3.640   9.802
 1119W        W 5187   2.898   2.362  10.839
 1120W        W 5188   1.713   0.072   8.119
 1121W        W 5189   2.426   0.941   8.978
 1122W        W 5190   0.112   2.528   9.310
 1123W        W 5191   1.365   0.490   7.951
 1124W        W 5192   1.169   1.974  10.800
 1125W        W 5193   2.163   0.955   8.514
 1126W        W 5194   2.368   2.365   9.636
 1127W        W 5195   0.522   2.970  10.071
 1128W        W 5196   1.113   2.953  10.794
 1129W        W 5197   0.964   0.750   7.808
 1130W        W 5198   2.481   0.892   8.133
 1131W        W 5199   2.439   3.000  10.370
 1132W        W 5200   1.124   1.592   8.969
 1133W        W 5201   0.779   3.290   9.834
 1134W        W 5202   3.524   3.407   7.435
 1135W        W 5203   0.387   2.079  10.431
 1136W        W 5204   2.382   2.341   9.119
 1137W        W 5205   0.818   1.990   8.361
 1138W        W 5206   1.189   2.997   9.756
 1139W        W 5207   1.567   0.416   8.797
 1140W        W 5208   0.178   2.400   7.727
 1141W        W 5209   1.697   1.351   7.597
 1142W        W 5210   0.343   1.900   8.616
 1143W        W 5211   1.633   0.542  10.080
 1144W        W 5212   3.305   0.251   7.507
 1145W        W 5213   3.398   1.997  10.606
 1146W        W 5214   2.052   3.254  10.758
 1147W        W 5215   3.610   2.348  10.280
 1148W        W 5216   3.018   3.146  10.891
 1149W        W 5217   0.757   3.602   9.369
 1150W        W 5218   3.616   2.224   8.243
 1151W        W 5219   2.146   1.491   8.756
 1152W        W 5220   1.913   0.103   8.646
 1153W        W 5221   0.972   3.087   8.483
 1154W        W 5222   1.471   0.828   9.708
 1155W        W 5223   1.171   0.197   9.177
 1156W        W 5224   0.234   3.019   7.725
 1157W        W 5225   2.050   2.383   8.443
 1158W        W 5226   0.925   3.178  10.322
 1159W        W 5227   0.402   2.001   8.018
 1160W        W 5228   0.287   0.544   9.017
 1161W        W 5229   1.835   2.509   9.074
 1162W        W 5230   0.087   0.363   8.094
 1163W        W 5231   2.751   1.569  10.021
 1164W        W 5232   2.628   0.955   7.593
 1165W        W 5233   3.145   2.627   9.241
 1166W        W 5234   1.806   3.111   9.072
 1167W        W 5235   1.218   3.215   7.983
 1168W        W 5236   2.500   0.118   7.413
 1169W        W 5237   0.300   3.378   9.154
 1170W        W 5238   2.497   1.136  10.789
 1171W        W 5239   0.480   0.666  10.788
 1172W        W 5240   0.211   1.266   8.121
 1173W        W 5241   0.902   1.255   7.846
 1174W        W 5242   2.665   1.582  10.663
 1175W        W 5243   1.008   1.863   9.372
 1176W        W 5244   2.482   0.149   8.492
 1177W        W 5245   1.613   3.580   8.995
 1178W        W 5246   2.827   3.042   9.932
 1179W        W 5247   2.411   3.191   9.043
 1180W        W 5248   2.430   2.171   8.637
 1181W        W 5249   1.892   0.396   7.708
 1182W        W 5250   3.573   0.024   8.430
 1183W        W 5251   1.261   1.659   7.593
 1184W        W 5252   3.427   0.996   8.583
 1185W        W 5253   2.119   2.166   7.460
 1186W        W 5254   3.055   2.366  10.208
 1187W        W 5255   2.709   3.067   7.675
 1188W        W 5256   1.324   0.742  10.581
 1189W        W 5257   1.144   1.326   9.822
 1190W        W 5258   3.236   2.821  10.099
 1191W        W 5259   2.336   0.771  10.476
 1192W        W 5260   0.180   1.242  10.253
 1193W        W 5261   1.940   1.719   9.979
 1194W        W 5262   0.297   2.477   8.636
 1195W        W 5263   0.444   1.774   9.526
 1196W        W 5264   2.761   2.060   9.876
 1197W        W 5265   2.533   3.440  10.687
 1198W        W 5266   2.429   1.179  10.240
 1199W        W 5267   2.706   3.233   8.645
 1200W        W 5268   1.708   2.953   9.968
 1201W        W 5269   1.193   3.308   9.237
 1202W        W 5270   2.998   2.479   9.656
 1203W        W 5271   2.048   2.551  10.793
 1204W        W 5272   0.653   2.504   9.132
 1205W        W 5273   2.999   2.263   8.777
 1206W        W 5274   2.640   3.329   9.528
 1207W        W 5275   0.618   3.058   9.398
 1208W        W 5276   1.639   1.110  10.608
 1209W        W 5277   2.090   3.276   8.119
 1210W        W 5278   1.398   2.531  10.757
 1211W        W 5279   1.524   2.769   8.134
 1212W        W 5280   0.745   1.509   7.393
 1213W        W 5281   0.084   3.595  14.292
 1214W        W 5282   0.460   2.488  13.815
 1215W        W 5283   3.165   2.218  11.585
 1216W        W 5284   3.295   3.303  13.612
 1217W        W 5285   1.213   3.294  11.138
 1218W        W 5286   1.296   1.446  12.121
 1219W        W 5287   0.811   1.294  12.285
 1220W        W 5288   1.802   2.109  11.719
 1221W        W 5289   1.477   3.201  14.074
 1222W        W 5290   0.126   0.762  14.037
 1223W        W 5291   0.888   0.042  13.839
 1224W        W 5292   2.582   0.430  12.726
 1225W        W 5293   2.231   1.301  11.296
 1226W        W 5294   2.801   0.735  14.387
 1227W        W 5295   0.167   0.527  13.512
 1228W        W 5296   0.266   3.146  14.533
 1229W        W 5297   1.788   2.536  11.265
 1230W        W 5298   0.220   1.319  12.958
 1231W        W 5299   1.113   1.210  14.195
 1232W        W 5300   3.572   1.069  12.694
 1233W        W 5301   3.336   2.112  13.553
 1234W        W 5302   1.644   1.445  12.580
 1235W        W 5303   2.190   2.784  12.949
 1236W        W 5304   0.690   2.218  13.181
 1237W        W 5305   0.049   1.746  12.752
 1238W        W 5306   1.085   1.718  13.944
 1239W        W 5307   3.356   1.501  14.198
 1240W        W 5308   0.972   2.945  12.643
 1241W        W 5309   2.093   2.634  13.777
 1242W        W 5310   1.313   1.274  13.002
 1243W        W 5311   1.605   2.058  12.645
 1244W        W 5312   2.602   2.831  14.493
 1245W        W 5313   1.681   2.151  14.503
 1246W        W 5314   1.662   1.867  13.981
 1247W        W 5315   0.071   1.258  14.503
 1248W        W 5316   2.903   2.793  14.102
 1249W        W 5317   0.484   0.375  12.100
 1250W        W 5318   1.011   2.633  13.099
 1251W        W 5319   3.474   2.416  12.389
 1252W        W 5320   2.887   0.816  12.956
 1253W        W 5321   3.172   0.769  11.051
 1254W        W 5322   3.637   1.570  13.357
 1255W        W 5323   1.604   3.277  13.110
 1256W        W 5324   3.378   2.743  11.548
 1257W        W 5325   0.507   3.529  11.302
 1258W        W 5326   0.900   3.575  11.978
 1259W        W 5327   0.697   0.329  13.404
 1260W        W 5328   3.320   1.347  13.679
 1261W        W 5329   2.725   1.769  12.138
 1262W        W 5330   2.691   1.457  11.165
 1263W        W 5331   1.899   2.601  13.305
 1264W        W 5332   1.705   0.931  12.504
 1265W        W 5333   2.305   3.018  13.498
 1266W        W 5334   3.176   1.809  11.920
 1267W        W 5335   2.078   0.467  11.936
 1268W        W 5336   0.735   3.161  11.619
 1269W        W 5337   0.106   0.660  12.218
 1270W        W 5338   2.892   1.267  12.692
 1271W        W 5339   0.350   2.884  12.607
 1272W        W 5340   1.691   3.234  11.477
 1273W        W 5341   3.083   1.260  10.941
 1274W        W 5342   0.106   3.018  13.105
 1275W        W 5343   0.897   2.590  13.585
 1276W        W 5344   1.270   1.950  12.204
 1277W        W 5345   1.292   0.355  13.297
 1278W        W 5346   3.521   0.117  12.594
 1279W        W 5347   0.740   1.989  11.062
 1280W        W 5348   0.395   1.022  11.241
 1281W        W 5349   0.457   2.978  12.035
 1282W        W 5350   1.588   2.461  12.283
 1283W        W 5351   2.920   3.320  13.997
 1284W        W 5352   1.846   0.962  11.681
 1285W        W 5353   3.229   3.360  12.453
 1286W        W 5354   2.906   1.213  14.051
 1287W        W 5355   3.619   2.869  12.185
 1288W        W 5356   2.246   2.161  13.669
 1289W        W 5357   0.012   1.712  11.875
 1290W        W 5358   1.123   2.127  13.448
 1291W        W 5359   2.327   1.391  11.826
 1292W        W 5360   2.204   1.881  11.930
 1293W        W 5361   0.547   1.301  13.404
 1294W        W 5362   0.532   1.177  14.326
 1295W        W 5363   0.422   0.094  12.485
 1296W        W 5364   2.190   0.441  13.046
 1297W        W 5365   1.838   0.626  14.209
 1298W        W 5366   2.193   0.775  11.387
 1299W        W 5367   3.376   3.168  14.141
 1300W        W 5368   2.343   0.249  14.180
 1301W        W 5369   3.362   2.550  14.302
 1302W        W 5370   2.792   0.717  13.898
 1303W        W 5371   2.592   0.655  12.168
 1304W        W 5372   2.985   1.789  14.572
 1305W        W 5373   0.725   3.365  12.558
 1306W        W 5374   1.383   1.082  11.544
 1307W        W 5375   0.952   0.366  14.208
 1308W        W 5376   3.004   0.850  11.889
 1309W        W 5377   3.371   1.332  11.834
 1310W        W 5378   1.114   3.549  14.305
 1311W        W 5379   1.040   0.085  11.540
 1312W        W 5380   3.361   0.619  12.575
 1313W        W 5381   3.511   2.868  11.020
 1314W        W 5382   0.418   2.071  12.722
 1315W        W 5383   2.335   0.658  10.952
 1316W        W 5384   3.469   2.990  12.672
 1317W        W 5385   3.508   0.184  13.422
 1318W        W 5386   1.953   1.396  13.976
 1319W        W 5387   2.046   2.735  11.679
 1320W        W 5388   2.446   2.029  14.419
 1321W        W 5389   2.120   0.006  12.728
 1322W        W 5390   0.732   0.909  12.791
 1323W        W 5391   0.286   2.109  13.565
 1324W        W 5392   2.145   3.302  12.271
 1325W        W 5393   3.339   0.899  13.143
 1326W        W 5394   1.976   3.246  13.910
 1327W        W 5395   3.319   2.305  11.115
 1328W        W 5396   1.754   1.788  12.176
 1329W        W 5397   3.606   0.299  13.917
 1330W        W 5398   1.755   2.134  13.511
 1331W        W 5399   1.972   1.020  12.956
 1332W        W 5400   2.824   1.318  11.794
 1333W        W 5401   3.111   1.051  11.436
 1334W        W 5402   2.920   3.091  11.825
 1335W        W 5403   2.754   2.694  12.621
 1336W        W 5404   2.650   1.773  11.599
 1337W        W 5405   2.083   1.983  12.585
 1338W        W 5406   2.964   1.771  12.652
 1339W        W 5407   0.339   0.786  13.076
 1340W        W 5408   3.117   1.838  13.903
 1341W        W 5409   3.468   3.456  13.049
 1342W        W 5410   1.398   2.900  12.451
 1343W        W 5411   2.405   3.433  13.775
 1344W        W 5412   2.399   0.763  13.539
 1345W        W 5413   1.606   3.471  13.600
 1346W        W 5414   3.303   0.425  12.066
 1347W        W 5415   3.094   1.744  13.367
 1348W        W 5416   0.077   1.065  13.405
 1349W        W 5417   2.937   0.860  12.423
 1350W        W 5418   3.348   1.011  14.200
 1351W        W 5419   2.233   2.710  12.418
 1352W        W 5420   1.489   3.301  12.031
 1353W        W 5421   0.604   0.481  11.289
 1354W        W 5422   1.708   0.135  13.099
 1355W        W 5423   0.736   3.255  10.947
 1356W        W 5424   1.110   1.721  11.698
 1357W        W 5425   1.764   2.350  14.011
 1358W        W 5426   1.594   0.708  12.001
 1359W        W 5427   2.950   0.305  12.429
 1360W        W 5428   2.670   3.587  12.757
 1361W        W 5429   2.082   3.235  13.097
 1362W        W 5430   1.478   2.272  13.058
 1363W        W 5431   3.248   2.995  13.184
 1364W        W 5432   0.942   0.498  11.953
 1365W        W 5433   1.464   2.795  12.913
 1366W        W 5434   0.947   0.726  10.978
 1367W        W 5435   1.748   1.335  13.372
 1368W        W 5436   2.596   0.201  13.242
 1369W        W 5437   0.016   2.044  13.127
 1370W        W 5438   1.720   1.862  11.285
 1371W        W 5439   0.988   0.177  11.055
 1372W        W 5440   1.726   1.258  12.106
 1373W        W 5441   2.696   0.234  13.805
 1374W        W 5442   1.284   2.246  13.914
 1375W        W 5443   2.088   2.028  14.131
 1376W        W 5444   2.705   2.058  14.024
 1377W        W 5445   1.989   0.198  14.529
 1378W        W 5446   1.211   0.814  12.922
 1379W        W 5447   0.637   0.770  12.320
 1380W        W 5448   0.423   3.482  11.996
 1381W        W 5449   1.755   2.812  14.121
 1382W        W 5450   0.790   2.297  11.480
 1383W        W 5451   2.470   1.682  12.701
 1384W        W 5452   2.750   1.481  13.100
 1385W        W 5453   1.955   2.155  13.034
 1386W        W 5454   2.425   2.529  11.166
 1387W        W 5455   2.097   0.550  12.494
 1388W        W 5456   3.576   0.828  11.762
 1389W        W 5457   0.070   3.417  13.793
 1390W        W 5458   0.487   2.643  13.325
 1391W        W 5459   0.054   3.489  11.557
 1392W        W 5460   1.953   0.759  13.363
 1393W        W 5461   1.316   2.782  11.212
 1394W        W 5462   3.221   3.164  11.398
 1395W        W 5463   2.196   1.817  11.412
 1396W        W 5464   1.039   1.008  11.929
 1397W        W 5465   1.871   0.918  10.981
 1398W        W 5466   2.455   2.483  14.159
 1399W        W 5467   2.808   0.389  11.776
 1400W        W 5468   0.138   0.237  11.224
 1401W        W 5469   1.424   2.556  13.514
 1402W        W 5470   1.223   2.472  12.606
 1403W        W 5471   0.965   2.424  11.004
 1404W        W 5472   0.206   2.665  11.772
 1405W        W 5473   0.710   1.735  14.214
 1406W        W 5474   1.414   0.295  14.400
 1407W        W 5475   2.123   0.437  13.756
 1408W        W 5476   1.318   0.205  12.037
 1409W        W 5477   2.377   0.282  11.542
 1410W        W 5478   0.322   0.214  13.119
 1411W        W 5479   0.370   1.177  12.489
 1412W        W 5480   3.059   0.285  12.895
 1413W        W 5481   0.481   0.783  11.709
 1414W        W 5482   3.052   0.471  13.325
 1415W        W 5483   3.448   1.674  11.010
 1416W        W 5484   0.740   0.432  12.829
 1417W        W 5485   1.854   1.004  13.769
 1418W        W 5486   0.002   0.694  11.247
 1419W        W 5487   0.788   2.083  13.808
 1420W        W 5488   2.146   1.481  12.987
 1421W        W 5489   2.013   3.560  11.283
 1422W        W 5490   0.159   2.067  10.980
 1423W        W 5491   0.894   2.478  14.106
 1424W        W 5492   0.415   1.645  13.737
 1425W        W 5493   1.406   1.750  13.531
 1426W        W 5494   3.174   0.109  13.793
 1427W        W 5495   3.572   1.719  13.784
 1428W        W 5496   3.560   1.919  11.470
 1429W        W 5497   2.423   2.251  11.569
 1430W        W 5498   2.897   3.551  11.264
 1431W        W 5499   2.074   1.541  14.406
 1432W        W 5500   0.404   2.508  14.446
 1433W        W 5501   3.610   0.430  14.398
 1434W        W 5502   3.328   1.358  13.019
 1435W        W 5503   1.636   3.488  14.496
 1436W        W 5504   1.491   0.117  11.223
 1437W        W 5505   3.030   2.716  11.166
 1438W        W 5506   0.799   0.809  14.052
 1439W        W 5507   1.233   2.803  13.914
 1440W        W 5508   3.359   0.794  13.712
 1441W        W 5509   2.570   3.453  11.680
 1442W        W 5510   2.809   2.072  13.047
 1443W        W 5511   1.059   0.488  13.714
 1444W        W 5512   1.528   1.557  14.471
 1445W        W 5513   1.031   2.736  11.665
 1446W        W 5514   2.786   2.234  11.929
 1447W        W 5515   0.554   0.860  13.653
 1448W        W 5516   1.883   2.922  12.117
 1449W        W 5517   3.633   1.482  12.298
 1450W        W 5518   1.855   0.115  14.017
 1451W        W 5519   2.635   2.820  13.096
 1452W        W 5520   2.938   3.164  12.804
 1453W        W 5521   2.157   2.966  11.232
 1454W        W 5522   0.167   2.858  14.074
 1455W        W 5523   0.910   0.850  13.312
 1456W        W 5524   0.880   0.198  12.422
 1457W        W 5525   2.501   1.040  13.114
 1458W        W 5526   1.299   2.211  11.314
 1459W        W 5527   3.297   2.153  12.813
 1460W        W 5528   0.624   2.911  14.236
 1461W        W 5529   3.011   3.593  12.033
 1462W        W 5530   1.110   0.613  12.478
 1463W        W 5531   0.879   2.106  12.568
 1464W        W 5532   1.192   3.517  13.318
 1465W        W 5533   3.259   3.613  14.350
 1466W        W 5534   2.418   1.801  13.283
 1467W        W 5535   0.267   1.599  11.198
 1468W        W 5536   3.401   3.257  11.895
 1469W        W 5537   3.238   0.581  11.514
 1470W        W 5538   1.377   0.100  13.917
 1471W        W 5539   3.083   2.902  12.375
 1472W        W 5540   3.112   1.458  12.280
 1473W        W 5541   1.229   1.131  12.496
 1474W        W 5542   1.474   1.393  13.820
 1475W        W 5543   2.585   2.546  13.683
 1476W        W 5544   1.235   1.000  13.795
 1477W        W 5545   1.214   3.466  12.411
 1478W        W 5546   0.531   3.425  14.045
 1479W        W 5547   0.643   2.786  11.175
 1480W        W 5548   3.160   2.544  11.985
 1481W        W 5549   0.764   1.336  13.871
 1482W        W 5550   3.537   1.266  11.352
 1483W        W 5551   1.282   2.323  11.823
 1484W        W 5552   2.381   1.705  13.904
 1485W        W 5553   2.272   1.333  13.448
 1486W        W 5554   0.832   1.705  13.477
 1487W        W 5555   3.042   3.593  13.306
 1488W        W 5556   2.833   0.227  14.300
 1489W        W 5557   0.497   0.377  13.887
 1490W        W 5558   0.836   1.400  12.940
 1491W        W 5559   1.205   1.214  11.062
 1492W        W 5560   0.008   2.973  13.607
 1493W        W 5561   1.593   1.682  13.050
 1494W        W 5562   1.416   0.707  11.155
 1495W        W 5563   0.551   1.523  11.936
 1496W        W 5564   0.322   3.375  13.373
 1497W        W 5565   3.117   1.601  11.481
 1498W        W 5566   3.212   0.517  14.167
 1499W        W 5567   2.648   2.726  12.130
 1500W        W 5568   0.246   1.650  14.307
 1501W        W 5569   3.212   0.114  11.603
 1502W        W 5570   2.732   2.589  11.614
 1503W        W 5571   1.634   1.647  11.699
 1504W        W 5572   2.821   0.451  11.222
 1505W        W 5573   2.886   1.058  13.408
 1506W        W 5574   0.595   1.651  12.615
 1507W        W 5575   0.889   2.590  12.264
 1508W        W 5576   2.652   1.210  12.229
 1509W        W 5577   1.675   0.589  12.925
 1510W        W 5578   3.637   2.500  13.436
 1511W        W 5579   3.555   0.487  12.997
 1512W        W 5580   0.094   3.317  12.373
 1513W        W 5581   0.603   2.504  11.909
 1514W        W 5582   0.518   0.121  14.462
 1515W        W 5583   1.637   2.974  14.564
 1516W        W 5584   3.392   1.942  12.354
 1517W        W 5585   2.746   2.119  11.234
 1518W        W 5586   2.041   3.640  13.446
 1519W        W 5587   2.898   2.362  14.483
 1520W        W 5588   1.713   0.072  11.763
 1521W        W 5589   2.426   0.941  12.622
 1522W        W 5590   0.112   2.528  12.954
 1523W        W 5591   1.365   0.490  11.595
 1524W        W 5592   1.169   1.974  14.444
 1525W        W 5593   2.163   0.955  12.158
 1526W        W 5594   2.368   2.365  13.280
 1527W        W 5595   0.522   2.970  13.715
 1528W        W 5596   1.113   2.953  14.438
 1529W        W 5597   0.964   0.750  11.452
 1530W        W 5598   2.481   0.892  11.777
 1531W        W 5599   2.439   3.000  14.014
 1532W        W 5600   1.124   1.592  12.613
 1533W        W 5601   0.779   3.290  13.478
 1534W        W 5602   3.524   3.407  11.079
 1535W        W 5603   0.387   2.079  14.075
 1536W        W 5604   2.382   2.341  12.763
 1537W        W 5605   0.818   1.990  12.005
 1538W        W 5606   1.189   2.997  13.400
 1539W        W 5607   1.567   0.416  12.441
 1540W        W 5608   0.178   2.400  11.371
 1541W        W 5609   1.697   1.351  11.241
 1542W        W 5610   0.343   1.900  12.260
 1543W        W 5611   1.633   0.542  13.724
 1544W        W 5612   3.305   0.251  11.151
 1545W        W 5613   3.398   1.997  14.250
 1546W        W 5614   2.052   3.254  14.402
 1547W        W 5615   3.610   2.348  13.924
 1548W        W 5616   3.018   3.146  14.535
 1549W        W 5617   0.757   3.602  13.013
 1550W        W 5618   3.616   2.224  11.887
 1551W        W 5619   2.146   1.491  12.400
 1552W        W 5620   1.913   0.103  12.290
 1553W        W 5621   0.972   3.087  12.127
 1554W        W 5622   1.471   0.828  13.352
 1555W        W 5623   1.171   0.197  12.821
 1556W        W 5624   0.234   3.019  11.369
 1557W        W 5625   2.050   2.383  12.087
 1558W        W 5626   0.925   3.178  13.966
 1559W        W 5627   0.402   2.001  11.662
 1560W        W 5628   0.287   0.544  12.661
 1561W        W 5629   1.835   2.509  12.718
 1562W        W 5630   0.087   0.363  11.738
 1563W        W 5631   2.751   1.569  13.665
 1564W        W 5632   2.628   0.955  11.237
 1565W        W 5633   3.145   2.627  12.885
 1566W        W 5634   1.806   3.111  12.716
 1567W        W 5635   1.218   3.215  11.627
 1568W        W 5636   2.500   0.118  11.057
 1569W        W 5637   0.300   3.378  12.798
 1570W        W 5638   2.497   1.136  14.433
 1571W        W 5639   0.480   0.666  14.432
 1572W        W 5640   0.211   1.266  11.765
 1573W        W 5641   0.902   1.255  11.490
 1574W        W 5642   2.665   1.582  14.307
 1575W        W 5643   1.008   1.863  13.016
 1576W        W 5644   2.482   0.149  12.136
 1577W        W 5645   1.613   3.580  12.639
 1578W        W 5646   2.827   3.042  13.576
 1579W        W 5647   2.411   3.191  12.687
 1580W        W 5648   2.430   2.171  12.281
 1581W        W 5649   1.892   0.396  11.352
 1582W        W 5650   3.573   0.024  12.074
 1583W        W 5651   1.261   1.659  11.237
 1584W        W 5652   3.427   0.996  12.227
 1585W        W 5653   2.119   2.166  11.104
 1586W        W 5654   3.055   2.366  13.852
 1587W        W 5655   2.709   3.067  11.319
 1588W        W 5656   1.324   0.742  14.225
 1589W        W 5657   1.144   1.326  13.466
 1590W        W 5658   3.236   2.821  13.743
 1591W        W 5659   2.336   0.771  14.120
 1592W        W 5660   0.180   1.242  13.897
 1593W        W 5661   1.940   1.719  13.623
 1594W        W 5662   0.297   2.477  12.280
 1595W        W 5663   0.444   1.774  13.170
 1596W        W 5664   2.761   2.060  13.520
 1597W        W 5665   2.533   3.440  14.331
 1598W        W 5666   2.429   1.179  13.884
 1599W        W 5667   2.706   3.233  12.289
 1600W        W 5668   1.708   2.953  13.612
 1601W        W 5669   1.193   3.308  12.881
 1602W        W 5670   2.998   2.479  13.300
 1603W        W 5671   2.048   2.551  14.437
 1604W        W 5672   0.653   2.504  12.776
 1605W        W 5673   2.999   2.263  12.421
 1606W        W 5674   2.640   3.329  13.172
 1607W        W 5675   0.618   3.058  13.042
 1608W        W 5676   1.639   1.110  14.252
 1609W        W 5677   2.090   3.276  11.763
 1610W        W 5678   1.398   2.531  14.401
 1611W        W 5679   1.524   2.769  11.778
 1612W        W 5680   0.745   1.509  11.037
 1613W        W 5681   0.084   3.595  17.936
 1614W        W 5682   0.460   2.488  17.459
 1615W        W 5683   3.165   2.218  15.229
 1616W        W 5684   3.295   3.303  17.256
 1617W        W 5685   1.213   3.294  14.782
 1618W        W 5686   1.296   1.446  15.765
 1619W        W 5687   0.811   1.294  15.929
 1620W        W 5688   1.802   2.109  15.363
 1621W        W 5689   1.477   3.201  17.718
 1622W        W 5690   0.126   0.762  17.681
 1623W        W 5691   0.888   0.042  17.483
 1624W        W 5692   2.582   0.430  16.370
 1625W        W 5693   2.231   1.301  14.940
 1626W        W 5694   2.801   0.735  18.031
 1627W        W 5695   0.167   0.527  17.156
 1628W        W 5696   0.266   3.146  18.177
 1629W        W 5697   1.788   2.536  14.909
 1630W        W 5698   0.220   1.319  16.602
 1631W        W 5699   1.113   1.210  17.839
 1632W        W 5700   3.572   1.069  16.338
 1633W        W 5701   3.336   2.112  17.197
 1634W        W 5702   1.644   1.445  16.224
 1635W        W 5703   2.190   2.784  16.593
 1636W        W 5704   0.690   2.218  16.825
 1637W        W 5705   0.049   1.746  16.396
 1638W        W 5706   1.085   1.718  17.588
 1639W        W 5707   3.356   1.501  17.842
 1640W        W 5708   0.972   2.945  16.287
 1641W        W 5709   2.093   2.634  17.421
 1642W        W 5710   1.313   1.274  16.646
 1643W        W 5711   1.605   2.058  16.289
 1644W        W 5712   2.602   2.831  18.137
 1645W        W 5713   1.681   2.151  18.147
 1646W        W 5714   1.662   1.867  17.625
 1647W        W 5715   0.071   1.258  18.147
 1648W        W 5716   2.903   2.793  17.746
 1649W        W 5717   0.484   0.375  15.744
 1650W        W 5718   1.011   2.633  16.743
 1651W        W 5719   3.474   2.416  16.033
 1652W        W 5720   2.887   0.816  16.600
 1653W        W 5721   3.172   0.769  14.695
 1654W        W 5722   3.637   1.570  17.001
 1655W        W 5723   1.604   3.277  16.754
 1656W        W 5724   3.378   2.743  15.192
 1657W        W 5725   0.507   3.529  14.946
 1658W        W 5726   0.900   3.575  15.622
 1659W        W 5727   0.697   0.329  17.048
 1660W        W 5728   3.320   1.347  17.323
 1661W        W 5729   2.725   1.769  15.782
 1662W        W 5730   2.691   1.457  14.809
 1663W        W 5731   1.899   2.601  16.949
 1664W        W 5732   1.705   0.931  16.148
 1665W        W 5733   2.305   3.018  17.142
 1666W        W 5734   3.176   1.809  15.564
 1667W        W 5735   2.078   0.467  15.580
 1668W        W 5736   0.735   3.161  15.263
 1669W        W 5737   0.106   0.660  15.862
 1670W        W 5738   2.892   1.267  16.336
 1671W        W 5739   0.350   2.884  16.251
 1672W        W 5740   1.691   3.234  15.121
 1673W        W 5741   3.083   1.260  14.585
 1674W        W 5742   0.106   3.018  16.749
 1675W        W 5743   0.897   2.590  17.229
 1676W        W 5744   1.270   1.950  15.848
 1677W        W 5745   1.292   0.355  16.941
 1678W        W 5746   3.521   0.117  16.238
 1679W        W 5747   0.740   1.989  14.706
 1680W        W 5748   0.395   1.022  14.885
 1681W        W 5749   0.457   2.978  15.679
 1682W        W 5750   1.588   2.461  15.927
 1683W        W 5751   2.920   3.320  17.641
 1684W        W 5752   1.846   0.962  15.325
 1685W        W 5753   3.229   3.360  16.097
 1686W        W 5754   2.906   1.213  17.695
 1687W        W 5755   3.619   2.869  15.829
 1688W        W 5756   2.246   2.161  17.313
 1689W        W 5757   0.012   1.712  15.519
 1690W        W 5758   1.123   2.127  17.092
 1691W        W 5759   2.327   1.391  15.470
 1692W        W 5760   2.204   1.881  15.574
 1693W        W 5761   0.547   1.301  17.048
 1694W        W 5762   0.532   1.177  17.970
 1695W        W 5763   0.422   0.094  16.129
 1696W        W 5764   2.190   0.441  16.690
 1697W        W 5765   1.838   0.626  17.853
 1698W        W 5766   2.193   0.775  15.031
 1699W        W 5767   3.376   3.168  17.785
 1700W        W 5768   2.343   0.249  17.824
 1701W        W 5769   3.362   2.550  17.946
 1702W        W 5770   2.792   0.717  17.542
 1703W        W 5771   2.592   0.655  15.812
 1704W        W 5772   2.985   1.789  18.216
 1705W        W 5773   0.725   3.365  16.202
 1706W        W 5774   1.383   1.082  15.188
 1707W        W 5775   0.952   0.366  17.852
 1708W        W 5776   3.004   0.850  15.533
 1709W        W 5777   3.371   1.332  15.478
 1710W        W 5778   1.114   3.549  17.949
 1711W        W 5779   1.040   0.085  15.184
 1712W        W 5780   3.361   0.619  16.219
 1713W        W 5781   3.511   2.868  14.664
 1714W        W 5782   0.418   2.071  16.366
 1715W        W 5783   2.335   0.658  14.596
 1716W        W 5784   3.469   2.990  16.316
 1717W        W 5785   3.508   0.184  17.066
 1718W        W 5786   1.953   1.396  17.620
 1719W        W 5787   2.046   2.735  15.323
 1720W        W 5788   2.446   2.029  18.063
 1721W        W 5789   2.120   0.006  16.372
 1722W        W 5790   0.732   0.909  16.435
 1723W        W 5791   0.286   2.109  17.209
 1724W        W 5792   2.145   3.302  15.915
 1725W        W 5793   3.339   0.899  16.787
 1726W        W 5794   1.976   3.246  17.554
 1727W        W 5795   3.319   2.305  14.759
 1728W        W 5796   1.754   1.788  15.820
 1729W        W 5797   3.606   0.299  17.561
 1730W        W 5798   1.755   2.134  17.155
 1731W        W 5799   1.972   1.020  16.600
 1732W        W 5800   2.824   1.318  15.438
 1733W        W 5801   3.111   1.051  15.080
 1734W        W 5802   2.920   3.091  15.469
 1735W        W 5803   2.754   2.694  16.265
 1736W        W 5804   2.650   1.773  15.243
 1737W        W 5805   2.083   1.983  16.229
 1738W        W 5806   2.964   1.771  16.296
 1739W        W 5807   0.339   0.786  16.720
 1740W        W 5808   3.117   1.838  17.547
 1741W        W 5809   3.468   3.456  16.693
 1742W        W 5810   1.398   2.900  16.095
 1743W        W 5811   2.405   3.433  17.419
 1744W        W 5812   2.399   0.763  17.183
 1745W        W 5813   1.606   3.471  17.244
 1746W        W 5814   3.303   0.425  15.710
 1747W        W 5815   3.094   1.744  17.011
 1748W        W 5816   0.077   1.065  17.049
 1749W        W 5817   2.937   0.860  16.067
 1750W        W 5818   3.348   1.011  17.844
 1751W        W 5819   2.233   2.710  16.062
 1752W        W 5820   1.489   3.301  15.675
 1753W        W 5821   0.604   0.481  14.933
 1754W        W 5822   1.708   0.135  16.743
 1755W        W 5823   0.736   3.255  14.591
 1756W        W 5824   1.110   1.721  15.342
 1757W        W 5825   1.764   2.350  17.655
 1758W        W 5826   1.594   0.708  15.645
 1759W        W 5827   2.950   0.305  16.073
 1760W        W 5828   2.670   3.587  16.401
 1761W        W 5829   2.082   3.235  16.741
 1762W        W 5830   1.478   2.272  16.702
 1763W        W 5831   3.248   2.995  16.828
 1764W        W 5832   0.942   0.498  15.597
 1765W        W 5833   1.464   2.795  16.557
 1766W        W 5834   0.947   0.726  14.622
 1767W        W 5835   1.748   1.335  17.016
 1768W        W 5836   2.596   0.201  16.886
 1769W        W 5837   0.016   2.044  16.771
 1770W        W 5838   1.720   1.862  14.929
 1771W        W 5839   0.988   0.177  14.699
 1772W        W 5840   1.726   1.258  15.750
 1773W        W 5841   2.696   0.234  17.449
 1774W        W 5842   1.284   2.246  17.558
 1775W        W 5843   2.088   2.028  17.775
 1776W        W 5844   2.705   2.058  17.668
 1777W        W 5845   1.989   0.198  18.173
 1778W        W 5846   1.211   0.814  16.566
 1779W        W 5847   0.637   0.770  15.964
 1780W        W 5848   0.423   3.482  15.640
 1781W        W 5849   1.755   2.812  17.765
 1782W        W 5850   0.790   2.297  15.124
 1783W        W 5851   2.470   1.682  16.345
 1784W        W 5852   2.750   1.481  16.744
 1785W        W 5853   1.955   2.155  16.678
 1786W        W 5854   2.425   2.529  14.810
 1787W        W 5855   2.097   0.550  16.138
 1788W        W 5856   3.576   0.828  15.406
 1789W        W 5857   0.070   3.417  17.437
 1790W        W 5858   0.487   2.643  16.969
 1791W        W 5859   0.054   3.489  15.201
 1792W        W 5860   1.953   0.759  17.007
 1793W        W 5861   1.316   2.782  14.856
 1794W        W 5862   3.221   3.164  15.042
 1795W        W 5863   2.196   1.817  15.056
 1796W        W 5864   1.039   1.008  15.573
 1797W        W 5865   1.871   0.918  14.625
 1798W        W 5866   2.455   2.483  17.803
 1799W        W 5867   2.808   0.389  15.420
 1800W        W 5868   0.138   0.237  14.868
 1801W        W 5869   1.424   2.556  17.158
 1802W        W 5870   1.223   2.472  16.250
 1803W        W 5871   0.965   2.424  14.648
 1804W        W 5872   0.206   2.665  15.416
 1805W        W 5873   0.710   1.735  17.858
 1806W        W 5874   1.414   0.295  18.044
 1807W        W 5875   2.123   0.437  17.400
 1808W        W 5876   1.318   0.205  15.681
 1809W        W 5877   2.377   0.282  15.186
 1810W        W 5878   0.322   0.214  16.763
 1811W        W 5879   0.370   1.177  16.133
 1812W        W 5880   3.059   0.285  16.539
 1813W        W 5881   0.481   0.783  15.353
 1814W        W 5882   3.052   0.471  16.969
 1815W        W 5883   3.448   1.674  14.654
 1816W        W 5884   0.740   0.432  16.473
 1817W        W 5885   1.854   1.004  17.413
 1818W        W 5886   0.002   0.694  14.891
 1819W        W 5887   0.788   2.083  17.452
 1820W        W 5888   2.146   1.481  16.631
 1821W        W 5889   2.013   3.560  14.927
 1822W        W 5890   0.159   2.067  14.624
 1823W        W 5891   0.894   2.478  17.750
 1824W        W 5892   0.415   1.645  17.381
 1825W        W 5893   1.406   1.750  17.175
 1826W        W 5894   3.174   0.109  17.437
 1827W        W 5895   3.572   1.719  17.428
 1828W        W 5896   3.560   1.919  15.114
 1829W        W 5897   2.423   2.251  15.213
 1830W        W 5898   2.897   3.551  14.908
 1831W        W 5899   2.074   1.541  18.050
 1832W        W 5900   0.404   2.508  18.090
 1833W        W 5901   3.610   0.430  18.042
 1834W        W 5902   3.328   1.358  16.663
 1835W        W 5903   1.636   3.488  18.140
 1836W        W 5904   1.491   0.117  14.867
 1837W        W 5905   3.030   2.716  14.810
 1838W        W 5906   0.799   0.809  17.696
 1839W        W 5907   1.233   2.803  17.558
 1840W        W 5908   3.359   0.794  17.356
 1841W        W 5909   2.570   3.453  15.324
 1842W        W 5910   2.809   2.072  16.691
 1843W        W 5911   1.059   0.488  17.358
 1844W        W 5912   1.528   1.557  18.115
 1845W        W 5913   1.031   2.736  15.309
 1846W        W 5914   2.786   2.234  15.573
 1847W        W 5915   0.554   0.860  17.297
 1848W        W 5916   1.883   2.922  15.761
 1849W        W 5917   3.633   1.482  15.942
 1850W        W 5918   1.855   0.115  17.661
 1851W        W 5919   2.635   2.820  16.740
 1852W        W 5920   2.938   3.164  16.448
 1853W        W 5921   2.157   2.966  14.876
 1854W        W 5922   0.167   2.858  17.718
 1855W        W 5923   0.910   0.850  16.956
 1856W        W 5924   0.880   0.198  16.066
 1857W        W 5925   2.501   1.040  16.758
 1858W        W 5926   1.299   2.211  14.958
 1859W        W 5927   3.297   2.153  16.457
 1860W        W 5928   0.624   2.911  17.880
 1861W        W 5929   3.011   3.593  15.677
 1862W        W 5930   1.110   0.613  16.122
 1863W        W 5931   0.879   2.106  16.212
 1864W        W 5932   1.192   3.517  16.962
 1865W        W 5933   3.259   3.613  17.994
 1866W        W 5934   2.418   1.801  16.927
 1867W        W 5935   0.267   1.599  14.842
 1868W        W 5936   3.401   3.257  15.539
 1869W        W 5937   3.238   0.581  15.158
 1870W        W 5938   1.377   0.100  17.561
 1871W        W 5939   3.083   2.902  16.019
 1872W        W 5940   3.112   1.458  15.924
 1873W        W 5941   1.229   1.131  16.140
 1874W        W 5942   1.474   1.393  17.464
 1875W        W 5943   2.585   2.546  17.327
 1876W        W 5944   1.235   1.000  17.439
 1877W        W 5945   1.214   3.466  16.055
 1878W        W 5946   0.531   3.425  17.689
 1879W        W 5947   0.643   2.786  14.819
 1880W        W 5948   3.160   2.544  15.629
 1881W        W 5949   0.764   1.336  17.515
 1882W        W 5950   3.537   1.266  14.996
 1883W        W 5951   1.282   2.323  15.467
 1884W        W 5952   2.381   1.705  17.548
 1885W        W 5953   2.272   1.333  17.092
 1886W        W 5954   0.832   1.705  17.121
 1887W        W 5955   3.042   3.593  16.950
 1888W        W 5956   2.833   0.227  17.944
 1889W        W 5957   0.497   0.377  17.531
 1890W        W 5958   0.836   1.400  16.584
 1891W        W 5959   1.205   1.214  14.706
 1892W        W 5960   0.008   2.973  17.251
 1893W        W 5961   1.593   1.682  16.694
 1894W        W 5962   1.416   0.707  14.799
 1895W        W 5963   0.551   1.523  15.580
 1896W        W 5964   0.322   3.375  17.017
 1897W        W 5965   3.117   1.601  15.125
 1898W        W 5966   3.212   0.517  17.811
 1899W        W 5967   2.648   2.726  15.774
 1900W        W 5968   0.246   1.650  17.951
 1901W        W 5969   3.212   0.114  15.247
 1902W        W 5970   2.732   2.589  15.258
 1903W        W 5971   1.634   1.647  15.343
 1904W        W 5972   2.821   0.451  14.866
 1905W        W 5973   2.886   1.058  17.052
 1906W        W 5974   0.595   1.651  16.259
 1907W        W 5975   0.889   2.590  15.908
 1908W        W 5976   2.652   1.210  15.873
 1909W        W 5977   1.675   0.589  16.569
 1910W        W 5978   3.637   2.500  17.080
 1911W        W 5979   3.555   0.487  16.641
 1912W        W 5980   0.094   3.317  16.017
 1913W        W 5981   0.603   2.504  15.553
 1914W        W 5982   0.518   0.121  18.106
 1915W        W 5983   1.637   2.974  18.208
 1916W        W 5984   3.392   1.942  15.998
 1917W        W 5985   2.746   2.119  14.878
 1918W        W 5986   2.041   3.640  17.090
 1919W        W 5987   2.898   2.362  18.127
 1920W        W 5988   1.713   0.072  15.407
 1921W        W 5989   2.426   0.941  16.266
 1922W        W 5990   0.112   2.528  16.598
 1923W        W 5991   1.365   0.490  15.239
 1924W        W 5992   1.169   1.974  18.088
 1925W        W 5993   2.163   0.955  15.802
 1926W        W 5994   2.368   2.365  16.924
 1927W        W 5995   0.522   2.970  17.359
 1928W        W 5996   1.113   2.953  18.082
 1929W        W 5997   0.964   0.750  15.096
 1930W        W 5998   2.481   0.892  15.421
 1931W        W 5999   2.439   3.000  17.658
 1932W        W 6000   1.124   1.592  16.257
 1933W        W 6001   0.779   3.290  17.122
 1934W        W 6002   3.524   3.407  14.723
 1935W        W 6003   0.387   2.079  17.719
 1936W        W 6004   2.382   2.341  16.407
 1937W        W 6005   0.818   1.990  15.649
 1938W        W 6006   1.189   2.997  17.044
 1939W        W 6007   1.567   0.416  16.085
 1940W        W 6008   0.178   2.400  15.015
 1941W        W 6009   1.697   1.351  14.885
 1942W        W 6010   0.343   1.900  15.904
 1943W        W 6011   1.633   0.542  17.368
 1944W        W 6012   3.305   0.251  14.795
 1945W        W 6013   3.398   1.997  17.894
 1946W        W 6014   2.052   3.254  18.046
 1947W        W 6015   3.610   2.348  17.568
 1948W        W 6016   3.018   3.146  18.179
 1949W        W 6017   0.757   3.602  16.657
 1950W        W 6018   3.616   2.224  15.531
 1951W        W 6019   2.146   1.491  16.044
 1952W        W 6020   1.913   0.103  15.934
 1953W        W 6021   0.972   3.087  15.771
 1954W        W 6022   1.471   0.828  16.996
 1955W        W 6023   1.171   0.197  16.465
 1956W        W 6024   0.234   3.019  15.013
 1957W        W 6025   2.050   2.383  15.731
 1958W        W 6026   0.925   3.178  17.610
 1959W        W 6027   0.402   2.001  15.306
 1960W        W 6028   0.287   0.544  16.305
 1961W        W 6029   1.835   2.509  16.362
 1962W        W 6030   0.087   0.363  15.382
 1963W        W 6031   2.751   1.569  17.309
 1964W        W 6032   2.628   0.955  14.881
 1965W        W 6033   3.145   2.627  16.529
 1966W        W 6034   1.806   3.111  16.360
 1967W        W 6035   1.218   3.215  15.271
 1968W        W 6036   2.500   0.118  14.701
 1969W        W 6037   0.300   3.378  16.442
 1970W        W 6038   2.497   1.136  18.077
 1971W        W 6039   0.480   0.666  18.076
 1972W        W 6040   0.211   1.266  15.409
 1973W        W 6041   0.902   1.255  15.134
 1974W        W 6042   2.665   1.582  17.951
 1975W        W 6043   1.008   1.863  16.660
 1976W        W 6044   2.482   0.149  15.780
 1977W        W 6045   1.613   3.580  16.283
 1978W        W 6046   2.827   3.042  17.220
 1979W        W 6047   2.411   3.191  16.331
 1980W        W 6048   2.430   2.171  15.925
 1981W        W 6049   1.892   0.396  14.996
 1982W        W 6050   3.573   0.024  15.718
 1983W        W 6051   1.261   1.659  14.881
 1984W        W 6052   3.427   0.996  15.871
 1985W        W 6053   2.119   2.166  14.748
 1986W        W 6054   3.055   2.366  17.496
 1987W        W 6055   2.709   3.067  14.963
 1988W        W 6056   1.324   0.742  17.869
 1989W        W 6057   1.144   1.326  17.110
 1990W        W 6058   3.236   2.821  17.387
 1991W        W 6059   2.336   0.771  17.764
 1992W        W 6060   0.180   1.242  17.541
 1993W        W 6061   1.940   1.719  17.267
 1994W        W 6062   0.297   2.477  15.924
 1995W        W 6063   0.444   1.774  16.814
 1996W        W 6064   2.761   2.060  17.164
 1997W        W 6065   2.533   3.440  17.975
 1998W        W 6066   2.429   1.179  17.528
 1999W        W 6067   2.706   3.233  15.933
 2000W        W 6068   1.708   2.953  17.256
 2001W        W 6069   1.193   3.308  16.525
 2002W        W 6070   2.998   2.479  16.944
 2003W        W 6071   2.048   2.551  18.081
 2004W        W 6072   0.653   2.504  16.420
 2005W        W 6073   2.999   2.263  16.065
 2006W        W 6074   2.640   3.329  16.816
 2007W        W 6075   0.618   3.058  16.686
 2008W        W 6076   1.639   1.110  17.896
 2009W        W 6077   2.090   3.276  15.407
 2010W        W 6078   1.398   2.531  18.045
 2011W        W 6079   1.524   2.769  15.422
 2012W        W 6080   0.745   1.509  14.681
 2013W        W 6081   0.084   3.595  21.580
 2014W        W 6082   0.460   2.488  21.103
 2015W        W 6083   3.165   2.218  18.873
 2016W        W 6084   3.295   3.303  20.900
 2017W        W 6085   1.213   3.294  18.426
 2018W        W 6086   1.296   1.446  19.409
 2019W        W 6087   0.811   1.294  19.573
 2020W        W 6088   1.802   2.109  19.007
 2021W        W 6089   1.477   3.201  21.362
 2022W        W 6090   0.126   0.762  21.325
 2023W        W 6091   0.888   0.042  21.127
 2024W        W 6092   2.582   0.430  20.014
 2025W        W 6093   2.231   1.301  18.584
 2026W        W 6094   2.801   0.735  21.675
 2027W        W 6095   0.167   0.527  20.800
 2028W        W 6096   0.266   3.146  21.821
 2029W        W 6097   1.788   2.536  18.553
 2030W        W 6098   0.220   1.319  20.246
 2031W        W 6099   1.113   1.210  21.483
 2032W        W 6100   3.572   1.069  19.982
 2033W        W 6101   3.336   2.112  20.841
 2034W        W 6102   1.644   1.445  19.868
 2035W        W 6103   2.190   2.784  20.237
 2036W        W 6104   0.690   2.218  20.469
 2037W        W 6105   0.049   1.746  20.040
 2038W        W 6106   1.085   1.718  21.232
 2039W        W 6107   3.356   1.501  21.486
 2040W        W 6108   0.972   2.945  19.931
 2041W        W 6109   2.093   2.634  21.065
 2042W        W 6110   1.313   1.274  20.290
 2043W        W 6111   1.605   2.058  19.933
 2044W        W 6112   2.602   2.831  21.781
 2045W        W 6113   1.681   2.151  21.791
 2046W        W 6114   1.662   1.867  21.269
 2047W        W 6115   0.071   1.258  21.791
 2048W        W 6116   2.903   2.793  21.390
 2049W        W 6117   0.484   0.375  19.388
 2050W        W 6118   1.011   2.633  20.387
 2051W        W 6119   3.474   2.416  19.677
 2052W        W 6120   2.887   0.816  20.244
 2053W        W 6121   3.172   0.769  18.339
 2054W        W 6122   3.637   1.570  20.645
 2055W        W 6123   1.604   3.277  20.398
 2056W        W 6124   3.378   2.743  18.836
 2057W        W 6125   0.507   3.529  18.590
 2058W        W 6126   0.900   3.575  19.266
 2059W        W 6127   0.697   0.329  20.692
 2060W        W 6128   3.320   1.347  20.967
 2061W        W 6129   2.725   1.769  19.426
 2062W        W 6130   2.691   1.457  18.453
 2063W        W 6131   1.899   2.601  20.593
 2064W        W 6132   1.705   0.931  19.792
 2065W        W 6133   2.305   3.018  20.786
 2066W        W 6134   3.176   1.809  19.208
 2067W        W 6135   2.078   0.467  19.224
 2068W        W 6136   0.735   3.161  18.907
 2069W        W 6137   0.106   0.660  19.506
 2070W        W 6138   2.892   1.267  19.980
 2071W        W 6139   0.350   2.884  19.895
 2072W        W 6140   1.691   3.234  18.765
 2073W        W 6141   3.083   1.260  18.229
 2074W        W 6142   0.106   3.018  20.393
 2075W        W 6143   0.897   2.590  20.873
 2076W        W 6144   1.270   1.950  19.492
 2077W        W 6145   1.292   0.355  20.585
 2078W        W 6146   3.521   0.117  19.882
 2079W        W 6147   0.740   1.989  18.350
 2080W        W 6148   0.395   1.022  18.529
 2081W        W 6149   0.457   2.978  19.323
 2082W        W 6150   1.588   2.461  19.571
 2083W        W 6151   2.920   3.320  21.285
 2084W        W 6152   1.846   0.962  18.969
 2085W        W 6153   3.229   3.360  19.741
 2086W        W 6154   2.906   1.213  21.339
 2087W        W 6155   3.619   2.869  19.473
 2088W        W 6156   2.246   2.161  20.957
 2089W        W 6157   0.012   1.712  19.163
 2090W        W 6158   1.123   2.127  20.736
 2091W        W 6159   2.327   1.391  19.114
 2092W        W 6160   2.204   1.881  19.218
 2093W        W 6161   0.547   1.301  20.692
 2094W        W 6162   0.532   1.177  21.614
 2095W        W 6163   0.422   0.094  19.773
 2096W        W 6164   2.190   0.441  20.334
 2097W        W 6165   1.838   0.626  21.497
 2098W        W 6166   2.193   0.775  18.675
 2099W        W 6167   3.376   3.168  21.429
 2100W        W 6168   2.343   0.249  21.468
 2101W        W 6169   3.362   2.550  21.590
 2102W        W 6170   2.792   0.717  21.186
 2103W        W 6171   2.592   0.655  19.456
 2104W        W 6172   2.985   1.789  21.860
 2105W        W 6173   0.725   3.365  19.846
 2106W        W 6174   1.383   1.082  18.832
 2107W        W 6175   0.952   0.366  21.496
 2108W        W 6176   3.004   0.850  19.177
 2109W        W 6177   3.371   1.332  19.122
 2110W        W 6178   1.114   3.549  21.593
 2111W        W 6179   1.040   0.085  18.828
 2112W        W 6180   3.361   0.619  19.863
 2113W        W 6181   3.511   2.868  18.308
 2114W        W 6182   0.418   2.071  20.010
 2115W        W 6183   2.335   0.658  18.240
 2116W        W 6184   3.469   2.990  19.960
 2117W        W 6185   3.508   0.184  20.710
 2118W        W 6186   1.953   1.396  21.264
 2119W        W 6187   2.046   2.735  18.967
 2120W        W 6188   2.446   2.029  21.707
 2121W        W 6189   2.120   0.006  20.016
 2122W        W 6190   0.732   0.909  20.079
 2123W        W 6191   0.286   2.109  20.853
 2124W        W 6192   2.145   3.302  19.559
 2125W        W 6193   3.339   0.899  20.431
 2126W        W 6194   1.976   3.246  21.198
 2127W        W 6195   3.319   2.305  18.403
 2128W        W 6196   1.754   1.788  19.464
 2129W        W 6197   3.606   0.299  21.205
 2130W        W 6198   1.755   2.134  20.799
 2131W        W 6199   1.972   1.020  20.244
 2132W        W 6200   2.824   1.318  19.082
 2133W        W 6201   3.111   1.051  18.724
 2134W        W 6202   2.920   3.091  19.113
 2135W        W 6203   2.754   2.694  19.909
 2136W        W 6204   2.650   1.773  18.887
 2137W        W 6205   2.083   1.983  19.873
 2138W        W 6206   2.964   1.771  19.940
 2139W        W 6207   0.339   0.786  20.364
 2140W        W 6208   3.117   1.838  21.191
 2141W        W 6209   3.468   3.456  20.337
 2142W        W 6210   1.398   2.900  19.739
 2143W        W 6211   2.405   3.433  21.063
 2144W        W 6212   2.399   0.763  20.827
 2145W        W 6213   1.606   3.471  20.888
 2146W        W 6214   3.303   0.425  19.354
 2147W        W 6215   3.094   1.744  20.655
 2148W        W 6216   0.077   1.065  20.693
 2149W        W 6217   2.937   0.860  19.711
 2150W        W 6218   3.348   1.011  21.488
 2151W        W 6219   2.233   2.710  19.706
 2152W        W 6220   1.489   3.301  19.319
 2153W        W 6221   0.604   0.481  18.577
 2154W        W 6222   1.708   0.135  20.387
 2155W        W 6223   0.736   3.255  18.235
 2156W        W 6224   1.110   1.721  18.986
 2157W        W 6225   1.764   2.350  21.299
 2158W        W 6226   1.594   0.708  19.289
 2159W        W 6227   2.950   0.305  19.717
 2160W        W 6228   2.670   3.587  20.045
 2161W        W 6229   2.082   3.235  20.385
 2162W        W 6230   1.478   2.272  20.346
 2163W        W 6231   3.248   2.995  20.472
 2164W        W 6232   0.942   0.498  19.241
 2165W        W 6233   1.464   2.795  20.201
 2166W        W 6234   0.947   0.726  18.266
 2167W        W 6235   1.748   1.335  20.660
 2168W        W 6236   2.596   0.201  20.530
 2169W        W 6237   0.016   2.044  20.415
 2170W        W 6238   1.720   1.862  18.573
 2171W        W 6239   0.988   0.177  18.343
 2172W        W 6240   1.726   1.258  19.394
 2173W        W 6241   2.696   0.234  21.093
 2174W        W 6242   1.284   2.246  21.202
 2175W        W 6243   2.088   2.028  21.419
 2176W        W 6244   2.705   2.058  21.312
 2177W        W 6245   1.989   0.198  21.817
 2178W        W 6246   1.211   0.814  20.210
 2179W        W 6247   0.637   0.770  19.608
 2180W        W 6248   0.423   3.482  19.284
 2181W        W 6249   1.755   2.812  21.409
 2182W        W 6250   0.790   2.297  18.768
 2183W        W 6251   2.470   1.682  19.989
 2184W        W 6252   2.750   1.481  20.388
 2185W        W 6253   1.955   2.155  20.322
 2186W        W 6254   2.425   2.529  18.454
 2187W        W 6255   2.097   0.550  19.782
 2188W        W 6256   3.576   0.828  19.050
 2189W        W 6257   0.070   3.417  21.081
 2190W        W 6258   0.487   2.643  20.613
 2191W        W 6259   0.054   3.489  18.845
 2192W        W 6260   1.953   0.759  20.651
 2193W        W 6261   1.316   2.782  18.500
 2194W        W 6262   3.221   3.164  18.686
 2195W        W 6263   2.196   1.817  18.700
 2196W        W 6264   1.039   1.008  19.217
 2197W        W 6265   1.871   0.918  18.269
 2198W        W 6266   2.455   2.483  21.447
 2199W        W 6267   2.808   0.389  19.064
 2200W        W 6268   0.138   0.237  18.512
 2201W        W 6269   1.424   2.556  20.802
 2202W        W 6270   1.223   2.472  19.894
 2203W        W 6271   0.965   2.424  18.292
 2204W        W 6272   0.206   2.665  19.060
 2205W        W 6273   0.710   1.735  21.502
 2206W        W 6274   1.414   0.295  21.688
 2207W        W 6275   2.123   0.437  21.044
 2208W        W 6276   1.318   0.205  19.325
 2209W        W 6277   2.377   0.282  18.830
 2210W        W 6278   0.322   0.214  20.407
 2211W        W 6279   0.370   1.177  19.777
 2212W        W 6280   3.059   0.285  20.183
 2213W        W 6281   0.481   0.783  18.997
 2214W        W 6282   3.052   0.471  20.613
 2215W        W 6283   3.448   1.674  18.298
 2216W        W 6284   0.740   0.432  20.117
 2217W        W 6285   1.854   1.004  21.057
 2218W        W 6286   0.002   0.694  18.535
 2219W        W 6287   0.788   2.083  21.096
 2220W        W 6288   2.146   1.481  20.275
 2221W        W 6289   2.013   3.560  18.571
 2222W        W 6290   0.159   2.067  18.268
 2223W        W 6291   0.894   2.478  21.394
 2224W        W 6292   0.415   1.645  21.025
 2225W        W 6293   1.406   1.750  20.819
 2226W        W 6294   3.174   0.109  21.081
 2227W        W 6295   3.572   1.719  21.072
 2228W        W 6296   3.560   1.919  18.758
 2229W        W 6297   2.423   2.251  18.857
 2230W        W 6298   2.897   3.551  18.552
 2231W        W 6299   2.074   1.541  21.694
 2232W        W 6300   0.404   2.508  21.734
 2233W        W 6301   3.610   0.430  21.686
 2234W        W 6302   3.328   1.358  20.307
 2235W        W 6303   1.636   3.488  21.784
 2236W        W 6304   1.491   0.117  18.511
 2237W        W 6305   3.030   2.716  18.454
 2238W        W 6306   0.799   0.809  21.340
 2239W        W 6307   1.233   2.803  21.202
 2240W        W 6308   3.359   0.794  21.000
 2241W        W 6309   2.570   3.453  18.968
 2242W        W 6310   2.809   2.072  20.335
 2243W        W 6311   1.059   0.488  21.002
 2244W        W 6312   1.528   1.557  21.759
 2245W        W 6313   1.031   2.736  18.953
 2246W        W 6314   2.786   2.234  19.217
 2247W        W 6315   0.554   0.860  20.941
 2248W        W 6316   1.883   2.922  19.405
 2249W        W 6317   3.633   1.482  19.586
 2250W        W 6318   1.855   0.115  21.305
 2251W        W 6319   2.635   2.820  20.384
 2252W        W 6320   2.938   3.164  20.092
 2253W        W 6321   2.157   2.966  18.520
 2254W        W 6322   0.167   2.858  21.362
 2255W        W 6323   0.910   0.850  20.600
 2256W        W 6324   0.880   0.198  19.710
 2257W        W 6325   2.501   1.040  20.402
 2258W        W 6326   1.299   2.211  18.602
 2259W        W 6327   3.297   2.153  20.101
 2260W        W 6328   0.624   2.911  21.524
 2261W        W 6329   3.011   3.593  19.321
 2262W        W 6330   1.110   0.613  19.766
 2263W        W 6331   0.879   2.106  19.856
 2264W        W 6332   1.192   3.517  20.606
 2265W        W 6333   3.259   3.613  21.638
 2266W        W 6334   2.418   1.801  20.571
 2267W        W 6335   0.267   1.599  18.486
 2268W        W 6336   3.401   3.257  19.183
 2269W        W 6337   3.238   0.581  18.802
 2270W        W 6338   1.377   0.100  21.205
 2271W        W 6339   3.083   2.902  19.663
 2272W        W 6340   3.112   1.458  19.568
 2273W        W 6341   1.229   1.131  19.784
 2274W        W 6342   1.474   1.393  21.108
 2275W        W 6343   2.585   2.546  20.971
 2276W        W 6344   1.235   1.000  21.083
 2277W        W 6345   1.214   3.466  19.699
 2278W        W 6346   0.531   3.425  21.333
 2279W        W 6347   0.643   2.786  18.463
 2280W        W 6348   3.160   2.544  19.273
 2281W        W 6349   0.764   1.336  21.159
 2282W        W 6350   3.537   1.266  18.640
 2283W        W 6351   1.282   2.323  19.111
 2284W        W 6352   2.381   1.705  21.192
 2285W        W 6353   2.272   1.333  20.736
 2286W        W 6354   0.832   1.705  20.765
 2287W        W 6355   3.042   3.593  20.594
 2288W        W 6356   2.833   0.227  21.588
 2289W        W 6357   0.497   0.377  21.175
 2290W        W 6358   0.836   1.400  20.228
 2291W        W 6359   1.205   1.214  18.350
 2292W        W 6360   0.008   2.973  20.895
 2293W        W 6361   1.593   1.682  20.338
 2294W        W 6362   1.416   0.707  18.443
 2295W        W 6363   0.551   1.523  19.224
 2296W        W 6364   0.322   3.375  20.661
 2297W        W 6365   3.117   1.601  18.769
 2298W        W 6366   3.212   0.517  21.455
 2299W        W 6367   2.648   2.726  19.418
 2300W        W 6368   0.246   1.650  21.595
 2301W        W 6369   3.212   0.114  18.891
 2302W        W 6370   2.732   2.589  18.902
 2303W        W 6371   1.634   1.647  18.987
 2304W        W 6372   2.821   0.451  18.510
 2305W        W 6373   2.886   1.058  20.696
 2306W        W 6374   0.595   1.651  19.903
 2307W        W 6375   0.889   2.590  19.552
 2308W        W 6376   2.652   1.210  19.517
 2309W        W 6377   1.675   0.589  20.213
 2310W        W 6378   3.637   2.500  20.724
 2311W        W 6379   3.555   0.487  20.285
 2312W        W 6380   0.094   3.317  19.661
 2313W        W 6381   0.603   2.504  19.197
 2314W        W 6382   0.518   0.121  21.750
 2315W        W 6383   1.637   2.974  21.852
 2316W        W 6384   3.392   1.942  19.642
 2317W        W 6385   2.746   2.119  18.522
 2318W        W 6386   2.041   3.640  20.734
 2319W        W 6387   2.898   2.362  21.771
 2320W        W 6388   1.713   0.072  19.051
 2321W        W 6389   2.426   0.941  19.910
 2322W        W 6390   0.112   2.528  20.242
 2323W        W 6391   1.365   0.490  18.883
 2324W        W 6392   1.169   1.974  21.732
 2325W        W 6393   2.163   0.955  19.446
 2326W        W 6394   2.368   2.365  20.568
 2327W        W 6395   0.522   2.970  21.003
 2328W        W 6396   1.113   2.953  21.726
 2329W        W 6397   0.964   0.750  18.740
 2330W        W 6398   2.481   0.892  19.065
 2331W        W 6399   2.439   3.000  21.302
 2332W        W 6400   1.124   1.592  19.901
 2333W        W 6401   0.779   3.290  20.766
 2334W        W 6402   3.524   3.407  18.367
 2335W        W 6403   0.387   2.079  21.363
 2336W        W 6404   2.382   2.341  20.051
 2337W        W 6405   0.818   1.990  19.293
 2338W        W 6406   1.189   2.997  20.688
 2339W        W 6407   1.567   0.416  19.729
 2340W        W 6408   0.178   2.400  18.659
 2341W        W 6409   1.697   1.351  18.529
 2342W        W 6410   0.343   1.900  19.548
 2343W        W 6411   1.633   0.542  21.012
 2344W        W 6412   3.305   0.251  18.439
 2345W        W 6413   3.398   1.997  21.538
 2346W        W 6414   2.052   3.254  21.690
 2347W        W 6415   3.610   2.348  21.212
 2348W        W 6416   3.018   3.146  21.823
 2349W        W 6417   0.757   3.602  20.301
 2350W        W 6418   3.616   2.224  19.175
 2351W        W 6419   2.146   1.491  19.688
 2352W        W 6420   1.913   0.103  19.578
 2353W        W 6421   0.972   3.087  19.415
 2354W        W 6422   1.471   0.828  20.640
 2355W        W 6423   1.171   0.197  20.109
 2356W        W 6424   0.234   3.019  18.657
 2357W        W 6425   2.050   2.383  19.375
 2358W        W 6426   0.925   3.178  21.254
 2359W        W 6427   0.402   2.001  18.950
 2360W        W 6428   0.287   0.544  19.949
 2361W        W 6429   1.835   2.509  20.006
 2362W        W 6430   0.087   0.363  19.026
 2363W        W 6431   2.751   1.569  20.953
 2364W        W 6432   2.628   0.955  18.525
 2365W        W 6433   3.145   2.627  20.173
 2366W        W 6434   1.806   3.111  20.004
 2367W        W 6435   1.218   3.215  18.915
 2368W        W 6436   2.500   0.118  18.345
 2369W        W 6437   0.300   3.378  20.086
 2370W        W 6438   2.497   1.136  21.721
 2371W        W 6439   0.480   0.666  21.720
 2372W        W 6440   0.211   1.266  19.053
 2373W        W 6441   0.902   1.255  18.778
 2374W        W 6442   2.665   1.582  21.595
 2375W        W 6443   1.008   1.863  20.304
 2376W        W 6444   2.482   0.149  19.424
 2377W        W 6445   1.613   3.580  19.927
 2378W        W 6446   2.827   3.042  20.864
 2379W        W 6447   2.411   3.191  19.975
 2380W        W 6448   2.430   2.171  19.569
 2381W        W 6449   1.892   0.396  18.640
 2382W        W 6450   3.573   0.024  19.362
 2383W        W 6451   1.261   1.659  18.525
 2384W        W 6452   3.427   0.996  19.515
 2385W        W 6453   2.119   2.166  18.392
 2386W        W 6454   3.055   2.366  21.140
 2387W        W 6455   2.709   3.067  18.607
 2388W        W 6456   1.324   0.742  21.513
 2389W        W 6457   1.144   1.326  20.754
 2390W        W 6458   3.236   2.821  21.031
 2391W        W 6459   2.336   0.771  21.408
 2392W        W 6460   0.180   1.242  21.185
 2393W        W 6461   1.940   1.719  20.911
 2394W        W 6462   0.297   2.477  19.568
 2395W        W 6463   0.444   1.774  20.458
 2396W        W 6464   2.761   2.060  20.808
 2397W        W 6465   2.533   3.440  21.619
 2398W        W 6466   2.429   1.179  21.172
 2399W        W 6467   2.706   3.233  19.577
 2400W        W 6468   1.708   2.953  20.900
 2401W        W 6469   1.193   3.308  20.169
 2402W        W 6470   2.998   2.479  20.588
 2403W        W 6471   2.048   2.551  21.725
 2404W        W 6472   0.653   2.504  20.064
 2405W        W 6473   2.999   2.263  19.709
 2406W        W 6474   2.640   3.329  20.460
 2407W        W 6475   0.618   3.058  20.330
 2408W        W 6476   1.639   1.110  21.540
 2409W        W 6477   2.090   3.276  19.051
 2410W        W 6478   1.398   2.531  21.689
 2411W        W 6479   1.524   2.769  19.066
 2412W        W 6480   0.745   1.509  18.325
 2413W        W 6481   3.165   2.218  22.518
 2414W        W 6482   1.213   3.294  22.071
 2415W        W 6483   1.296   1.446  23.054
 2416W        W 6484   0.811   1.294  23.218
 2417W        W 6485   1.802   2.109  22.652
 2418W        W 6486   2.231   1.301  22.229
 2419W        W 6487   1.788   2.536  22.198
 2420W        W 6488   0.484   0.375  23.033
 2421W        W 6489   3.172   0.769  21.984
 2422W        W 6490   3.378   2.743  22.481
 2423W        W 6491   0.507   3.529  22.235
 2424W        W 6492   0.900   3.575  22.911
 2425W        W 6493   2.725   1.769  23.071
 2426W        W 6494   2.691   1.457  22.098
 2427W        W 6495   3.176   1.809  22.853
 2428W        W 6496   2.078   0.467  22.869
 2429W        W 6497   0.735   3.161  22.552
 2430W        W 6498   1.691   3.234  22.410
 2431W        W 6499   3.083   1.260  21.874
 2432W        W 6500   1.270   1.950  23.137
 2433W        W 6501   0.740   1.989  21.995
 2434W        W 6502   0.395   1.022  22.174
 2435W        W 6503   0.457   2.978  22.968
 2436W        W 6504   1.588   2.461  23.216
 2437W        W 6505   1.846   0.962  22.614
 2438W        W 6506   0.012   1.712  22.808
 2439W        W 6507   2.327   1.391  22.759
 2440W        W 6508   2.204   1.881  22.863
 2441W        W 6509   2.193   0.775  22.320
 2442W        W 6510   2.592   0.655  23.101
 2443W        W 6511   1.383   1.082  22.477
 2444W        W 6512   3.004   0.850  22.822
 2445W        W 6513   3.371   1.332  22.767
 2446W        W 6514   1.040   0.085  22.473
 2447W        W 6515   3.511   2.868  21.953
 2448W        W 6516   2.335   0.658  21.885
 2449W        W 6517   2.046   2.735  22.612
 2450W        W 6518   2.145   3.302  23.204
 2451W        W 6519   3.319   2.305  22.048
 2452W        W 6520   1.754   1.788  23.109
 2453W        W 6521   2.824   1.318  22.727
 2454W        W 6522   3.111   1.051  22.369
 2455W        W 6523   2.920   3.091  22.758
 2456W        W 6524   2.650   1.773  22.532
 2457W        W 6525   3.303   0.425  22.999
 2458W        W 6526   1.489   3.301  22.964
 2459W        W 6527   0.604   0.481  22.222
 2460W        W 6528   0.736   3.255  21.880
 2461W        W 6529   1.110   1.721  22.631
 2462W        W 6530   1.594   0.708  22.934
 2463W        W 6531   0.942   0.498  22.886
 2464W        W 6532   0.947   0.726  21.911
 2465W        W 6533   1.720   1.862  22.218
 2466W        W 6534   0.988   0.177  21.988
 2467W        W 6535   1.726   1.258  23.039
 2468W        W 6536   0.637   0.770  23.253
 2469W        W 6537   0.423   3.482  22.929
 2470W        W 6538   0.790   2.297  22.413
 2471W        W 6539   2.425   2.529  22.099
 2472W        W 6540   3.576   0.828  22.695
 2473W        W 6541   0.054   3.489  22.490
 2474W        W 6542   1.316   2.782  22.145
 2475W        W 6543   3.221   3.164  22.331
 2476W        W 6544   2.196   1.817  22.345
 2477W        W 6545   1.039   1.008  22.862
 2478W        W 6546   1.871   0.918  21.914
 2479W        W 6547   2.808   0.389  22.709
 2480W        W 6548   0.138   0.237  22.157
 2481W        W 6549   0.965   2.424  21.937
 2482W        W 6550   0.206   2.665  22.705
 2483W        W 6551   1.318   0.205  22.970
 2484W        W 6552   2.377   0.282  22.475
 2485W        W 6553   0.481   0.783  22.642
 2486W        W 6554   3.448   1.674  21.943
 2487W        W 6555   0.002   0.694  22.180
 2488W        W 6556   2.013   3.560  22.216
 2489W        W 6557   0.159   2.067  21.913
 2490W        W 6558   3.560   1.919  22.403
 2491W        W 6559   2.423   2.251  22.502
 2492W        W 6560   2.897   3.551  22.197
 2493W        W 6561   1.491   0.117  22.156
 2494W        W 6562   3.030   2.716  22.099
 2495W        W 6563   2.570   3.453  22.613
 2496W        W 6564   1.031   2.736  22.598
 2497W        W 6565   2.786   2.234  22.862
 2498W        W 6566   1.883   2.922  23.050
 2499W        W 6567   3.633   1.482  23.231
 2500W        W 6568   2.157   2.966  22.165
 2501W        W 6569   1.299   2.211  22.247
 2502W        W 6570   3.011   3.593  22.966
 2503W        W 6571   0.267   1.599  22.131
 2504W        W 6572   3.401   3.257  22.828
 2505W        W 6573   3.238   0.581  22.447
 2506W        W 6574   3.112   1.458  23.213
 2507W        W 6575   0.643   2.786  22.108
 2508W        W 6576   3.160   2.544  22.918
 2509W        W 6577   3.537   1.266  22.285
 2510W        W 6578   1.282   2.323  22.756
 2511W        W 6579   1.205   1.214  21.995
 2512W        W 6580   1.416   0.707  22.088
 2513W        W 6581   0.551   1.523  22.869
 2514W        W 6582   3.117   1.601  22.414
 2515W        W 6583   2.648   2.726  23.063
 2516W        W 6584   3.212   0.114  22.536
 2517W        W 6585   2.732   2.589  22.547
 2518W        W 6586   1.634   1.647  22.632
 2519W        W 6587   2.821   0.451  22.155
 2520W        W 6588   0.889   2.590  23.197
 2521W        W 6589   2.652   1.210  23.162
 2522W        W 6590   0.094   3.317  23.306
 2523W        W 6591   0.603   2.504  22.842
 2524W        W 6592   3.392   1.942  23.287
 2525W        W 6593   2.746   2.119  22.167
 2526W        W 6594   1.713   0.072  22.696
 2527W        W 6595   1.365   0.490  22.528
 2528W        W 6596   2.163   0.955  23.091
 2529W        W 6597   0.964   0.750  22.385
 2530W        W 6598   2.481   0.892  22.710
 2531W        W 6599   3.524   3.407  22.012
 2532W        W 6600   0.178   2.400  22.304
 2533W        W 6601   1.697   1.351  22.174
 2534W        W 6602   0.343   1.900  23.193
 2535W        W 6603   3.305   0.251  22.084
 2536W        W 6604   3.616   2.224  22.820
 2537W        W 6605   1.913   0.103  23.223
 2538W        W 6606   0.972   3.087  23.060
 2539W        W 6607   0.234   3.019  22.302
 2540W        W 6608   2.050   2.383  23.020
 2541W        W 6609   0.402   2.001  22.595
 2542W        W 6610   0.087   0.363  22.671
 2543W        W 6611   2.628   0.955  22.170
 2544W        W 6612   1.218   3.215  22.560
 2545W        W 6613   2.500   0.118  21.990
 2546W        W 6614   0.211   1.266  22.698
 2547W        W 6615   0.902   1.255  22.423
 2548W        W 6616   2.430   2.171  23.214
 2549W        W 6617   1.892   0.396  22.285
 2550W        W 6618   3.573   0.024  23.007
 2551W        W 6619   1.261   1.659  22.170
 2552W        W 6620   3.427   0.996  23.160
 2553W        W 6621   2.119   2.166  22.037
 2554W        W 6622   2.709   3.067  22.252
 2555W        W 6623   0.297   2.477  23.213
 2556W        W 6624   2.706   3.233  23.222
 2557W        W 6625   2.090   3.276  22.696
 2558W        W 6626   1.524   2.769  22.711
 2559W        W 6627   0.745   1.509  21.970
 2560W        W 6628   0.084   7.239   3.359
 2561W        W 6629   0.460   6.132   2.882
 2562W        W 6630   3.165   5.862   0.652
 2563W        W 6631   3.295   6.947   2.679
 2564W        W 6632   1.213   6.938   0.205
 2565W        W 6633   1.296   5.090   1.188
 2566W        W 6634   0.811   4.938   1.352
 2567W        W 6635   1.802   5.753   0.786
 2568W        W 6636   1.477   6.845   3.141
 2569W        W 6637   0.126   4.406   3.104
 2570W        W 6638   0.888   3.686   2.906
 2571W        W 6639   2.582   4.074   1.793
 2572W        W 6640   2.231   4.945   0.363
 2573W        W 6641   2.801   4.379   3.454
 2574W        W 6642   0.167   4.171   2.579
 2575W        W 6643   0.266   6.790   3.600
 2576W        W 6644   1.788   6.180   0.332
 2577W        W 6645   0.220   4.963   2.025
 2578W        W 6646   1.113   4.854   3.262
 2579W        W 6647   3.572   4.713   1.761
 2580W        W 6648   3.336   5.756   2.620
 2581W        W 6649   1.644   5.089   1.647
 2582W        W 6650   2.190   6.428   2.016
 2583W        W 6651   0.690   5.862   2.248
 2584W        W 6652   0.049   5.390   1.819
 2585W        W 6653   1.085   5.362   3.011
 2586W        W 6654   3.356   5.145   3.265
 2587W        W 6655   0.972   6.589   1.710
 2588W        W 6656   2.093   6.278   2.844
 2589W        W 6657   1.313   4.918   2.069
 2590W        W 6658   1.605   5.702   1.712
 2591W        W 6659   2.602   6.475   3.560
 2592W        W 6660   1.681   5.795   3.570
 2593W        W 6661   1.662   5.511   3.048
 2594W        W 6662   0.071   4.902   3.570
 2595W        W 6663   2.903   6.437   3.169
 2596W        W 6664   0.484   4.019   1.167
 2597W        W 6665   1.011   6.277   2.166
 2598W        W 6666   3.474   6.060   1.456
 2599W        W 6667   2.887   4.460   2.023
 2600W        W 6668   3.172   4.413   0.118
 2601W        W 6669   3.637   5.214   2.424
 2602W        W 6670   1.604   6.921   2.177
 2603W        W 6671   3.378   6.387   0.615
 2604W        W 6672   0.507   7.173   0.369
 2605W        W 6673   0.900   7.219   1.045
 2606W        W 6674   0.697   3.973   2.471
 2607W        W 6675   3.320   4.991   2.746
 2608W        W 6676   2.725   5.413   1.205
 2609W        W 6677   2.691   5.101   0.232
 2610W        W 6678   1.899   6.245   2.372
 2611W        W 6679   1.705   4.575   1.571
 2612W        W 6680   2.305   6.662   2.565
 2613W        W 6681   3.176   5.453   0.987
 2614W        W 6682   2.078   4.111   1.003
 2615W        W 6683   0.735   6.805   0.686
 2616W        W 6684   0.106   4.304   1.285
 2617W        W 6685   2.892   4.911   1.759
 2618W        W 6686   0.350   6.528   1.674
 2619W        W 6687   1.691   6.878   0.544
 2620W        W 6688   3.083   4.904   0.008
 2621W        W 6689   0.106   6.662   2.172
 2622W        W 6690   0.897   6.234   2.652
 2623W        W 6691   1.270   5.594   1.271
 2624W        W 6692   1.292   3.999   2.364
 2625W        W 6693   3.521   3.761   1.661
 2626W        W 6694   0.740   5.633   0.129
 2627W        W 6695   0.395   4.666   0.308
 2628W        W 6696   0.457   6.622   1.102
 2629W        W 6697   1.588   6.105   1.350
 2630W        W 6698   2.920   6.964   3.064
 2631W        W 6699   1.846   4.606   0.748
 2632W        W 6700   3.229   7.004   1.520
 2633W        W 6701   2.906   4.857   3.118
 2634W        W 6702   3.619   6.513   1.252
 2635W        W 6703   2.246   5.805   2.736
 2636W        W 6704   0.012   5.356   0.942
 2637W        W 6705   1.123   5.771   2.515
 2638W        W 6706   2.327   5.035   0.893
 2639W        W 6707   2.204   5.525   0.997
 2640W        W 6708   0.547   4.945   2.471
 2641W        W 6709   0.532   4.821   3.393
 2642W        W 6710   0.422   3.738   1.552
 2643W        W 6711   2.190   4.085   2.113
 2644W        W 6712   1.838   4.270   3.276
 2645W        W 6713   2.193   4.419   0.454
 2646W        W 6714   3.376   6.812   3.208
 2647W        W 6715   2.343   3.893   3.247
 2648W        W 6716   3.362   6.194   3.369
 2649W        W 6717   2.792   4.361   2.965
 2650W        W 6718   2.592   4.299   1.235
 2651W        W 6719   2.985   5.433   3.639
 2652W        W 6720   0.725   7.009   1.625
 2653W        W 6721   1.383   4.726   0.611
 2654W        W 6722   0.952   4.010   3.275
 2655W        W 6723   3.004   4.494   0.956
 2656W        W 6724   3.371   4.976   0.901
 2657W        W 6725   1.114   7.193   3.372
 2658W        W 6726   1.040   3.729   0.607
 2659W        W 6727   3.361   4.263   1.642
 2660W        W 6728   3.511   6.512   0.087
 2661W        W 6729   0.418   5.715   1.789
 2662W        W 6730   2.335   4.302   0.019
 2663W        W 6731   3.469   6.634   1.739
 2664W        W 6732   3.508   3.828   2.489
 2665W        W 6733   1.953   5.040   3.043
 2666W        W 6734   2.046   6.379   0.746
 2667W        W 6735   2.446   5.673   3.486
 2668W        W 6736   2.120   3.650   1.795
 2669W        W 6737   0.732   4.553   1.858
 2670W        W 6738   0.286   5.753   2.632
 2671W        W 6739   2.145   6.946   1.338
 2672W        W 6740   3.339   4.543   2.210
 2673W        W 6741   1.976   6.890   2.977
 2674W        W 6742   3.319   5.949   0.182
 2675W        W 6743   1.754   5.432   1.243
 2676W        W 6744   3.606   3.943   2.984
 2677W        W 6745   1.755   5.778   2.578
 2678W        W 6746   1.972   4.664   2.023
 2679W        W 6747   2.824   4.962   0.861
 2680W        W 6748   3.111   4.695   0.503
 2681W        W 6749   2.920   6.735   0.892
 2682W        W 6750   2.754   6.338   1.688
 2683W        W 6751   2.650   5.417   0.666
 2684W        W 6752   2.083   5.627   1.652
 2685W        W 6753   2.964   5.415   1.719
 2686W        W 6754   0.339   4.430   2.143
 2687W        W 6755   3.117   5.482   2.970
 2688W        W 6756   3.468   7.100   2.116
 2689W        W 6757   1.398   6.544   1.518
 2690W        W 6758   2.405   7.077   2.842
 2691W        W 6759   2.399   4.407   2.606
 2692W        W 6760   1.606   7.115   2.667
 2693W        W 6761   3.303   4.069   1.133
 2694W        W 6762   3.094   5.388   2.434
 2695W        W 6763   0.077   4.709   2.472
 2696W        W 6764   2.937   4.504   1.490
 2697W        W 6765   3.348   4.655   3.267
 2698W        W 6766   2.233   6.354   1.485
 2699W        W 6767   1.489   6.945   1.098
 2700W        W 6768   0.604   4.125   0.356
 2701W        W 6769   1.708   3.779   2.166
 2702W        W 6770   0.736   6.899   0.014
 2703W        W 6771   1.110   5.365   0.765
 2704W        W 6772   1.764   5.994   3.078
 2705W        W 6773   1.594   4.352   1.068
 2706W        W 6774   2.950   3.949   1.496
 2707W        W 6775   2.670   7.231   1.824
 2708W        W 6776   2.082   6.879   2.164
 2709W        W 6777   1.478   5.916   2.125
 2710W        W 6778   3.248   6.639   2.251
 2711W        W 6779   0.942   4.142   1.020
 2712W        W 6780   1.464   6.439   1.980
 2713W        W 6781   0.947   4.370   0.045
 2714W        W 6782   1.748   4.979   2.439
 2715W        W 6783   2.596   3.845   2.309
 2716W        W 6784   0.016   5.688   2.194
 2717W        W 6785   1.720   5.506   0.352
 2718W        W 6786   0.988   3.821   0.122
 2719W        W 6787   1.726   4.902   1.173
 2720W        W 6788   2.696   3.878   2.872
 2721W        W 6789   1.284   5.890   2.981
 2722W        W 6790   2.088   5.672   3.198
 2723W        W 6791   2.705   5.702   3.091
 2724W        W 6792   1.989   3.842   3.596
 2725W        W 6793   1.211   4.458   1.989
 2726W        W 6794   0.637   4.414   1.387
 2727W        W 6795   0.423   7.126   1.063
 2728W        W 6796   1.755   6.456   3.188
 2729W        W 6797   0.790   5.941   0.547
 2730W        W 6798   2.470   5.326   1.768
 2731W        W 6799   2.750   5.125   2.167
 2732W        W 6800   1.955   5.799   2.101
 2733W        W 6801   2.425   6.173   0.233
 2734W        W 6802   2.097   4.194   1.561
 2735W        W 6803   3.576   4.472   0.829
 2736W        W 6804   0.070   7.061   2.860
 2737W        W 6805   0.487   6.287   2.392
 2738W        W 6806   0.054   7.133   0.624
 2739W        W 6807   1.953   4.403   2.430
 2740W        W 6808   1.316   6.426   0.279
 2741W        W 6809   3.221   6.808   0.465
 2742W        W 6810   2.196   5.461   0.479
 2743W        W 6811   1.039   4.652   0.996
 2744W        W 6812   1.871   4.562   0.048
 2745W        W 6813   2.455   6.127   3.226
 2746W        W 6814   2.808   4.033   0.843
 2747W        W 6815   0.138   3.881   0.291
 2748W        W 6816   1.424   6.200   2.581
 2749W        W 6817   1.223   6.116   1.673
 2750W        W 6818   0.965   6.068   0.071
 2751W        W 6819   0.206   6.309   0.839
 2752W        W 6820   0.710   5.379   3.281
 2753W        W 6821   1.414   3.939   3.467
 2754W        W 6822   2.123   4.081   2.823
 2755W        W 6823   1.318   3.849   1.104
 2756W        W 6824   2.377   3.926   0.609
 2757W        W 6825   0.322   3.858   2.186
 2758W        W 6826   0.370   4.821   1.556
 2759W        W 6827   3.059   3.929   1.962
 2760W        W 6828   0.481   4.427   0.776
 2761W        W 6829   3.052   4.115   2.392
 2762W        W 6830   3.448   5.318   0.077
 2763W        W 6831   0.740   4.076   1.896
 2764W        W 6832   1.854   4.648   2.836
 2765W        W 6833   0.002   4.338   0.314
 2766W        W 6834   0.788   5.727   2.875
 2767W        W 6835   2.146   5.125   2.054
 2768W        W 6836   2.013   7.204   0.350
 2769W        W 6837   0.159   5.711   0.047
 2770W        W 6838   0.894   6.122   3.173
 2771W        W 6839   0.415   5.289   2.804
 2772W        W 6840   1.406   5.394   2.598
 2773W        W 6841   3.174   3.753   2.860
 2774W        W 6842   3.572   5.363   2.851
 2775W        W 6843   3.560   5.563   0.537
 2776W        W 6844   2.423   5.895   0.636
 2777W        W 6845   2.897   7.195   0.331
 2778W        W 6846   2.074   5.185   3.473
 2779W        W 6847   0.404   6.152   3.513
 2780W        W 6848   3.610   4.074   3.465
 2781W        W 6849   3.328   5.002   2.086
 2782W        W 6850   1.636   7.132   3.563
 2783W        W 6851   1.491   3.761   0.290
 2784W        W 6852   3.030   6.360   0.233
 2785W        W 6853   0.799   4.453   3.119
 2786W        W 6854   1.233   6.447   2.981
 2787W        W 6855   3.359   4.438   2.779
 2788W        W 6856   2.570   7.097   0.747
 2789W        W 6857   2.809   5.716   2.114
 2790W        W 6858   1.059   4.132   2.781
 2791W        W 6859   1.528   5.201   3.538
 2792W        W 6860   1.031   6.380   0.732
 2793W        W 6861   2.786   5.878   0.996
 2794W        W 6862   0.554   4.504   2.720
 2795W        W 6863   1.883   6.566   1.184
 2796W        W 6864   3.633   5.126   1.365
 2797W        W 6865   1.855   3.759   3.084
 2798W        W 6866   2.635   6.464   2.163
 2799W        W 6867   2.938   6.808   1.871
 2800W        W 6868   2.157   6.610   0.299
 2801W        W 6869   0.167   6.502   3.141
 2802W        W 6870   0.910   4.494   2.379
 2803W        W 6871   0.880   3.842   1.489
 2804W        W 6872   2.501   4.684   2.181
 2805W        W 6873   1.299   5.855   0.381
 2806W        W 6874   3.297   5.797   1.880
 2807W        W 6875   0.624   6.555   3.303
 2808W        W 6876   3.011   7.237   1.100
 2809W        W 6877   1.110   4.257   1.545
 2810W        W 6878   0.879   5.750   1.635
 2811W        W 6879   1.192   7.161   2.385
 2812W        W 6880   3.259   7.257   3.417
 2813W        W 6881   2.418   5.445   2.350
 2814W        W 6882   0.267   5.243   0.265
 2815W        W 6883   3.401   6.901   0.962
 2816W        W 6884   3.238   4.225   0.581
 2817W        W 6885   1.377   3.744   2.984
 2818W        W 6886   3.083   6.546   1.442
 2819W        W 6887   3.112   5.102   1.347
 2820W        W 6888   1.229   4.775   1.563
 2821W        W 6889   1.474   5.037   2.887
 2822W        W 6890   2.585   6.190   2.750
 2823W        W 6891   1.235   4.644   2.862
 2824W        W 6892   1.214   7.110   1.478
 2825W        W 6893   0.531   7.069   3.112
 2826W        W 6894   0.643   6.430   0.242
 2827W        W 6895   3.160   6.188   1.052
 2828W        W 6896   0.764   4.980   2.938
 2829W        W 6897   3.537   4.910   0.419
 2830W        W 6898   1.282   5.967   0.890
 2831W        W 6899   2.381   5.349   2.971
 2832W        W 6900   2.272   4.977   2.515
 2833W        W 6901   0.832   5.349   2.544
 2834W        W 6902   3.042   7.237   2.373
 2835W        W 6903   2.833   3.871   3.367
 2836W        W 6904   0.497   4.021   2.954
 2837W        W 6905   0.836   5.044   2.007
 2838W        W 6906   1.205   4.858   0.129
 2839W        W 6907   0.008   6.617   2.674
 2840W        W 6908   1.593   5.326   2.117
 2841W        W 6909   1.416   4.351   0.222
 2842W        W 6910   0.551   5.167   1.003
 2843W        W 6911   0.322   7.019   2.440
 2844W        W 6912   3.117   5.245   0.548
 2845W        W 6913   3.212   4.161   3.234
 2846W        W 6914   2.648   6.370   1.197
 2847W        W 6915   0.246   5.294   3.374
 2848W        W 6916   3.212   3.758   0.670
 2849W        W 6917   2.732   6.233   0.681
 2850W        W 6918   1.634   5.291   0.766
 2851W        W 6919   2.821   4.095   0.289
 2852W        W 6920   2.886   4.702   2.475
 2853W        W 6921   0.595   5.295   1.682
 2854W        W 6922   0.889   6.234   1.331
 2855W        W 6923   2.652   4.854   1.296
 2856W        W 6924   1.675   4.233   1.992
 2857W        W 6925   3.637   6.144   2.503
 2858W        W 6926   3.555   4.131   2.064
 2859W        W 6927   0.094   6.961   1.440
 2860W        W 6928   0.603   6.148   0.976
 2861W        W 6929   0.518   3.765   3.529
 2862W        W 6930   1.637   6.618   3.631
 2863W        W 6931   3.392   5.586   1.421
 2864W        W 6932   2.746   5.763   0.301
 2865W        W 6933   2.041   7.284   2.513
 2866W        W 6934   2.898   6.006   3.550
 2867W        W 6935   1.713   3.716   0.830
 2868W        W 6936   2.426   4.585   1.689
 2869W        W 6937   0.112   6.172   2.021
 2870W        W 6938   1.365   4.134   0.662
 2871W        W 6939   1.169   5.618   3.511
 2872W        W 6940   2.163   4.599   1.225
 2873W        W 6941   2.368   6.009   2.347
 2874W        W 6942   0.522   6.614   2.782
 2875W        W 6943   1.113   6.597   3.505
 2876W        W 6944   0.964   4.394   0.519
 2877W        W 6945   2.481   4.536   0.844
 2878W        W 6946   2.439   6.644   3.081
 2879W        W 6947   1.124   5.236   1.680
 2880W        W 6948   0.779   6.934   2.545
 2881W        W 6949   3.524   7.051   0.146
 2882W        W 6950   0.387   5.723   3.142
 2883W        W 6951   2.382   5.985   1.830
 2884W        W 6952   0.818   5.634   1.072
 2885W        W 6953   1.189   6.641   2.467
 2886W        W 6954   1.567   4.060   1.508
 2887W        W 6955   0.178   6.044   0.438
 2888W        W 6956   1.697   4.995   0.308
 2889W        W 6957   0.343   5.544   1.327
 2890W        W 6958   1.633   4.186   2.791
 2891W        W 6959   3.305   3.895   0.218
 2892W        W 6960   3.398   5.641   3.317
 2893W        W 6961   2.052   6.898   3.469
 2894W        W 6962   3.610   5.992   2.991
 2895W        W 6963   3.018   6.790   3.602
 2896W        W 6964   0.757   7.246   2.080
 2897W        W 6965   3.616   5.868   0.954
 2898W        W 6966   2.146   5.135   1.467
 2899W        W 6967   1.913   3.747   1.357
 2900W        W 6968   0.972   6.731   1.194
 2901W        W 6969   1.471   4.472   2.419
 2902W        W 6970   1.171   3.841   1.888
 2903W        W 6971   0.234   6.663   0.436
 2904W        W 6972   2.050   6.027   1.154
 2905W        W 6973   0.925   6.822   3.033
 2906W        W 6974   0.402   5.645   0.729
 2907W        W 6975   0.287   4.188   1.728
 2908W        W 6976   1.835   6.153   1.785
 2909W        W 6977   0.087   4.007   0.805
 2910W        W 6978   2.751   5.213   2.732
 2911W        W 6979   2.628   4.599   0.304
 2912W        W 6980   3.145   6.271   1.952
 2913W        W 6981   1.806   6.755   1.783
 2914W        W 6982   1.218   6.859   0.694
 2915W        W 6983   2.500   3.762   0.124
 2916W        W 6984   0.300   7.022   1.865
 2917W        W 6985   2.497   4.780   3.500
 2918W        W 6986   0.480   4.310   3.499
 2919W        W 6987   0.211   4.910   0.832
 2920W        W 6988   0.902   4.899   0.557
 2921W        W 6989   2.665   5.226   3.374
 2922W        W 6990   1.008   5.507   2.083
 2923W        W 6991   2.482   3.793   1.203
 2924W        W 6992   1.613   7.224   1.706
 2925W        W 6993   2.827   6.686   2.643
 2926W        W 6994   2.411   6.835   1.754
 2927W        W 6995   2.430   5.815   1.348
 2928W        W 6996   1.892   4.040   0.419
 2929W        W 6997   3.573   3.668   1.141
 2930W        W 6998   1.261   5.303   0.304
 2931W        W 6999   3.427   4.640   1.294
 2932W        W 7000   2.119   5.810   0.171
 2933W        W 7001   3.055   6.010   2.919
 2934W        W 7002   2.709   6.711   0.386
 2935W        W 7003   1.324   4.386   3.292
 2936W        W 7004   1.144   4.970   2.533
 2937W        W 7005   3.236   6.465   2.810
 2938W        W 7006   2.336   4.415   3.187
 2939W        W 7007   0.180   4.886   2.964
 2940W        W 7008   1.940   5.363   2.690
 2941W        W 7009   0.297   6.121   1.347
 2942W        W 7010   0.444   5.418   2.237
 2943W        W 7011   2.761   5.704   2.587
 2944W        W 7012   2.533   7.084   3.398
 2945W        W 7013   2.429   4.823   2.951
 2946W        W 7014   2.706   6.877   1.356
 2947W        W 7015   1.708   6.597   2.679
 2948W        W 7016   1.193   6.952   1.948
 2949W        W 7017   2.998   6.123   2.367
 2950W        W 7018   2.048   6.195   3.504
 2951W        W 7019   0.653   6.148   1.843
 2952W        W 7020   2.999   5.907   1.488
 2953W        W 7021   2.640   6.973   2.239
 2954W        W 7022   0.618   6.702   2.109
 2955W        W 7023   1.639   4.754   3.319
 2956W        W 7024   2.090   6.920   0.830
 2957W        W 7025   1.398   6.175   3.468
 2958W        W 7026   1.524   6.413   0.845
 2959W        W 7027   0.745   5.153   0.104
 2960W        W 7028   0.084   7.239   7.003
 2961W        W 7029   0.460   6.132   6.526
 2962W        W 7030   3.165   5.862   4.296
 2963W        W 7031   3.295   6.947   6.323
 2964W        W 7032   1.213   6.938   3.849
 2965W        W 7033   1.296   5.090   4.832
 2966W        W 7034   0.811   4.938   4.996
 2967W        W 7035   1.802   5.753   4.430
 2968W        W 7036   1.477   6.845   6.785
 2969W        W 7037   0.126   4.406   6.748
 2970W        W 7038   0.888   3.686   6.550
 2971W        W 7039   2.582   4.074   5.437
 2972W        W 7040   2.231   4.945   4.007
 2973W        W 7041   2.801   4.379   7.098
 2974W        W 7042   0.167   4.171   6.223
 2975W        W 7043   0.266   6.790   7.244
 2976W        W 7044   1.788   6.180   3.976
 2977W        W 7045   0.220   4.963   5.669
 2978W        W 7046   1.113   4.854   6.906
 2979W        W 7047   3.572   4.713   5.405
 2980W        W 7048   3.336   5.756   6.264
 2981W        W 7049   1.644   5.089   5.291
 2982W        W 7050   2.190   6.428   5.660
 2983W        W 7051   0.690   5.862   5.892
 2984W        W 7052   0.049   5.390   5.463
 2985W        W 7053   1.085   5.362   6.655
 2986W        W 7054   3.356   5.145   6.909
 2987W        W 7055   0.972   6.589   5.354
 2988W        W 7056   2.093   6.278   6.488
 2989W        W 7057   1.313   4.918   5.713
 2990W        W 7058   1.605   5.702   5.356
 2991W        W 7059   2.602   6.475   7.204
 2992W        W 7060   1.681   5.795   7.214
 2993W        W 7061   1.662   5.511   6.692
 2994W        W 7062   0.071   4.902   7.214
 2995W        W 7063   2.903   6.437   6.813
 2996W        W 7064   0.484   4.019   4.811
 2997W        W 7065   1.011   6.277   5.810
 2998W        W 7066   3.474   6.060   5.100
 2999W        W 7067   2.887   4.460   5.667
 3000W        W 7068   3.172   4.413   3.762
 3001W        W 7069   3.637   5.214   6.068
 3002W        W 7070   1.604   6.921   5.821
 3003W        W 7071   3.378   6.387   4.259
 3004W        W 7072   0.507   7.173   4.013
 3005W        W 7073   0.900   7.219   4.689
 3006W        W 7074   0.697   3.973   6.115
 3007W        W 7075   3.320   4.991   6.390
 3008W        W 7076   2.725   5.413   4.849
 3009W        W 7077   2.691   5.101   3.876
 3010W        W 7078   1.899   6.245   6.016
 3011W        W 7079   1.705   4.575   5.215
 3012W        W 7080   2.305   6.662   6.209
 3013W        W 7081   3.176   5.453   4.631
 3014W        W 7082   2.078   4.111   4.647
 3015W        W 7083   0.735   6.805   4.330
 3016W        W 7084   0.106   4.304   4.929
 3017W        W 7085   2.892   4.911   5.403
 3018W        W 7086   0.350   6.528   5.318
 3019W        W 7087   1.691   6.878   4.188
 3020W        W 7088   3.083   4.904   3.652
 3021W        W 7089   0.106   6.662   5.816
 3022W        W 7090   0.897   6.234   6.296
 3023W        W 7091   1.270   5.594   4.915
 3024W        W 7092   1.292   3.999   6.008
 3025W        W 7093   3.521   3.761   5.305
 3026W        W 7094   0.740   5.633   3.773
 3027W        W 7095   0.395   4.666   3.952
 3028W        W 7096   0.457   6.622   4.746
 3029W        W 7097   1.588   6.105   4.994
 3030W        W 7098   2.920   6.964   6.708
 3031W        W 7099   1.846   4.606   4.392
 3032W        W 7100   3.229   7.004   5.164
 3033W        W 7101   2.906   4.857   6.762
 3034W        W 7102   3.619   6.513   4.896
 3035W        W 7103   2.246   5.805   6.380
 3036W        W 7104   0.012   5.356   4.586
 3037W        W 7105   1.123   5.771   6.159
 3038W        W 7106   2.327   5.035   4.537
 3039W        W 7107   2.204   5.525   4.641
 3040W        W 7108   0.547   4.945   6.115
 3041W        W 7109   0.532   4.821   7.037
 3042W        W 7110   0.422   3.738   5.196
 3043W        W 7111   2.190   4.085   5.757
 3044W        W 7112   1.838   4.270   6.920
 3045W        W 7113   2.193   4.419   4.098
 3046W        W 7114   3.376   6.812   6.852
 3047W        W 7115   2.343   3.893   6.891
 3048W        W 7116   3.362   6.194   7.013
 3049W        W 7117   2.792   4.361   6.609
 3050W        W 7118   2.592   4.299   4.879
 3051W        W 7119   2.985   5.433   7.283
 3052W        W 7120   0.725   7.009   5.269
 3053W        W 7121   1.383   4.726   4.255
 3054W        W 7122   0.952   4.010   6.919
 3055W        W 7123   3.004   4.494   4.600
 3056W        W 7124   3.371   4.976   4.545
 3057W        W 7125   1.114   7.193   7.016
 3058W        W 7126   1.040   3.729   4.251
 3059W        W 7127   3.361   4.263   5.286
 3060W        W 7128   3.511   6.512   3.731
 3061W        W 7129   0.418   5.715   5.433
 3062W        W 7130   2.335   4.302   3.663
 3063W        W 7131   3.469   6.634   5.383
 3064W        W 7132   3.508   3.828   6.133
 3065W        W 7133   1.953   5.040   6.687
 3066W        W 7134   2.046   6.379   4.390
 3067W        W 7135   2.446   5.673   7.130
 3068W        W 7136   2.120   3.650   5.439
 3069W        W 7137   0.732   4.553   5.502
 3070W        W 7138   0.286   5.753   6.276
 3071W        W 7139   2.145   6.946   4.982
 3072W        W 7140   3.339   4.543   5.854
 3073W        W 7141   1.976   6.890   6.621
 3074W        W 7142   3.319   5.949   3.826
 3075W        W 7143   1.754   5.432   4.887
 3076W        W 7144   3.606   3.943   6.628
 3077W        W 7145   1.755   5.778   6.222
 3078W        W 7146   1.972   4.664   5.667
 3079W        W 7147   2.824   4.962   4.505
 3080W        W 7148   3.111   4.695   4.147
 3081W        W 7149   2.920   6.735   4.536
 3082W        W 7150   2.754   6.338   5.332
 3083W        W 7151   2.650   5.417   4.310
 3084W        W 7152   2.083   5.627   5.296
 3085W        W 7153   2.964   5.415   5.363
 3086W        W 7154   0.339   4.430   5.787
 3087W        W 7155   3.117   5.482   6.614
 3088W        W 7156   3.468   7.100   5.760
 3089W        W 7157   1.398   6.544   5.162
 3090W        W 7158   2.405   7.077   6.486
 3091W        W 7159   2.399   4.407   6.250
 3092W        W 7160   1.606   7.115   6.311
 3093W        W 7161   3.303   4.069   4.777
 3094W        W 7162   3.094   5.388   6.078
 3095W        W 7163   0.077   4.709   6.116
 3096W        W 7164   2.937   4.504   5.134
 3097W        W 7165   3.348   4.655   6.911
 3098W        W 7166   2.233   6.354   5.129
 3099W        W 7167   1.489   6.945   4.742
 3100W        W 7168   0.604   4.125   4.000
 3101W        W 7169   1.708   3.779   5.810
 3102W        W 7170   0.736   6.899   3.658
 3103W        W 7171   1.110   5.365   4.409
 3104W        W 7172   1.764   5.994   6.722
 3105W        W 7173   1.594   4.352   4.712
 3106W        W 7174   2.950   3.949   5.140
 3107W        W 7175   2.670   7.231   5.468
 3108W        W 7176   2.082   6.879   5.808
 3109W        W 7177   1.478   5.916   5.769
 3110W        W 7178   3.248   6.639   5.895
 3111W        W 7179   0.942   4.142   4.664
 3112W        W 7180   1.464   6.439   5.624
 3113W        W 7181   0.947   4.370   3.689
 3114W        W 7182   1.748   4.979   6.083
 3115W        W 7183   2.596   3.845   5.953
 3116W        W 7184   0.016   5.688   5.838
 3117W        W 7185   1.720   5.506   3.996
 3118W        W 7186   0.988   3.821   3.766
 3119W        W 7187   1.726   4.902   4.817
 3120W        W 7188   2.696   3.878   6.516
 3121W        W 7189   1.284   5.890   6.625
 3122W        W 7190   2.088   5.672   6.842
 3123W        W 7191   2.705   5.702   6.735
 3124W        W 7192   1.989   3.842   7.240
 3125W        W 7193   1.211   4.458   5.633
 3126W        W 7194   0.637   4.414   5.031
 3127W        W 7195   0.423   7.126   4.707
 3128W        W 7196   1.755   6.456   6.832
 3129W        W 7197   0.790   5.941   4.191
 3130W        W 7198   2.470   5.326   5.412
 3131W        W 7199   2.750   5.125   5.811
 3132W        W 7200   1.955   5.799   5.745
 3133W        W 7201   2.425   6.173   3.877
 3134W        W 7202   2.097   4.194   5.205
 3135W        W 7203   3.576   4.472   4.473
 3136W        W 7204   0.070   7.061   6.504
 3137W        W 7205   0.487   6.287   6.036
 3138W        W 7206   0.054   7.133   4.268
 3139W        W 7207   1.953   4.403   6.074
 3140W        W 7208   1.316   6.426   3.923
 3141W        W 7209   3.221   6.808   4.109
 3142W        W 7210   2.196   5.461   4.123
 3143W        W 7211   1.039   4.652   4.640
 3144W        W 7212   1.871   4.562   3.692
 3145W        W 7213   2.455   6.127   6.870
 3146W        W 7214   2.808   4.033   4.487
 3147W        W 7215   0.138   3.881   3.935
 3148W        W 7216   1.424   6.200   6.225
 3149W        W 7217   1.223   6.116   5.317
 3150W        W 7218   0.965   6.068   3.715
 3151W        W 7219   0.206   6.309   4.483
 3152W        W 7220   0.710   5.379   6.925
 3153W        W 7221   1.414   3.939   7.111
 3154W        W 7222   2.123   4.081   6.467
 3155W        W 7223   1.318   3.849   4.748
 3156W        W 7224   2.377   3.926   4.253
 3157W        W 7225   0.322   3.858   5.830
 3158W        W 7226   0.370   4.821   5.200
 3159W        W 7227   3.059   3.929   5.606
 3160W        W 7228   0.481   4.427   4.420
 3161W        W 7229   3.052   4.115   6.036
 3162W        W 7230   3.448   5.318   3.721
 3163W        W 7231   0.740   4.076   5.540
 3164W        W 7232   1.854   4.648   6.480
 3165W        W 7233   0.002   4.338   3.958
 3166W        W 7234   0.788   5.727   6.519
 3167W        W 7235   2.146   5.125   5.698
 3168W        W 7236   2.013   7.204   3.994
 3169W        W 7237   0.159   5.711   3.691
 3170W        W 7238   0.894   6.122   6.817
 3171W        W 7239   0.415   5.289   6.448
 3172W        W 7240   1.406   5.394   6.242
 3173W        W 7241   3.174   3.753   6.504
 3174W        W 7242   3.572   5.363   6.495
 3175W        W 7243   3.560   5.563   4.181
 3176W        W 7244   2.423   5.895   4.280
 3177W        W 7245   2.897   7.195   3.975
 3178W        W 7246   2.074   5.185   7.117
 3179W        W 7247   0.404   6.152   7.157
 3180W        W 7248   3.610   4.074   7.109
 3181W        W 7249   3.328   5.002   5.730
 3182W        W 7250   1.636   7.132   7.207
 3183W        W 7251   1.491   3.761   3.934
 3184W        W 7252   3.030   6.360   3.877
 3185W        W 7253   0.799   4.453   6.763
 3186W        W 7254   1.233   6.447   6.625
 3187W        W 7255   3.359   4.438   6.423
 3188W        W 7256   2.570   7.097   4.391
 3189W        W 7257   2.809   5.716   5.758
 3190W        W 7258   1.059   4.132   6.425
 3191W        W 7259   1.528   5.201   7.182
 3192W        W 7260   1.031   6.380   4.376
 3193W        W 7261   2.786   5.878   4.640
 3194W        W 7262   0.554   4.504   6.364
 3195W        W 7263   1.883   6.566   4.828
 3196W        W 7264   3.633   5.126   5.009
 3197W        W 7265   1.855   3.759   6.728
 3198W        W 7266   2.635   6.464   5.807
 3199W        W 7267   2.938   6.808   5.515
 3200W        W 7268   2.157   6.610   3.943
 3201W        W 7269   0.167   6.502   6.785
 3202W        W 7270   0.910   4.494   6.023
 3203W        W 7271   0.880   3.842   5.133
 3204W        W 7272   2.501   4.684   5.825
 3205W        W 7273   1.299   5.855   4.025
 3206W        W 7274   3.297   5.797   5.524
 3207W        W 7275   0.624   6.555   6.947
 3208W        W 7276   3.011   7.237   4.744
 3209W        W 7277   1.110   4.257   5.189
 3210W        W 7278   0.879   5.750   5.279
 3211W        W 7279   1.192   7.161   6.029
 3212W        W 7280   3.259   7.257   7.061
 3213W        W 7281   2.418   5.445   5.994
 3214W        W 7282   0.267   5.243   3.909
 3215W        W 7283   3.401   6.901   4.606
 3216W        W 7284   3.238   4.225   4.225
 3217W        W 7285   1.377   3.744   6.628
 3218W        W 7286   3.083   6.546   5.086
 3219W        W 7287   3.112   5.102   4.991
 3220W        W 7288   1.229   4.775   5.207
 3221W        W 7289   1.474   5.037   6.531
 3222W        W 7290   2.585   6.190   6.394
 3223W        W 7291   1.235   4.644   6.506
 3224W        W 7292   1.214   7.110   5.122
 3225W        W 7293   0.531   7.069   6.756
 3226W        W 7294   0.643   6.430   3.886
 3227W        W 7295   3.160   6.188   4.696
 3228W        W 7296   0.764   4.980   6.582
 3229W        W 7297   3.537   4.910   4.063
 3230W        W 7298   1.282   5.967   4.534
 3231W        W 7299   2.381   5.349   6.615
 3232W        W 7300   2.272   4.977   6.159
 3233W        W 7301   0.832   5.349   6.188
 3234W        W 7302   3.042   7.237   6.017
 3235W        W 7303   2.833   3.871   7.011
 3236W        W 7304   0.497   4.021   6.598
 3237W        W 7305   0.836   5.044   5.651
 3238W        W 7306   1.205   4.858   3.773
 3239W        W 7307   0.008   6.617   6.318
 3240W        W 7308   1.593   5.326   5.761
 3241W        W 7309   1.416   4.351   3.866
 3242W        W 7310   0.551   5.167   4.647
 3243W        W 7311   0.322   7.019   6.084
 3244W        W 7312   3.117   5.245   4.192
 3245W        W 7313   3.212   4.161   6.878
 3246W        W 7314   2.648   6.370   4.841
 3247W        W 7315   0.246   5.294   7.018
 3248W        W 7316   3.212   3.758   4.314
 3249W        W 7317   2.732   6.233   4.325
 3250W        W 7318   1.634   5.291   4.410
 3251W        W 7319   2.821   4.095   3.933
 3252W        W 7320   2.886   4.702   6.119
 3253W        W 7321   0.595   5.295   5.326
 3254W        W 7322   0.889   6.234   4.975
 3255W        W 7323   2.652   4.854   4.940
 3256W        W 7324   1.675   4.233   5.636
 3257W        W 7325   3.637   6.144   6.147
 3258W        W 7326   3.555   4.131   5.708
 3259W        W 7327   0.094   6.961   5.084
 3260W        W 7328   0.603   6.148   4.620
 3261W        W 7329   0.518   3.765   7.173
 3262W        W 7330   1.637   6.618   7.275
 3263W        W 7331   3.392   5.586   5.065
 3264W        W 7332   2.746   5.763   3.945
 3265W        W 7333   2.041   7.284   6.157
 3266W        W 7334   2.898   6.006   7.194
 3267W        W 7335   1.713   3.716   4.474
 3268W        W 7336   2.426   4.585   5.333
 3269W        W 7337   0.112   6.172   5.665
 3270W        W 7338   1.365   4.134   4.306
 3271W        W 7339   1.169   5.618   7.155
 3272W        W 7340   2.163   4.599   4.869
 3273W        W 7341   2.368   6.009   5.991
 3274W        W 7342   0.522   6.614   6.426
 3275W        W 7343   1.113   6.597   7.149
 3276W        W 7344   0.964   4.394   4.163
 3277W        W 7345   2.481   4.536   4.488
 3278W        W 7346   2.439   6.644   6.725
 3279W        W 7347   1.124   5.236   5.324
 3280W        W 7348   0.779   6.934   6.189
 3281W        W 7349   3.524   7.051   3.790
 3282W        W 7350   0.387   5.723   6.786
 3283W        W 7351   2.382   5.985   5.474
 3284W        W 7352   0.818   5.634   4.716
 3285W        W 7353   1.189   6.641   6.111
 3286W        W 7354   1.567   4.060   5.152
 3287W        W 7355   0.178   6.044   4.082
 3288W        W 7356   1.697   4.995   3.952
 3289W        W 7357   0.343   5.544   4.971
 3290W        W 7358   1.633   4.186   6.435
 3291W        W 7359   3.305   3.895   3.862
 3292W        W 7360   3.398   5.641   6.961
 3293W        W 7361   2.052   6.898   7.113
 3294W        W 7362   3.610   5.992   6.635
 3295W        W 7363   3.018   6.790   7.246
 3296W        W 7364   0.757   7.246   5.724
 3297W        W 7365   3.616   5.868   4.598
 3298W        W 7366   2.146   5.135   5.111
 3299W        W 7367   1.913   3.747   5.001
 3300W        W 7368   0.972   6.731   4.838
 3301W        W 7369   1.471   4.472   6.063
 3302W        W 7370   1.171   3.841   5.532
 3303W        W 7371   0.234   6.663   4.080
 3304W        W 7372   2.050   6.027   4.798
 3305W        W 7373   0.925   6.822   6.677
 3306W        W 7374   0.402   5.645   4.373
 3307W        W 7375   0.287   4.188   5.372
 3308W        W 7376   1.835   6.153   5.429
 3309W        W 7377   0.087   4.007   4.449
 3310W        W 7378   2.751   5.213   6.376
 3311W        W 7379   2.628   4.599   3.948
 3312W        W 7380   1.806   6.755   5.427
 3313W        W 7381   1.218   6.859   4.338
 3314W        W 7382   2.500   3.762   3.768
 3315W        W 7383   0.300   7.022   5.509
 3316W        W 7384   2.497   4.780   7.144
 3317W        W 7385   0.480   4.310   7.143
 3318W        W 7386   0.211   4.910   4.476
 3319W        W 7387   0.902   4.899   4.201
 3320W        W 7388   2.665   5.226   7.018
 3321W        W 7389   1.008   5.507   5.727
 3322W        W 7390   2.482   3.793   4.847
 3323W        W 7391   1.613   7.224   5.350
 3324W        W 7392   2.411   6.835   5.398
 3325W        W 7393   2.430   5.815   4.992
 3326W        W 7394   1.892   4.040   4.063
 3327W        W 7395   3.573   3.668   4.785
 3328W        W 7396   1.261   5.303   3.948
 3329W        W 7397   3.427   4.640   4.938
 3330W        W 7398   2.119   5.810   3.815
 3331W        W 7399   3.055   6.010   6.563
 3332W        W 7400   2.709   6.711   4.030
 3333W        W 7401   1.324   4.386   6.936
 3334W        W 7402   1.144   4.970   6.177
 3335W        W 7403   3.236   6.465   6.454
 3336W        W 7404   2.336   4.415   6.831
 3337W        W 7405   0.180   4.886   6.608
 3338W        W 7406   1.940   5.363   6.334
 3339W        W 7407   0.297   6.121   4.991
 3340W        W 7408   0.444   5.418   5.881
 3341W        W 7409   2.533   7.084   7.042
 3342W        W 7410   2.429   4.823   6.595
 3343W        W 7411   2.706   6.877   5.000
 3344W        W 7412   1.708   6.597   6.323
 3345W        W 7413   1.193   6.952   5.592
 3346W        W 7414   2.048   6.195   7.148
 3347W        W 7415   0.653   6.148   5.487
 3348W        W 7416   2.999   5.907   5.132
 3349W        W 7417   2.640   6.973   5.883
 3350W        W 7418   0.618   6.702   5.753
 3351W        W 7419   1.639   4.754   6.963
 3352W        W 7420   2.090   6.920   4.474
 3353W        W 7421   1.398   6.175   7.112
 3354W        W 7422   1.524   6.413   4.489
 3355W        W 7423   0.745   5.153   3.748
 3356W        W 7424   0.084   7.239  10.648
 3357W        W 7425   0.460   6.132  10.171
 3358W        W 7426   3.165   5.862   7.941
 3359W        W 7427   3.295   6.947   9.968
 3360W        W 7428   1.213   6.938   7.494
 3361W        W 7429   1.296   5.090   8.477
 3362W        W 7430   0.811   4.938   8.641
 3363W        W 7431   1.802   5.753   8.075
 3364W        W 7432   1.477   6.845  10.430
 3365W        W 7433   0.126   4.406  10.393
 3366W        W 7434   0.888   3.686  10.195
 3367W        W 7435   2.582   4.074   9.082
 3368W        W 7436   2.231   4.945   7.652
 3369W        W 7437   2.801   4.379  10.743
 3370W        W 7438   0.167   4.171   9.868
 3371W        W 7439   0.266   6.790  10.889
 3372W        W 7440   1.788   6.180   7.621
 3373W        W 7441   0.220   4.963   9.314
 3374W        W 7442   1.113   4.854  10.551
 3375W        W 7443   3.572   4.713   9.050
 3376W        W 7444   3.336   5.756   9.909
 3377W        W 7445   1.644   5.089   8.936
 3378W        W 7446   2.190   6.428   9.305
 3379W        W 7447   0.690   5.862   9.537
 3380W        W 7448   0.049   5.390   9.108
 3381W        W 7449   1.085   5.362  10.300
 3382W        W 7450   3.356   5.145  10.554
 3383W        W 7451   0.972   6.589   8.999
 3384W        W 7452   2.093   6.278  10.133
 3385W        W 7453   1.313   4.918   9.358
 3386W        W 7454   1.605   5.702   9.001
 3387W        W 7455   2.602   6.475  10.849
 3388W        W 7456   1.681   5.795  10.859
 3389W        W 7457   1.662   5.511  10.337
 3390W        W 7458   0.071   4.902  10.859
 3391W        W 7459   2.903   6.437  10.458
 3392W        W 7460   0.484   4.019   8.456
 3393W        W 7461   1.011   6.277   9.455
 3394W        W 7462   3.474   6.060   8.745
 3395W        W 7463   2.887   4.460   9.312
 3396W        W 7464   3.172   4.413   7.407
 3397W        W 7465   3.637   5.214   9.713
 3398W        W 7466   1.604   6.921   9.466
 3399W        W 7467   3.378   6.387   7.904
 3400W        W 7468   0.507   7.173   7.658
 3401W        W 7469   0.900   7.219   8.334
 3402W        W 7470   0.697   3.973   9.760
 3403W        W 7471   3.320   4.991  10.035
 3404W        W 7472   2.725   5.413   8.494
 3405W        W 7473   2.691   5.101   7.521
 3406W        W 7474   1.899   6.245   9.661
 3407W        W 7475   1.705   4.575   8.860
 3408W        W 7476   2.305   6.662   9.854
 3409W        W 7477   3.176   5.453   8.276
 3410W        W 7478   2.078   4.111   8.292
 3411W        W 7479   0.735   6.805   7.975
 3412W        W 7480   0.106   4.304   8.574
 3413W        W 7481   2.892   4.911   9.048
 3414W        W 7482   0.350   6.528   8.963
 3415W        W 7483   1.691   6.878   7.833
 3416W        W 7484   3.083   4.904   7.297
 3417W        W 7485   0.106   6.662   9.461
 3418W        W 7486   0.897   6.234   9.941
 3419W        W 7487   1.270   5.594   8.560
 3420W        W 7488   1.292   3.999   9.653
 3421W        W 7489   3.521   3.761   8.950
 3422W        W 7490   0.740   5.633   7.418
 3423W        W 7491   0.395   4.666   7.597
 3424W        W 7492   0.457   6.622   8.391
 3425W        W 7493   1.588   6.105   8.639
 3426W        W 7494   2.920   6.964  10.353
 3427W        W 7495   1.846   4.606   8.037
 3428W        W 7496   3.229   7.004   8.809
 3429W        W 7497   2.906   4.857  10.407
 3430W        W 7498   3.619   6.513   8.541
 3431W        W 7499   2.246   5.805  10.025
 3432W        W 7500   0.012   5.356   8.231
 3433W        W 7501   1.123   5.771   9.804
 3434W        W 7502   2.327   5.035   8.182
 3435W        W 7503   2.204   5.525   8.286
 3436W        W 7504   0.547   4.945   9.760
 3437W        W 7505   0.532   4.821  10.682
 3438W        W 7506   0.422   3.738   8.841
 3439W        W 7507   2.190   4.085   9.402
 3440W        W 7508   1.838   4.270  10.565
 3441W        W 7509   2.193   4.419   7.743
 3442W        W 7510   3.376   6.812  10.497
 3443W        W 7511   2.343   3.893  10.536
 3444W        W 7512   3.362   6.194  10.658
 3445W        W 7513   2.792   4.361  10.254
 3446W        W 7514   2.592   4.299   8.524
 3447W        W 7515   2.985   5.433  10.928
 3448W        W 7516   0.725   7.009   8.914
 3449W        W 7517   1.383   4.726   7.900
 3450W        W 7518   0.952   4.010  10.564
 3451W        W 7519   3.004   4.494   8.245
 3452W        W 7520   3.371   4.976   8.190
 3453W        W 7521   1.114   7.193  10.661
 3454W        W 7522   1.040   3.729   7.896
 3455W        W 7523   3.361   4.263   8.931
 3456W        W 7524   3.511   6.512   7.376
 3457W        W 7525   0.418   5.715   9.078
 3458W        W 7526   2.335   4.302   7.308
 3459W        W 7527   3.469   6.634   9.028
 3460W        W 7528   3.508   3.828   9.778
 3461W        W 7529   1.953   5.040  10.332
 3462W        W 7530   2.046   6.379   8.035
 3463W        W 7531   2.446   5.673  10.775
 3464W        W 7532   2.120   3.650   9.084
 3465W        W 7533   0.732   4.553   9.147
 3466W        W 7534   0.286   5.753   9.921
 3467W        W 7535   2.145   6.946   8.627
 3468W        W 7536   3.339   4.543   9.499
 3469W        W 7537   1.976   6.890  10.266
 3470W        W 7538   3.319   5.949   7.471
 3471W        W 7539   1.754   5.432   8.532
 3472W        W 7540   3.606   3.943  10.273
 3473W        W 7541   1.755   5.778   9.867
 3474W        W 7542   1.972   4.664   9.312
 3475W        W 7543   2.824   4.962   8.150
 3476W        W 7544   3.111   4.695   7.792
 3477W        W 7545   2.920   6.735   8.181
 3478W        W 7546   2.754   6.338   8.977
 3479W        W 7547   2.650   5.417   7.955
 3480W        W 7548   2.083   5.627   8.941
 3481W        W 7549   2.964   5.415   9.008
 3482W        W 7550   0.339   4.430   9.432
 3483W        W 7551   3.117   5.482  10.259
 3484W        W 7552   3.468   7.100   9.405
 3485W        W 7553   1.398   6.544   8.807
 3486W        W 7554   2.405   7.077  10.131
 3487W        W 7555   2.399   4.407   9.895
 3488W        W 7556   1.606   7.115   9.956
 3489W        W 7557   3.303   4.069   8.422
 3490W        W 7558   3.094   5.388   9.723
 3491W        W 7559   0.077   4.709   9.761
 3492W        W 7560   2.937   4.504   8.779
 3493W        W 7561   3.348   4.655  10.556
 3494W        W 7562   2.233   6.354   8.774
 3495W        W 7563   1.489   6.945   8.387
 3496W        W 7564   0.604   4.125   7.645
 3497W        W 7565   1.708   3.779   9.455
 3498W        W 7566   0.736   6.899   7.303
 3499W        W 7567   1.110   5.365   8.054
 3500W        W 7568   1.764   5.994  10.367
 3501W        W 7569   1.594   4.352   8.357
 3502W        W 7570   2.950   3.949   8.785
 3503W        W 7571   2.670   7.231   9.113
 3504W        W 7572   2.082   6.879   9.453
 3505W        W 7573   1.478   5.916   9.414
 3506W        W 7574   3.248   6.639   9.540
 3507W        W 7575   0.942   4.142   8.309
 3508W        W 7576   1.464   6.439   9.269
 3509W        W 7577   0.947   4.370   7.334
 3510W        W 7578   1.748   4.979   9.728
 3511W        W 7579   2.596   3.845   9.598
 3512W        W 7580   0.016   5.688   9.483
 3513W        W 7581   1.720   5.506   7.641
 3514W        W 7582   0.988   3.821   7.411
 3515W        W 7583   1.726   4.902   8.462
 3516W        W 7584   2.696   3.878  10.161
 3517W        W 7585   1.284   5.890  10.270
 3518W        W 7586   2.088   5.672  10.487
 3519W        W 7587   2.705   5.702  10.380
 3520W        W 7588   1.989   3.842  10.885
 3521W        W 7589   1.211   4.458   9.278
 3522W        W 7590   0.637   4.414   8.676
 3523W        W 7591   0.423   7.126   8.352
 3524W        W 7592   1.755   6.456  10.477
 3525W        W 7593   0.790   5.941   7.836
 3526W        W 7594   2.470   5.326   9.057
 3527W        W 7595   2.750   5.125   9.456
 3528W        W 7596   1.955   5.799   9.390
 3529W        W 7597   2.425   6.173   7.522
 3530W        W 7598   2.097   4.194   8.850
 3531W        W 7599   3.576   4.472   8.118
 3532W        W 7600   0.070   7.061  10.149
 3533W        W 7601   0.487   6.287   9.681
 3534W        W 7602   0.054   7.133   7.913
 3535W        W 7603   1.953   4.403   9.719
 3536W        W 7604   1.316   6.426   7.568
 3537W        W 7605   3.221   6.808   7.754
 3538W        W 7606   2.196   5.461   7.768
 3539W        W 7607   1.039   4.652   8.285
 3540W        W 7608   1.871   4.562   7.337
 3541W        W 7609   2.455   6.127  10.515
 3542W        W 7610   2.808   4.033   8.132
 3543W        W 7611   0.138   3.881   7.580
 3544W        W 7612   1.424   6.200   9.870
 3545W        W 7613   1.223   6.116   8.962
 3546W        W 7614   0.965   6.068   7.360
 3547W        W 7615   0.206   6.309   8.128
 3548W        W 7616   0.710   5.379  10.570
 3549W        W 7617   1.414   3.939  10.756
 3550W        W 7618   2.123   4.081  10.112
 3551W        W 7619   1.318   3.849   8.393
 3552W        W 7620   2.377   3.926   7.898
 3553W        W 7621   0.322   3.858   9.475
 3554W        W 7622   0.370   4.821   8.845
 3555W        W 7623   3.059   3.929   9.251
 3556W        W 7624   0.481   4.427   8.065
 3557W        W 7625   3.052   4.115   9.681
 3558W        W 7626   3.448   5.318   7.366
 3559W        W 7627   0.740   4.076   9.185
 3560W        W 7628   1.854   4.648  10.125
 3561W        W 7629   0.002   4.338   7.603
 3562W        W 7630   0.788   5.727  10.164
 3563W        W 7631   2.146   5.125   9.343
 3564W        W 7632   2.013   7.204   7.639
 3565W        W 7633   0.159   5.711   7.336
 3566W        W 7634   0.894   6.122  10.462
 3567W        W 7635   0.415   5.289  10.093
 3568W        W 7636   1.406   5.394   9.887
 3569W        W 7637   3.174   3.753  10.149
 3570W        W 7638   3.572   5.363  10.140
 3571W        W 7639   3.560   5.563   7.826
 3572W        W 7640   2.423   5.895   7.925
 3573W        W 7641   2.897   7.195   7.620
 3574W        W 7642   2.074   5.185  10.762
 3575W        W 7643   0.404   6.152  10.802
 3576W        W 7644   3.610   4.074  10.754
 3577W        W 7645   3.328   5.002   9.375
 3578W        W 7646   1.636   7.132  10.852
 3579W        W 7647   1.491   3.761   7.579
 3580W        W 7648   3.030   6.360   7.522
 3581W        W 7649   0.799   4.453  10.408
 3582W        W 7650   1.233   6.447  10.270
 3583W        W 7651   3.359   4.438  10.068
 3584W        W 7652   2.570   7.097   8.036
 3585W        W 7653   2.809   5.716   9.403
 3586W        W 7654   1.059   4.132  10.070
 3587W        W 7655   1.528   5.201  10.827
 3588W        W 7656   1.031   6.380   8.021
 3589W        W 7657   2.786   5.878   8.285
 3590W        W 7658   0.554   4.504  10.009
 3591W        W 7659   1.883   6.566   8.473
 3592W        W 7660   3.633   5.126   8.654
 3593W        W 7661   1.855   3.759  10.373
 3594W        W 7662   2.635   6.464   9.452
 3595W        W 7663   2.938   6.808   9.160
 3596W        W 7664   2.157   6.610   7.588
 3597W        W 7665   0.167   6.502  10.430
 3598W        W 7666   0.910   4.494   9.668
 3599W        W 7667   0.880   3.842   8.778
 3600W        W 7668   2.501   4.684   9.470
 3601W        W 7669   1.299   5.855   7.670
 3602W        W 7670   3.297   5.797   9.169
 3603W        W 7671   0.624   6.555  10.592
 3604W        W 7672   3.011   7.237   8.389
 3605W        W 7673   1.110   4.257   8.834
 3606W        W 7674   0.879   5.750   8.924
 3607W        W 7675   1.192   7.161   9.674
 3608W        W 7676   3.259   7.257  10.706
 3609W        W 7677   2.418   5.445   9.639
 3610W        W 7678   0.267   5.243   7.554
 3611W        W 7679   3.401   6.901   8.251
 3612W        W 7680   3.238   4.225   7.870
 3613W        W 7681   1.377   3.744  10.273
 3614W        W 7682   3.083   6.546   8.731
 3615W        W 7683   3.112   5.102   8.636
 3616W        W 7684   1.229   4.775   8.852
 3617W        W 7685   1.474   5.037  10.176
 3618W        W 7686   2.585   6.190  10.039
 3619W        W 7687   1.235   4.644  10.151
 3620W        W 7688   1.214   7.110   8.767
 3621W        W 7689   0.531   7.069  10.401
 3622W        W 7690   0.643   6.430   7.531
 3623W        W 7691   3.160   6.188   8.341
 3624W        W 7692   0.764   4.980  10.227
 3625W        W 7693   3.537   4.910   7.708
 3626W        W 7694   1.282   5.967   8.179
 3627W        W 7695   2.381   5.349  10.260
 3628W        W 7696   2.272   4.977   9.804
 3629W        W 7697   0.832   5.349   9.833
 3630W        W 7698   3.042   7.237   9.662
 3631W        W 7699   2.833   3.871  10.656
 3632W        W 7700   0.497   4.021  10.243
 3633W        W 7701   0.836   5.044   9.296
 3634W        W 7702   1.205   4.858   7.418
 3635W        W 7703   0.008   6.617   9.963
 3636W        W 7704   1.593   5.326   9.406
 3637W        W 7705   1.416   4.351   7.511
 3638W        W 7706   0.551   5.167   8.292
 3639W        W 7707   0.322   7.019   9.729
 3640W        W 7708   3.117   5.245   7.837
 3641W        W 7709   3.212   4.161  10.523
 3642W        W 7710   2.648   6.370   8.486
 3643W        W 7711   0.246   5.294  10.663
 3644W        W 7712   3.212   3.758   7.959
 3645W        W 7713   2.732   6.233   7.970
 3646W        W 7714   1.634   5.291   8.055
 3647W        W 7715   2.821   4.095   7.578
 3648W        W 7716   2.886   4.702   9.764
 3649W        W 7717   0.595   5.295   8.971
 3650W        W 7718   0.889   6.234   8.620
 3651W        W 7719   2.652   4.854   8.585
 3652W        W 7720   1.675   4.233   9.281
 3653W        W 7721   3.637   6.144   9.792
 3654W        W 7722   3.555   4.131   9.353
 3655W        W 7723   0.094   6.961   8.729
 3656W        W 7724   0.603   6.148   8.265
 3657W        W 7725   0.518   3.765  10.818
 3658W        W 7726   1.637   6.618  10.920
 3659W        W 7727   3.392   5.586   8.710
 3660W        W 7728   2.746   5.763   7.590
 3661W        W 7729   2.041   7.284   9.802
 3662W        W 7730   2.898   6.006  10.839
 3663W        W 7731   1.713   3.716   8.119
 3664W        W 7732   2.426   4.585   8.978
 3665W        W 7733   0.112   6.172   9.310
 3666W        W 7734   1.365   4.134   7.951
 3667W        W 7735   1.169   5.618  10.800
 3668W        W 7736   2.163   4.599   8.514
 3669W        W 7737   2.368   6.009   9.636
 3670W        W 7738   0.522   6.614  10.071
 3671W        W 7739   1.113   6.597  10.794
 3672W        W 7740   0.964   4.394   7.808
 3673W        W 7741   2.481   4.536   8.133
 3674W        W 7742   2.439   6.644  10.370
 3675W        W 7743   1.124   5.236   8.969
 3676W        W 7744   0.779   6.934   9.834
 3677W        W 7745   3.524   7.051   7.435
 3678W        W 7746   0.387   5.723  10.431
 3679W        W 7747   2.382   5.985   9.119
 3680W        W 7748   0.818   5.634   8.361
 3681W        W 7749   1.189   6.641   9.756
 3682W        W 7750   1.567   4.060   8.797
 3683W        W 7751   0.178   6.044   7.727
 3684W        W 7752   1.697   4.995   7.597
 3685W        W 7753   0.343   5.544   8.616
 3686W        W 7754   1.633   4.186  10.080
 3687W        W 7755   3.305   3.895   7.507
 3688W        W 7756   3.398   5.641  10.606
 3689W        W 7757   2.052   6.898  10.758
 3690W        W 7758   3.610   5.992  10.280
 3691W        W 7759   3.018   6.790  10.891
 3692W        W 7760   0.757   7.246   9.369
 3693W        W 7761   3.616   5.868   8.243
 3694W        W 7762   2.146   5.135   8.756
 3695W        W 7763   1.913   3.747   8.646
 3696W        W 7764   0.972   6.731   8.483
 3697W        W 7765   1.471   4.472   9.708
 3698W        W 7766   1.171   3.841   9.177
 3699W        W 7767   0.234   6.663   7.725
 3700W        W 7768   2.050   6.027   8.443
 3701W        W 7769   0.925   6.822  10.322
 3702W        W 7770   0.402   5.645   8.018
 3703W        W 7771   0.287   4.188   9.017
 3704W        W 7772   1.835   6.153   9.074
 3705W        W 7773   0.087   4.007   8.094
 3706W        W 7774   2.751   5.213  10.021
 3707W        W 7775   2.628   4.599   7.593
 3708W        W 7776   3.145   6.271   9.241
 3709W        W 7777   1.806   6.755   9.072
 3710W        W 7778   1.218   6.859   7.983
 3711W        W 7779   2.500   3.762   7.413
 3712W        W 7780   0.300   7.022   9.154
 3713W        W 7781   2.497   4.780  10.789
 3714W        W 7782   0.480   4.310  10.788
 3715W        W 7783   0.211   4.910   8.121
 3716W        W 7784   0.902   4.899   7.846
 3717W        W 7785   2.665   5.226  10.663
 3718W        W 7786   1.008   5.507   9.372
 3719W        W 7787   2.482   3.793   8.492
 3720W        W 7788   1.613   7.224   8.995
 3721W        W 7789   2.827   6.686   9.932
 3722W        W 7790   2.411   6.835   9.043
 3723W        W 7791   2.430   5.815   8.637
 3724W        W 7792   1.892   4.040   7.708
 3725W        W 7793   3.573   3.668   8.430
 3726W        W 7794   1.261   5.303   7.593
 3727W        W 7795   3.427   4.640   8.583
 3728W        W 7796   2.119   5.810   7.460
 3729W        W 7797   3.055   6.010  10.208
 3730W        W 7798   2.709   6.711   7.675
 3731W        W 7799   1.324   4.386  10.581
 3732W        W 7800   1.144   4.970   9.822
 3733W        W 7801   3.236   6.465  10.099
 3734W        W 7802   2.336   4.415  10.476
 3735W        W 7803   0.180   4.886  10.253
 3736W        W 7804   1.940   5.363   9.979
 3737W        W 7805   0.297   6.121   8.636
 3738W        W 7806   0.444   5.418   9.526
 3739W        W 7807   2.761   5.704   9.876
 3740W        W 7808   2.533   7.084  10.687
 3741W        W 7809   2.429   4.823  10.240
 3742W        W 7810   2.706   6.877   8.645
 3743W        W 7811   1.708   6.597   9.968
 3744W        W 7812   1.193   6.952   9.237
 3745W        W 7813   2.998   6.123   9.656
 3746W        W 7814   2.048   6.195  10.793
 3747W        W 7815   0.653   6.148   9.132
 3748W        W 7816   2.999   5.907   8.777
 3749W        W 7817   2.640   6.973   9.528
 3750W        W 7818   0.618   6.702   9.398
 3751W        W 7819   1.639   4.754  10.608
 3752W        W 7820   2.090   6.920   8.119
 3753W        W 7821   1.398   6.175  10.757
 3754W        W 7822   1.524   6.413   8.134
 3755W        W 7823   0.745   5.153   7.393
 3756W        W 7824   0.084   7.239  14.292
 3757W        W 7825   0.460   6.132  13.815
 3758W        W 7826   3.165   5.862  11.585
 3759W        W 7827   3.295   6.947  13.612
 3760W        W 7828   1.213   6.938  11.138
 3761W        W 7829   1.296   5.090  12.121
 3762W        W 7830   0.811   4.938  12.285
 3763W        W 7831   1.802   5.753  11.719
 3764W        W 7832   1.477   6.845  14.074
 3765W        W 7833   0.126   4.406  14.037
 3766W        W 7834   0.888   3.686  13.839
 3767W        W 7835   2.582   4.074  12.726
 3768W        W 7836   2.231   4.945  11.296
 3769W        W 7837   2.801   4.379  14.387
 3770W        W 7838   0.167   4.171  13.512
 3771W        W 7839   0.266   6.790  14.533
 3772W        W 7840   1.788   6.180  11.265
 3773W        W 7841   0.220   4.963  12.958
 3774W        W 7842   1.113   4.854  14.195
 3775W        W 7843   3.572   4.713  12.694
 3776W        W 7844   3.336   5.756  13.553
 3777W        W 7845   1.644   5.089  12.580
 3778W        W 7846   2.190   6.428  12.949
 3779W        W 7847   0.690   5.862  13.181
 3780W        W 7848   0.049   5.390  12.752
 3781W        W 7849   1.085   5.362  13.944
 3782W        W 7850   3.356   5.145  14.198
 3783W        W 7851   0.972   6.589  12.643
 3784W        W 7852   2.093   6.278  13.777
 3785W        W 7853   1.313   4.918  13.002
 3786W        W 7854   1.605   5.702  12.645
 3787W        W 7855   2.602   6.475  14.493
 3788W        W 7856   1.681   5.795  14.503
 3789W        W 7857   1.662   5.511  13.981
 3790W        W 7858   0.071   4.902  14.503
 3791W        W 7859   2.903   6.437  14.102
 3792W        W 7860   0.484   4.019  12.100
 3793W        W 7861   1.011   6.277  13.099
 3794W        W 7862   3.474   6.060  12.389
 3795W        W 7863   2.887   4.460  12.956
 3796W        W 7864   3.172   4.413  11.051
 3797W        W 7865   3.637   5.214  13.357
 3798W        W 7866   1.604   6.921  13.110
 3799W        W 7867   3.378   6.387  11.548
 3800W        W 7868   0.507   7.173  11.302
 3801W        W 7869   0.900   7.219  11.978
 3802W        W 7870   0.697   3.973  13.404
 3803W        W 7871   3.320   4.991  13.679
 3804W        W 7872   2.725   5.413  12.138
 3805W        W 7873   2.691   5.101  11.165
 3806W        W 7874   1.899   6.245  13.305
 3807W        W 7875   1.705   4.575  12.504
 3808W        W 7876   2.305   6.662  13.498
 3809W        W 7877   3.176   5.453  11.920
 3810W        W 7878   2.078   4.111  11.936
 3811W        W 7879   0.735   6.805  11.619
 3812W        W 7880   0.106   4.304  12.218
 3813W        W 7881   2.892   4.911  12.692
 3814W        W 7882   0.350   6.528  12.607
 3815W        W 7883   1.691   6.878  11.477
 3816W        W 7884   3.083   4.904  10.941
 3817W        W 7885   0.106   6.662  13.105
 3818W        W 7886   0.897   6.234  13.585
 3819W        W 7887   1.270   5.594  12.204
 3820W        W 7888   1.292   3.999  13.297
 3821W        W 7889   3.521   3.761  12.594
 3822W        W 7890   0.740   5.633  11.062
 3823W        W 7891   0.395   4.666  11.241
 3824W        W 7892   0.457   6.622  12.035
 3825W        W 7893   1.588   6.105  12.283
 3826W        W 7894   2.920   6.964  13.997
 3827W        W 7895   1.846   4.606  11.681
 3828W        W 7896   3.229   7.004  12.453
 3829W        W 7897   2.906   4.857  14.051
 3830W        W 7898   3.619   6.513  12.185
 3831W        W 7899   2.246   5.805  13.669
 3832W        W 7900   0.012   5.356  11.875
 3833W        W 7901   1.123   5.771  13.448
 3834W        W 7902   2.327   5.035  11.826
 3835W        W 7903   2.204   5.525  11.930
 3836W        W 7904   0.547   4.945  13.404
 3837W        W 7905   0.532   4.821  14.326
 3838W        W 7906   0.422   3.738  12.485
 3839W        W 7907   2.190   4.085  13.046
 3840W        W 7908   1.838   4.270  14.209
 3841W        W 7909   2.193   4.419  11.387
 3842W        W 7910   3.376   6.812  14.141
 3843W        W 7911   2.343   3.893  14.180
 3844W        W 7912   3.362   6.194  14.302
 3845W        W 7913   2.792   4.361  13.898
 3846W        W 7914   2.592   4.299  12.168
 3847W        W 7915   2.985   5.433  14.572
 3848W        W 7916   0.725   7.009  12.558
 3849W        W 7917   1.383   4.726  11.544
 3850W        W 7918   0.952   4.010  14.208
 3851W        W 7919   3.004   4.494  11.889
 3852W        W 7920   3.371   4.976  11.834
 3853W        W 7921   1.114   7.193  14.305
 3854W        W 7922   1.040   3.729  11.540
 3855W        W 7923   3.361   4.263  12.575
 3856W        W 7924   3.511   6.512  11.020
 3857W        W 7925   0.418   5.715  12.722
 3858W        W 7926   2.335   4.302  10.952
 3859W        W 7927   3.469   6.634  12.672
 3860W        W 7928   3.508   3.828  13.422
 3861W        W 7929   1.953   5.040  13.976
 3862W        W 7930   2.046   6.379  11.679
 3863W        W 7931   2.446   5.673  14.419
 3864W        W 7932   2.120   3.650  12.728
 3865W        W 7933   0.732   4.553  12.791
 3866W        W 7934   0.286   5.753  13.565
 3867W        W 7935   2.145   6.946  12.271
 3868W        W 7936   3.339   4.543  13.143
 3869W        W 7937   1.976   6.890  13.910
 3870W        W 7938   3.319   5.949  11.115
 3871W        W 7939   1.754   5.432  12.176
 3872W        W 7940   3.606   3.943  13.917
 3873W        W 7941   1.755   5.778  13.511
 3874W        W 7942   1.972   4.664  12.956
 3875W        W 7943   2.824   4.962  11.794
 3876W        W 7944   3.111   4.695  11.436
 3877W        W 7945   2.920   6.735  11.825
 3878W        W 7946   2.754   6.338  12.621
 3879W        W 7947   2.650   5.417  11.599
 3880W        W 7948   2.083   5.627  12.585
 3881W        W 7949   2.964   5.415  12.652
 3882W        W 7950   0.339   4.430  13.076
 3883W        W 7951   3.117   5.482  13.903
 3884W        W 7952   3.468   7.100  13.049
 3885W        W 7953   1.398   6.544  12.451
 3886W        W 7954   2.405   7.077  13.775
 3887W        W 7955   2.399   4.407  13.539
 3888W        W 7956   1.606   7.115  13.600
 3889W        W 7957   3.303   4.069  12.066
 3890W        W 7958   3.094   5.388  13.367
 3891W        W 7959   0.077   4.709  13.405
 3892W        W 7960   2.937   4.504  12.423
 3893W        W 7961   3.348   4.655  14.200
 3894W        W 7962   2.233   6.354  12.418
 3895W        W 7963   1.489   6.945  12.031
 3896W        W 7964   0.604   4.125  11.289
 3897W        W 7965   1.708   3.779  13.099
 3898W        W 7966   0.736   6.899  10.947
 3899W        W 7967   1.110   5.365  11.698
 3900W        W 7968   1.764   5.994  14.011
 3901W        W 7969   1.594   4.352  12.001
 3902W        W 7970   2.950   3.949  12.429
 3903W        W 7971   2.670   7.231  12.757
 3904W        W 7972   2.082   6.879  13.097
 3905W        W 7973   1.478   5.916  13.058
 3906W        W 7974   3.248   6.639  13.184
 3907W        W 7975   0.942   4.142  11.953
 3908W        W 7976   1.464   6.439  12.913
 3909W        W 7977   0.947   4.370  10.978
 3910W        W 7978   1.748   4.979  13.372
 3911W        W 7979   2.596   3.845  13.242
 3912W        W 7980   0.016   5.688  13.127
 3913W        W 7981   1.720   5.506  11.285
 3914W        W 7982   0.988   3.821  11.055
 3915W        W 7983   1.726   4.902  12.106
 3916W        W 7984   2.696   3.878  13.805
 3917W        W 7985   1.284   5.890  13.914
 3918W        W 7986   2.088   5.672  14.131
 3919W        W 7987   2.705   5.702  14.024
 3920W        W 7988   1.989   3.842  14.529
 3921W        W 7989   1.211   4.458  12.922
 3922W        W 7990   0.637   4.414  12.320
 3923W        W 7991   0.423   7.126  11.996
 3924W        W 7992   1.755   6.456  14.121
 3925W        W 7993   0.790   5.941  11.480
 3926W        W 7994   2.470   5.326  12.701
 3927W        W 7995   2.750   5.125  13.100
 3928W        W 7996   1.955   5.799  13.034
 3929W        W 7997   2.425   6.173  11.166
 3930W        W 7998   2.097   4.194  12.494
 3931W        W 7999   3.576   4.472  11.762
 3932W        W 8000   0.070   7.061  13.793
 3933W        W 8001   0.487   6.287  13.325
 3934W        W 8002   0.054   7.133  11.557
 3935W        W 8003   1.953   4.403  13.363
 3936W        W 8004   1.316   6.426  11.212
 3937W        W 8005   3.221   6.808  11.398
 3938W        W 8006   2.196   5.461  11.412
 3939W        W 8007   1.039   4.652  11.929
 3940W        W 8008   1.871   4.562  10.981
 3941W        W 8009   2.455   6.127  14.159
 3942W        W 8010   2.808   4.033  11.776
 3943W        W 8011   0.138   3.881  11.224
 3944W        W 8012   1.424   6.200  13.514
 3945W        W 8013   1.223   6.116  12.606
 3946W        W 8014   0.965   6.068  11.004
 3947W        W 8015   0.206   6.309  11.772
 3948W        W 8016   0.710   5.379  14.214
 3949W        W 8017   1.414   3.939  14.400
 3950W        W 8018   2.123   4.081  13.756
 3951W        W 8019   1.318   3.849  12.037
 3952W        W 8020   2.377   3.926  11.542
 3953W        W 8021   0.322   3.858  13.119
 3954W        W 8022   0.370   4.821  12.489
 3955W        W 8023   3.059   3.929  12.895
 3956W        W 8024   0.481   4.427  11.709
 3957W        W 8025   3.052   4.115  13.325
 3958W        W 8026   3.448   5.318  11.010
 3959W        W 8027   0.740   4.076  12.829
 3960W        W 8028   1.854   4.648  13.769
 3961W        W 8029   0.002   4.338  11.247
 3962W        W 8030   0.788   5.727  13.808
 3963W        W 8031   2.146   5.125  12.987
 3964W        W 8032   2.013   7.204  11.283
 3965W        W 8033   0.159   5.711  10.980
 3966W        W 8034   0.894   6.122  14.106
 3967W        W 8035   0.415   5.289  13.737
 3968W        W 8036   1.406   5.394  13.531
 3969W        W 8037   3.174   3.753  13.793
 3970W        W 8038   3.572   5.363  13.784
 3971W        W 8039   3.560   5.563  11.470
 3972W        W 8040   2.423   5.895  11.569
 3973W        W 8041   2.897   7.195  11.264
 3974W        W 8042   2.074   5.185  14.406
 3975W        W 8043   0.404   6.152  14.446
 3976W        W 8044   3.610   4.074  14.398
 3977W        W 8045   3.328   5.002  13.019
 3978W        W 8046   1.636   7.132  14.496
 3979W        W 8047   1.491   3.761  11.223
 3980W        W 8048   3.030   6.360  11.166
 3981W        W 8049   0.799   4.453  14.052
 3982W        W 8050   1.233   6.447  13.914
 3983W        W 8051   3.359   4.438  13.712
 3984W        W 8052   2.570   7.097  11.680
 3985W        W 8053   2.809   5.716  13.047
 3986W        W 8054   1.059   4.132  13.714
 3987W        W 8055   1.528   5.201  14.471
 3988W        W 8056   1.031   6.380  11.665
 3989W        W 8057   2.786   5.878  11.929
 3990W        W 8058   0.554   4.504  13.653
 3991W        W 8059   1.883   6.566  12.117
 3992W        W 8060   3.633   5.126  12.298
 3993W        W 8061   1.855   3.759  14.017
 3994W        W 8062   2.635   6.464  13.096
 3995W        W 8063   2.938   6.808  12.804
 3996W        W 8064   2.157   6.610  11.232
 3997W        W 8065   0.167   6.502  14.074
 3998W        W 8066   0.910   4.494  13.312
 3999W        W 8067   0.880   3.842  12.422
 4000W        W 8068   2.501   4.684  13.114
 4001W        W 8069   1.299   5.855  11.314
 4002W        W 8070   3.297   5.797  12.813
 4003W        W 8071   0.624   6.555  14.236
 4004W        W 8072   3.011   7.237  12.033
 4005W        W 8073   1.110   4.257  12.478
 4006W        W 8074   0.879   5.750  12.568
 4007W        W 8075   1.192   7.161  13.318
 4008W        W 8076   3.259   7.257  14.350
 4009W        W 8077   2.418   5.445  13.283
 4010W        W 8078   0.267   5.243  11.198
 4011W        W 8079   3.401   6.901  11.895
 4012W        W 8080   3.238   4.225  11.514
 4013W        W 8081   1.377   3.744  13.917
 4014W        W 8082   3.083   6.546  12.375
 4015W        W 8083   3.112   5.102  12.280
 4016W        W 8084   1.229   4.775  12.496
 4017W        W 8085   1.474   5.037  13.820
 4018W        W 8086   2.585   6.190  13.683
 4019W        W 8087   1.235   4.644  13.795
 4020W        W 8088   1.214   7.110  12.411
 4021W        W 8089   0.531   7.069  14.045
 4022W        W 8090   0.643   6.430  11.175
 4023W        W 8091   3.160   6.188  11.985
 4024W        W 8092   0.764   4.980  13.871
 4025W        W 8093   3.537   4.910  11.352
 4026W        W 8094   1.282   5.967  11.823
 4027W        W 8095   2.381   5.349  13.904
 4028W        W 8096   2.272   4.977  13.448
 4029W        W 8097   0.832   5.349  13.477
 4030W        W 8098   3.042   7.237  13.306
 4031W        W 8099   2.833   3.871  14.300
 4032W        W 8100   0.497   4.021  13.887
 4033W        W 8101   0.836   5.044  12.940
 4034W        W 8102   1.205   4.858  11.062
 4035W        W 8103   0.008   6.617  13.607
 4036W        W 8104   1.593   5.326  13.050
 4037W        W 8105   1.416   4.351  11.155
 4038W        W 8106   0.551   5.167  11.936
 4039W        W 8107   0.322   7.019  13.373
 4040W        W 8108   3.117   5.245  11.481
 4041W        W 8109   3.212   4.161  14.167
 4042W        W 8110   2.648   6.370  12.130
 4043W        W 8111   0.246   5.294  14.307
 4044W        W 8112   3.212   3.758  11.603
 4045W        W 8113   2.732   6.233  11.614
 4046W        W 8114   1.634   5.291  11.699
 4047W        W 8115   2.821   4.095  11.222
 4048W        W 8116   2.886   4.702  13.408
 4049W        W 8117   0.595   5.295  12.615
 4050W        W 8118   0.889   6.234  12.264
 4051W        W 8119   2.652   4.854  12.229
 4052W        W 8120   1.675   4.233  12.925
 4053W        W 8121   3.637   6.144  13.436
 4054W        W 8122   3.555   4.131  12.997
 4055W        W 8123   0.094   6.961  12.373
 4056W        W 8124   0.603   6.148  11.909
 4057W        W 8125   0.518   3.765  14.462
 4058W        W 8126   1.637   6.618  14.564
 4059W        W 8127   3.392   5.586  12.354
 4060W        W 8128   2.746   5.763  11.234
 4061W        W 8129   2.041   7.284  13.446
 4062W        W 8130   2.898   6.006  14.483
 4063W        W 8131   1.713   3.716  11.763
 4064W        W 8132   2.426   4.585  12.622
 4065W        W 8133   0.112   6.172  12.954
 4066W        W 8134   1.365   4.134  11.595
 4067W        W 8135   1.169   5.618  14.444
 4068W        W 8136   2.163   4.599  12.158
 4069W        W 8137   2.368   6.009  13.280
 4070W        W 8138   0.522   6.614  13.715
 4071W        W 8139   1.113   6.597  14.438
 4072W        W 8140   0.964   4.394  11.452
 4073W        W 8141   2.481   4.536  11.777
 4074W        W 8142   2.439   6.644  14.014
 4075W        W 8143   1.124   5.236  12.613
 4076W        W 8144   0.779   6.934  13.478
 4077W        W 8145   3.524   7.051  11.079
 4078W        W 8146   0.387   5.723  14.075
 4079W        W 8147   2.382   5.985  12.763
 4080W        W 8148   0.818   5.634  12.005
 4081W        W 8149   1.189   6.641  13.400
 4082W        W 8150   1.567   4.060  12.441
 4083W        W 8151   0.178   6.044  11.371
 4084W        W 8152   1.697   4.995  11.241
 4085W        W 8153   0.343   5.544  12.260
 4086W        W 8154   1.633   4.186  13.724
 4087W        W 8155   3.305   3.895  11.151
 4088W        W 8156   3.398   5.641  14.250
 4089W        W 8157   2.052   6.898  14.402
 4090W        W 8158   3.610   5.992  13.924
 4091W        W 8159   3.018   6.790  14.535
 4092W        W 8160   0.757   7.246  13.013
 4093W        W 8161   3.616   5.868  11.887
 4094W        W 8162   2.146   5.135  12.400
 4095W        W 8163   1.913   3.747  12.290
 4096W        W 8164   0.972   6.731  12.127
 4097W        W 8165   1.471   4.472  13.352
 4098W        W 8166   1.171   3.841  12.821
 4099W        W 8167   0.234   6.663  11.369
 4100W        W 8168   2.050   6.027  12.087
 4101W        W 8169   0.925   6.822  13.966
 4102W        W 8170   0.402   5.645  11.662
 4103W        W 8171   0.287   4.188  12.661
 4104W        W 8172   1.835   6.153  12.718
 4105W        W 8173   0.087   4.007  11.738
 4106W        W 8174   2.751   5.213  13.665
 4107W        W 8175   2.628   4.599  11.237
 4108W        W 8176   3.145   6.271  12.885
 4109W        W 8177   1.806   6.755  12.716
 4110W        W 8178   1.218   6.859  11.627
 4111W        W 8179   2.500   3.762  11.057
 4112W        W 8180   0.300   7.022  12.798
 4113W        W 8181   2.497   4.780  14.433
 4114W        W 8182   0.480   4.310  14.432
 4115W        W 8183   0.211   4.910  11.765
 4116W        W 8184   0.902   4.899  11.490
 4117W        W 8185   2.665   5.226  14.307
 4118W        W 8186   1.008   5.507  13.016
 4119W        W 8187   2.482   3.793  12.136
 4120W        W 8188   1.613   7.224  12.639
 4121W        W 8189   2.827   6.686  13.576
 4122W        W 8190   2.411   6.835  12.687
 4123W        W 8191   2.430   5.815  12.281
 4124W        W 8192   1.892   4.040  11.352
 4125W        W 8193   3.573   3.668  12.074
 4126W        W 8194   1.261   5.303  11.237
 4127W        W 8195   3.427   4.640  12.227
 4128W        W 8196   2.119   5.810  11.104
 4129W        W 8197   3.055   6.010  13.852
 4130W        W 8198   2.709   6.711  11.319
 4131W        W 8199   1.324   4.386  14.225
 4132W        W 8200   1.144   4.970  13.466
 4133W        W 8201   3.236   6.465  13.743
 4134W        W 8202   2.336   4.415  14.120
 4135W        W 8203   0.180   4.886  13.897
 4136W        W 8204   1.940   5.363  13.623
 4137W        W 8205   0.297   6.121  12.280
 4138W        W 8206   0.444   5.418  13.170
 4139W        W 8207   2.761   5.704  13.520
 4140W        W 8208   2.533   7.084  14.331
 4141W        W 8209   2.429   4.823  13.884
 4142W        W 8210   2.706   6.877  12.289
 4143W        W 8211   1.708   6.597  13.612
 4144W        W 8212   1.193   6.952  12.881
 4145W        W 8213   2.998   6.123  13.300
 4146W        W 8214   2.048   6.195  14.437
 4147W        W 8215   0.653   6.148  12.776
 4148W        W 8216   2.999   5.907  12.421
 4149W        W 8217   2.640   6.973  13.172
 4150W        W 8218   0.618   6.702  13.042
 4151W        W 8219   1.639   4.754  14.252
 4152W        W 8220   2.090   6.920  11.763
 4153W        W 8221   1.398   6.175  14.401
 4154W        W 8222   1.524   6.413  11.778
 4155W        W 8223   0.745   5.153  11.037
 4156W        W 8224   0.084   7.239  17.936
 4157W        W 8225   0.460   6.132  17.459
 4158W        W 8226   3.165   5.862  15.229
 4159W        W 8227   3.295   6.947  17.256
 4160W        W 8228   1.213   6.938  14.782
 4161W        W 8229   1.296   5.090  15.765
 4162W        W 8230   0.811   4.938  15.929
 4163W        W 8231   1.802   5.753  15.363
 4164W        W 8232   1.477   6.845  17.718
 4165W        W 8233   0.126   4.406  17.681
 4166W        W 8234   0.888   3.686  17.483
 4167W        W 8235   2.582   4.074  16.370
 4168W        W 8236   2.231   4.945  14.940
 4169W        W 8237   2.801   4.379  18.031
 4170W        W 8238   0.167   4.171  17.156
 4171W        W 8239   0.266   6.790  18.177
 4172W        W 8240   1.788   6.180  14.909
 4173W        W 8241   0.220   4.963  16.602
 4174W        W 8242   1.113   4.854  17.839
 4175W        W 8243   3.572   4.713  16.338
 4176W        W 8244   3.336   5.756  17.197
 4177W        W 8245   1.644   5.089  16.224
 4178W        W 8246   2.190   6.428  16.593
 4179W        W 8247   0.690   5.862  16.825
 4180W        W 8248   0.049   5.390  16.396
 4181W        W 8249   1.085   5.362  17.588
 4182W        W 8250   3.356   5.145  17.842
 4183W        W 8251   0.972   6.589  16.287
 4184W        W 8252   2.093   6.278  17.421
 4185W        W 8253   1.313   4.918  16.646
 4186W        W 8254   1.605   5.702  16.289
 4187W        W 8255   2.602   6.475  18.137
 4188W        W 8256   1.681   5.795  18.147
 4189W        W 8257   1.662   5.511  17.625
 4190W        W 8258   0.071   4.902  18.147
 4191W        W 8259   2.903   6.437  17.746
 4192W        W 8260   0.484   4.019  15.744
 4193W        W 8261   1.011   6.277  16.743
 4194W        W 8262   3.474   6.060  16.033
 4195W        W 8263   2.887   4.460  16.600
 4196W        W 8264   3.172   4.413  14.695
 4197W        W 8265   3.637   5.214  17.001
 4198W        W 8266   1.604   6.921  16.754
 4199W        W 8267   3.378   6.387  15.192
 4200W        W 8268   0.507   7.173  14.946
 4201W        W 8269   0.900   7.219  15.622
 4202W        W 8270   0.697   3.973  17.048
 4203W        W 8271   3.320   4.991  17.323
 4204W        W 8272   2.725   5.413  15.782
 4205W        W 8273   2.691   5.101  14.809
 4206W        W 8274   1.899   6.245  16.949
 4207W        W 8275   1.705   4.575  16.148
 4208W        W 8276   2.305   6.662  17.142
 4209W        W 8277   3.176   5.453  15.564
 4210W        W 8278   2.078   4.111  15.580
 4211W        W 8279   0.735   6.805  15.263
 4212W        W 8280   0.106   4.304  15.862
 4213W        W 8281   2.892   4.911  16.336
 4214W        W 8282   0.350   6.528  16.251
 4215W        W 8283   1.691   6.878  15.121
 4216W        W 8284   3.083   4.904  14.585
 4217W        W 8285   0.106   6.662  16.749
 4218W        W 8286   0.897   6.234  17.229
 4219W        W 8287   1.270   5.594  15.848
 4220W        W 8288   1.292   3.999  16.941
 4221W        W 8289   3.521   3.761  16.238
 4222W        W 8290   0.740   5.633  14.706
 4223W        W 8291   0.395   4.666  14.885
 4224W        W 8292   0.457   6.622  15.679
 4225W        W 8293   1.588   6.105  15.927
 4226W        W 8294   2.920   6.964  17.641
 4227W        W 8295   1.846   4.606  15.325
 4228W        W 8296   3.229   7.004  16.097
 4229W        W 8297   2.906   4.857  17.695
 4230W        W 8298   3.619   6.513  15.829
 4231W        W 8299   2.246   5.805  17.313
 4232W        W 8300   0.012   5.356  15.519
 4233W        W 8301   1.123   5.771  17.092
 4234W        W 8302   2.327   5.035  15.470
 4235W        W 8303   2.204   5.525  15.574
 4236W        W 8304   0.547   4.945  17.048
 4237W        W 8305   0.532   4.821  17.970
 4238W        W 8306   0.422   3.738  16.129
 4239W        W 8307   2.190   4.085  16.690
 4240W        W 8308   1.838   4.270  17.853
 4241W        W 8309   2.193   4.419  15.031
 4242W        W 8310   3.376   6.812  17.785
 4243W        W 8311   2.343   3.893  17.824
 4244W        W 8312   3.362   6.194  17.946
 4245W        W 8313   2.792   4.361  17.542
 4246W        W 8314   2.592   4.299  15.812
 4247W        W 8315   2.985   5.433  18.216
 4248W        W 8316   0.725   7.009  16.202
 4249W        W 8317   1.383   4.726  15.188
 4250W        W 8318   0.952   4.010  17.852
 4251W        W 8319   3.004   4.494  15.533
 4252W        W 8320   3.371   4.976  15.478
 4253W        W 8321   1.114   7.193  17.949
 4254W        W 8322   1.040   3.729  15.184
 4255W        W 8323   3.361   4.263  16.219
 4256W        W 8324   3.511   6.512  14.664
 4257W        W 8325   0.418   5.715  16.366
 4258W        W 8326   2.335   4.302  14.596
 4259W        W 8327   3.469   6.634  16.316
 4260W        W 8328   3.508   3.828  17.066
 4261W        W 8329   1.953   5.040  17.620
 4262W        W 8330   2.046   6.379  15.323
 4263W        W 8331   2.446   5.673  18.063
 4264W        W 8332   2.120   3.650  16.372
 4265W        W 8333   0.732   4.553  16.435
 4266W        W 8334   0.286   5.753  17.209
 4267W        W 8335   2.145   6.946  15.915
 4268W        W 8336   3.339   4.543  16.787
 4269W        W 8337   1.976   6.890  17.554
 4270W        W 8338   3.319   5.949  14.759
 4271W        W 8339   1.754   5.432  15.820
 4272W        W 8340   3.606   3.943  17.561
 4273W        W 8341   1.755   5.778  17.155
 4274W        W 8342   1.972   4.664  16.600
 4275W        W 8343   2.824   4.962  15.438
 4276W        W 8344   3.111   4.695  15.080
 4277W        W 8345   2.920   6.735  15.469
 4278W        W 8346   2.754   6.338  16.265
 4279W        W 8347   2.650   5.417  15.243
 4280W        W 8348   2.083   5.627  16.229
 4281W        W 8349   2.964   5.415  16.296
 4282W        W 8350   0.339   4.430  16.720
 4283W        W 8351   3.117   5.482  17.547
 4284W        W 8352   3.468   7.100  16.693
 4285W        W 8353   1.398   6.544  16.095
 4286W        W 8354   2.405   7.077  17.419
 4287W        W 8355   2.399   4.407  17.183
 4288W        W 8356   1.606   7.115  17.244
 4289W        W 8357   3.303   4.069  15.710
 4290W        W 8358   3.094   5.388  17.011
 4291W        W 8359   0.077   4.709  17.049
 4292W        W 8360   2.937   4.504  16.067
 4293W        W 8361   3.348   4.655  17.844
 4294W        W 8362   2.233   6.354  16.062
 4295W        W 8363   1.489   6.945  15.675
 4296W        W 8364   0.604   4.125  14.933
 4297W        W 8365   1.708   3.779  16.743
 4298W        W 8366   0.736   6.899  14.591
 4299W        W 8367   1.110   5.365  15.342
 4300W        W 8368   1.764   5.994  17.655
 4301W        W 8369   1.594   4.352  15.645
 4302W        W 8370   2.950   3.949  16.073
 4303W        W 8371   2.670   7.231  16.401
 4304W        W 8372   2.082   6.879  16.741
 4305W        W 8373   1.478   5.916  16.702
 4306W        W 8374   3.248   6.639  16.828
 4307W        W 8375   0.942   4.142  15.597
 4308W        W 8376   1.464   6.439  16.557
 4309W        W 8377   0.947   4.370  14.622
 4310W        W 8378   1.748   4.979  17.016
 4311W        W 8379   2.596   3.845  16.886
 4312W        W 8380   0.016   5.688  16.771
 4313W        W 8381   1.720   5.506  14.929
 4314W        W 8382   0.988   3.821  14.699
 4315W        W 8383   1.726   4.902  15.750
 4316W        W 8384   2.696   3.878  17.449
 4317W        W 8385   1.284   5.890  17.558
 4318W        W 8386   2.088   5.672  17.775
 4319W        W 8387   2.705   5.702  17.668
 4320W        W 8388   1.989   3.842  18.173
 4321W        W 8389   1.211   4.458  16.566
 4322W        W 8390   0.637   4.414  15.964
 4323W        W 8391   0.423   7.126  15.640
 4324W        W 8392   1.755   6.456  17.765
 4325W        W 8393   0.790   5.941  15.124
 4326W        W 8394   2.470   5.326  16.345
 4327W        W 8395   2.750   5.125  16.744
 4328W        W 8396   1.955   5.799  16.678
 4329W        W 8397   2.425   6.173  14.810
 4330W        W 8398   2.097   4.194  16.138
 4331W        W 8399   3.576   4.472  15.406
 4332W        W 8400   0.070   7.061  17.437
 4333W        W 8401   0.487   6.287  16.969
 4334W        W 8402   0.054   7.133  15.201
 4335W        W 8403   1.953   4.403  17.007
 4336W        W 8404   1.316   6.426  14.856
 4337W        W 8405   3.221   6.808  15.042
 4338W        W 8406   2.196   5.461  15.056
 4339W        W 8407   1.039   4.652  15.573
 4340W        W 8408   1.871   4.562  14.625
 4341W        W 8409   2.455   6.127  17.803
 4342W        W 8410   2.808   4.033  15.420
 4343W        W 8411   0.138   3.881  14.868
 4344W        W 8412   1.424   6.200  17.158
 4345W        W 8413   1.223   6.116  16.250
 4346W        W 8414   0.965   6.068  14.648
 4347W        W 8415   0.206   6.309  15.416
 4348W        W 8416   0.710   5.379  17.858
 4349W        W 8417   1.414   3.939  18.044
 4350W        W 8418   2.123   4.081  17.400
 4351W        W 8419   1.318   3.849  15.681
 4352W        W 8420   2.377   3.926  15.186
 4353W        W 8421   0.322   3.858  16.763
 4354W        W 8422   0.370   4.821  16.133
 4355W        W 8423   3.059   3.929  16.539
 4356W        W 8424   0.481   4.427  15.353
 4357W        W 8425   3.052   4.115  16.969
 4358W        W 8426   3.448   5.318  14.654
 4359W        W 8427   0.740   4.076  16.473
 4360W        W 8428   1.854   4.648  17.413
 4361W        W 8429   0.002   4.338  14.891
 4362W        W 8430   0.788   5.727  17.452
 4363W        W 8431   2.146   5.125  16.631
 4364W        W 8432   2.013   7.204  14.927
 4365W        W 8433   0.159   5.711  14.624
 4366W        W 8434   0.894   6.122  17.750
 4367W        W 8435   0.415   5.289  17.381
 4368W        W 8436   1.406   5.394  17.175
 4369W        W 8437   3.174   3.753  17.437
 4370W        W 8438   3.572   5.363  17.428
 4371W        W 8439   3.560   5.563  15.114
 4372W        W 8440   2.423   5.895  15.213
 4373W        W 8441   2.897   7.195  14.908
 4374W        W 8442   2.074   5.185  18.050
 4375W        W 8443   0.404   6.152  18.090
 4376W        W 8444   3.610   4.074  18.042
 4377W        W 8445   3.328   5.002  16.663
 4378W        W 8446   1.636   7.132  18.140
 4379W        W 8447   1.491   3.761  14.867
 4380W        W 8448   3.030   6.360  14.810
 4381W        W 8449   0.799   4.453  17.696
 4382W        W 8450   1.233   6.447  17.558
 4383W        W 8451   3.359   4.438  17.356
 4384W        W 8452   2.570   7.097  15.324
 4385W        W 8453   2.809   5.716  16.691
 4386W        W 8454   1.059   4.132  17.358
 4387W        W 8455   1.528   5.201  18.115
 4388W        W 8456   1.031   6.380  15.309
 4389W        W 8457   2.786   5.878  15.573
 4390W        W 8458   0.554   4.504  17.297
 4391W        W 8459   1.883   6.566  15.761
 4392W        W 8460   3.633   5.126  15.942
 4393W        W 8461   1.855   3.759  17.661
 4394W        W 8462   2.635   6.464  16.740
 4395W        W 8463   2.938   6.808  16.448
 4396W        W 8464   2.157   6.610  14.876
 4397W        W 8465   0.167   6.502  17.718
 4398W        W 8466   0.910   4.494  16.956
 4399W        W 8467   0.880   3.842  16.066
 4400W        W 8468   2.501   4.684  16.758
 4401W        W 8469   1.299   5.855  14.958
 4402W        W 8470   3.297   5.797  16.457
 4403W        W 8471   0.624   6.555  17.880
 4404W        W 8472   3.011   7.237  15.677
 4405W        W 8473   1.110   4.257  16.122
 4406W        W 8474   0.879   5.750  16.212
 4407W        W 8475   1.192   7.161  16.962
 4408W        W 8476   3.259   7.257  17.994
 4409W        W 8477   2.418   5.445  16.927
 4410W        W 8478   0.267   5.243  14.842
 4411W        W 8479   3.401   6.901  15.539
 4412W        W 8480   3.238   4.225  15.158
 4413W        W 8481   1.377   3.744  17.561
 4414W        W 8482   3.083   6.546  16.019
 4415W        W 8483   3.112   5.102  15.924
 4416W        W 8484   1.229   4.775  16.140
 4417W        W 8485   1.474   5.037  17.464
 4418W        W 8486   2.585   6.190  17.327
 4419W        W 8487   1.235   4.644  17.439
 4420W        W 8488   1.214   7.110  16.055
 4421W        W 8489   0.531   7.069  17.689
 4422W        W 8490   0.643   6.430  14.819
 4423W        W 8491   3.160   6.188  15.629
 4424W        W 8492   0.764   4.980  17.515
 4425W        W 8493   3.537   4.910  14.996
 4426W        W 8494   1.282   5.967  15.467
 4427W        W 8495   2.381   5.349  17.548
 4428W        W 8496   2.272   4.977  17.092
 4429W        W 8497   0.832   5.349  17.121
 4430W        W 8498   3.042   7.237  16.950
 4431W        W 8499   2.833   3.871  17.944
 4432W        W 8500   0.497   4.021  17.531
 4433W        W 8501   0.836   5.044  16.584
 4434W        W 8502   1.205   4.858  14.706
 4435W        W 8503   0.008   6.617  17.251
 4436W        W 8504   1.593   5.326  16.694
 4437W        W 8505   1.416   4.351  14.799
 4438W        W 8506   0.551   5.167  15.580
 4439W        W 8507   0.322   7.019  17.017
 4440W        W 8508   3.117   5.245  15.125
 4441W        W 8509   3.212   4.161  17.811
 4442W        W 8510   2.648   6.370  15.774
 4443W        W 8511   0.246   5.294  17.951
 4444W        W 8512   3.212   3.758  15.247
 4445W        W 8513   2.732   6.233  15.258
 4446W        W 8514   1.634   5.291  15.343
 4447W        W 8515   2.821   4.095  14.866
 4448W        W 8516   2.886   4.702  17.052
 4449W        W 8517   0.595   5.295  16.259
 4450W        W 8518   0.889   6.234  15.908
 4451W        W 8519   2.652   4.854  15.873
 4452W        W 8520   1.675   4.233  16.569
 4453W        W 8521   3.637   6.144  17.080
 4454W        W 8522   3.555   4.131  16.641
 4455W        W 8523   0.094   6.961  16.017
 4456W        W 8524   0.603   6.148  15.553
 4457W        W 8525   0.518   3.765  18.106
 4458W        W 8526   1.637   6.618  18.208
 4459W        W 8527   3.392   5.586  15.998
 4460W        W 8528   2.746   5.763  14.878
 4461W        W 8529   2.041   7.284  17.090
 4462W        W 8530   2.898   6.006  18.127
 4463W        W 8531   1.713   3.716  15.407
 4464W        W 8532   2.426   4.585  16.266
 4465W        W 8533   0.112   6.172  16.598
 4466W        W 8534   1.365   4.134  15.239
 4467W        W 8535   1.169   5.618  18.088
 4468W        W 8536   2.163   4.599  15.802
 4469W        W 8537   2.368   6.009  16.924
 4470W        W 8538   0.522   6.614  17.359
 4471W        W 8539   1.113   6.597  18.082
 4472W        W 8540   0.964   4.394  15.096
 4473W        W 8541   2.481   4.536  15.421
 4474W        W 8542   2.439   6.644  17.658
 4475W        W 8543   1.124   5.236  16.257
 4476W        W 8544   0.779   6.934  17.122
 4477W        W 8545   3.524   7.051  14.723
 4478W        W 8546   0.387   5.723  17.719
 4479W        W 8547   2.382   5.985  16.407
 4480W        W 8548   0.818   5.634  15.649
 4481W        W 8549   1.189   6.641  17.044
 4482W        W 8550   1.567   4.060  16.085
 4483W        W 8551   0.178   6.044  15.015
 4484W        W 8552   1.697   4.995  14.885
 4485W        W 8553   0.343   5.544  15.904
 4486W        W 8554   1.633   4.186  17.368
 4487W        W 8555   3.305   3.895  14.795
 4488W        W 8556   3.398   5.641  17.894
 4489W        W 8557   2.052   6.898  18.046
 4490W        W 8558   3.610   5.992  17.568
 4491W        W 8559   3.018   6.790  18.179
 4492W        W 8560   0.757   7.246  16.657
 4493W        W 8561   3.616   5.868  15.531
 4494W        W 8562   2.146   5.135  16.044
 4495W        W 8563   1.913   3.747  15.934
 4496W        W 8564   0.972   6.731  15.771
 4497W        W 8565   1.471   4.472  16.996
 4498W        W 8566   1.171   3.841  16.465
 4499W        W 8567   0.234   6.663  15.013
 4500W        W 8568   2.050   6.027  15.731
 4501W        W 8569   0.925   6.822  17.610
 4502W        W 8570   0.402   5.645  15.306
 4503W        W 8571   0.287   4.188  16.305
 4504W        W 8572   1.835   6.153  16.362
 4505W        W 8573   0.087   4.007  15.382
 4506W        W 8574   2.751   5.213  17.309
 4507W        W 8575   2.628   4.599  14.881
 4508W        W 8576   3.145   6.271  16.529
 4509W        W 8577   1.806   6.755  16.360
 4510W        W 8578   1.218   6.859  15.271
 4511W        W 8579   2.500   3.762  14.701
 4512W        W 8580   0.300   7.022  16.442
 4513W        W 8581   2.497   4.780  18.077
 4514W        W 8582   0.480   4.310  18.076
 4515W        W 8583   0.211   4.910  15.409
 4516W        W 8584   0.902   4.899  15.134
 4517W        W 8585   2.665   5.226  17.951
 4518W        W 8586   1.008   5.507  16.660
 4519W        W 8587   2.482   3.793  15.780
 4520W        W 8588   1.613   7.224  16.283
 4521W        W 8589   2.827   6.686  17.220
 4522W        W 8590   2.411   6.835  16.331
 4523W        W 8591   2.430   5.815  15.925
 4524W        W 8592   1.892   4.040  14.996
 4525W        W 8593   3.573   3.668  15.718
 4526W        W 8594   1.261   5.303  14.881
 4527W        W 8595   3.427   4.640  15.871
 4528W        W 8596   2.119   5.810  14.748
 4529W        W 8597   3.055   6.010  17.496
 4530W        W 8598   2.709   6.711  14.963
 4531W        W 8599   1.324   4.386  17.869
 4532W        W 8600   1.144   4.970  17.110
 4533W        W 8601   3.236   6.465  17.387
 4534W        W 8602   2.336   4.415  17.764
 4535W        W 8603   0.180   4.886  17.541
 4536W        W 8604   1.940   5.363  17.267
 4537W        W 8605   0.297   6.121  15.924
 4538W        W 8606   0.444   5.418  16.814
 4539W        W 8607   2.761   5.704  17.164
 4540W        W 8608   2.533   7.084  17.975
 4541W        W 8609   2.429   4.823  17.528
 4542W        W 8610   2.706   6.877  15.933
 4543W        W 8611   1.708   6.597  17.256
 4544W        W 8612   1.193   6.952  16.525
 4545W        W 8613   2.998   6.123  16.944
 4546W        W 8614   2.048   6.195  18.081
 4547W        W 8615   0.653   6.148  16.420
 4548W        W 8616   2.999   5.907  16.065
 4549W        W 8617   2.640   6.973  16.816
 4550W        W 8618   0.618   6.702  16.686
 4551W        W 8619   1.639   4.754  17.896
 4552W        W 8620   2.090   6.920  15.407
 4553W        W 8621   1.398   6.175  18.045
 4554W        W 8622   1.524   6.413  15.422
 4555W        W 8623   0.745   5.153  14.681
 4556W        W 8624   0.084   7.239  21.580
 4557W        W 8625   0.460   6.132  21.103
 4558W        W 8626   3.165   5.862  18.873
 4559W        W 8627   3.295   6.947  20.900
 4560W        W 8628   1.213   6.938  18.426
 4561W        W 8629   1.296   5.090  19.409
 4562W        W 8630   0.811   4.938  19.573
 4563W        W 8631   1.802   5.753  19.007
 4564W        W 8632   1.477   6.845  21.362
 4565W        W 8633   0.126   4.406  21.325
 4566W        W 8634   0.888   3.686  21.127
 4567W        W 8635   2.582   4.074  20.014
 4568W        W 8636   2.231   4.945  18.584
 4569W        W 8637   2.801   4.379  21.675
 4570W        W 8638   0.167   4.171  20.800
 4571W        W 8639   0.266   6.790  21.821
 4572W        W 8640   1.788   6.180  18.553
 4573W        W 8641   0.220   4.963  20.246
 4574W        W 8642   1.113   4.854  21.483
 4575W        W 8643   3.572   4.713  19.982
 4576W        W 8644   3.336   5.756  20.841
 4577W        W 8645   1.644   5.089  19.868
 4578W        W 8646   2.190   6.428  20.237
 4579W        W 8647   0.690   5.862  20.469
 4580W        W 8648   0.049   5.390  20.040
 4581W        W 8649   1.085   5.362  21.232
 4582W        W 8650   3.356   5.145  21.486
 4583W        W 8651   0.972   6.589  19.931
 4584W        W 8652   2.093   6.278  21.065
 4585W        W 8653   1.313   4.918  20.290
 4586W        W 8654   1.605   5.702  19.933
 4587W        W 8655   2.602   6.475  21.781
 4588W        W 8656   1.681   5.795  21.791
 4589W        W 8657   1.662   5.511  21.269
 4590W        W 8658   0.071   4.902  21.791
 4591W        W 8659   2.903   6.437  21.390
 4592W        W 8660   0.484   4.019  19.388
 4593W        W 8661   1.011   6.277  20.387
 4594W        W 8662   3.474   6.060  19.677
 4595W        W 8663   2.887   4.460  20.244
 4596W        W 8664   3.172   4.413  18.339
 4597W        W 8665   3.637   5.214  20.645
 4598W        W 8666   1.604   6.921  20.398
 4599W        W 8667   3.378   6.387  18.836
 4600W        W 8668   0.507   7.173  18.590
 4601W        W 8669   0.900   7.219  19.266
 4602W        W 8670   0.697   3.973  20.692
 4603W        W 8671   3.320   4.991  20.967
 4604W        W 8672   2.725   5.413  19.426
 4605W        W 8673   2.691   5.101  18.453
 4606W        W 8674   1.899   6.245  20.593
 4607W        W 8675   1.705   4.575  19.792
 4608W        W 8676   2.305   6.662  20.786
 4609W        W 8677   3.176   5.453  19.208
 4610W        W 8678   2.078   4.111  19.224
 4611W        W 8679   0.735   6.805  18.907
 4612W        W 8680   0.106   4.304  19.506
 4613W        W 8681   2.892   4.911  19.980
 4614W        W 8682   0.350   6.528  19.895
 4615W        W 8683   1.691   6.878  18.765
 4616W        W 8684   3.083   4.904  18.229
 4617W        W 8685   0.106   6.662  20.393
 4618W        W 8686   0.897   6.234  20.873
 4619W        W 8687   1.270   5.594  19.492
 4620W        W 8688   1.292   3.999  20.585
 4621W        W 8689   3.521   3.761  19.882
 4622W        W 8690   0.740   5.633  18.350
 4623W        W 8691   0.395   4.666  18.529
 4624W        W 8692   0.457   6.622  19.323
 4625W        W 8693   1.588   6.105  19.571
 4626W        W 8694   2.920   6.964  21.285
 4627W        W 8695   1.846   4.606  18.969
 4628W        W 8696   3.229   7.004  19.741
 4629W        W 8697   2.906   4.857  21.339
 4630W        W 8698   3.619   6.513  19.473
 4631W        W 8699   2.246   5.805  20.957
 4632W        W 8700   0.012   5.356  19.163
 4633W        W 8701   1.123   5.771  20.736
 4634W        W 8702   2.327   5.035  19.114
 4635W        W 8703   2.204   5.525  19.218
 4636W        W 8704   0.547   4.945  20.692
 4637W        W 8705   0.532   4.821  21.614
 4638W        W 8706   0.422   3.738  19.773
 4639W        W 8707   2.190   4.085  20.334
 4640W        W 8708   1.838   4.270  21.497
 4641W        W 8709   2.193   4.419  18.675
 4642W        W 8710   3.376   6.812  21.429
 4643W        W 8711   2.343   3.893  21.468
 4644W        W 8712   3.362   6.194  21.590
 4645W        W 8713   2.792   4.361  21.186
 4646W        W 8714   2.592   4.299  19.456
 4647W        W 8715   2.985   5.433  21.860
 4648W        W 8716   0.725   7.009  19.846
 4649W        W 8717   1.383   4.726  18.832
 4650W        W 8718   0.952   4.010  21.496
 4651W        W 8719   3.004   4.494  19.177
 4652W        W 8720   3.371   4.976  19.122
 4653W        W 8721   1.114   7.193  21.593
 4654W        W 8722   1.040   3.729  18.828
 4655W        W 8723   3.361   4.263  19.863
 4656W        W 8724   3.511   6.512  18.308
 4657W        W 8725   0.418   5.715  20.010
 4658W        W 8726   2.335   4.302  18.240
 4659W        W 8727   3.469   6.634  19.960
 4660W        W 8728   3.508   3.828  20.710
 4661W        W 8729   1.953   5.040  21.264
 4662W        W 8730   2.046   6.379  18.967
 4663W        W 8731   2.446   5.673  21.707
 4664W        W 8732   2.120   3.650  20.016
 4665W        W 8733   0.732   4.553  20.079
 4666W        W 8734   0.286   5.753  20.853
 4667W        W 8735   2.145   6.946  19.559
 4668W        W 8736   3.339   4.543  20.431
 4669W        W 8737   1.976   6.890  21.198
 4670W        W 8738   3.319   5.949  18.403
 4671W        W 8739   1.754   5.432  19.464
 4672W        W 8740   3.606   3.943  21.205
 4673W        W 8741   1.755   5.778  20.799
 4674W        W 8742   1.972   4.664  20.244
 4675W        W 8743   2.824   4.962  19.082
 4676W        W 8744   3.111   4.695  18.724
 4677W        W 8745   2.920   6.735  19.113
 4678W        W 8746   2.754   6.338  19.909
 4679W        W 8747   2.650   5.417  18.887
 4680W        W 8748   2.083   5.627  19.873
 4681W        W 8749   2.964   5.415  19.940
 4682W        W 8750   0.339   4.430  20.364
 4683W        W 8751   3.117   5.482  21.191
 4684W        W 8752   3.468   7.100  20.337
 4685W        W 8753   1.398   6.544  19.739
 4686W        W 8754   2.405   7.077  21.063
 4687W        W 8755   2.399   4.407  20.827
 4688W        W 8756   1.606   7.115  20.888
 4689W        W 8757   3.303   4.069  19.354
 4690W        W 8758   3.094   5.388  20.655
 4691W        W 8759   0.077   4.709  20.693
 4692W        W 8760   2.937   4.504  19.711
 4693W        W 8761   3.348   4.655  21.488
 4694W        W 8762   2.233   6.354  19.706
 4695W        W 8763   1.489   6.945  19.319
 4696W        W 8764   0.604   4.125  18.577
 4697W        W 8765   1.708   3.779  20.387
 4698W        W 8766   0.736   6.899  18.235
 4699W        W 8767   1.110   5.365  18.986
 4700W        W 8768   1.764   5.994  21.299
 4701W        W 8769   1.594   4.352  19.289
 4702W        W 8770   2.950   3.949  19.717
 4703W        W 8771   2.670   7.231  20.045
 4704W        W 8772   2.082   6.879  20.385
 4705W        W 8773   1.478   5.916  20.346
 4706W        W 8774   3.248   6.639  20.472
 4707W        W 8775   0.942   4.142  19.241
 4708W        W 8776   1.464   6.439  20.201
 4709W        W 8777   0.947   4.370  18.266
 4710W        W 8778   1.748   4.979  20.660
 4711W        W 8779   2.596   3.845  20.530
 4712W        W 8780   0.016   5.688  20.415
 4713W        W 8781   1.720   5.506  18.573
 4714W        W 8782   0.988   3.821  18.343
 4715W        W 8783   1.726   4.902  19.394
 4716W        W 8784   2.696   3.878  21.093
 4717W        W 8785   1.284   5.890  21.202
 4718W        W 8786   2.088   5.672  21.419
 4719W        W 8787   2.705   5.702  21.312
 4720W        W 8788   1.989   3.842  21.817
 4721W        W 8789   1.211   4.458  20.210
 4722W        W 8790   0.637   4.414  19.608
 4723W        W 8791   0.423   7.126  19.284
 4724W        W 8792   1.755   6.456  21.409
 4725W        W 8793   0.790   5.941  18.768
 4726W        W 8794   2.470   5.326  19.989
 4727W        W 8795   2.750   5.125  20.388
 4728W        W 8796   1.955   5.799  20.322
 4729W        W 8797   2.425   6.173  18.454
 4730W        W 8798   2.097   4.194  19.782
 4731W        W 8799   3.576   4.472  19.050
 4732W        W 8800   0.070   7.061  21.081
 4733W        W 8801   0.487   6.287  20.613
 4734W        W 8802   0.054   7.133  18.845
 4735W        W 8803   1.953   4.403  20.651
 4736W        W 8804   1.316   6.426  18.500
 4737W        W 8805   3.221   6.808  18.686
 4738W        W 8806   2.196   5.461  18.700
 4739W        W 8807   1.039   4.652  19.217
 4740W        W 8808   1.871   4.562  18.269
 4741W        W 8809   2.455   6.127  21.447
 4742W        W 8810   2.808   4.033  19.064
 4743W        W 8811   0.138   3.881  18.512
 4744W        W 8812   1.424   6.200  20.802
 4745W        W 8813   1.223   6.116  19.894
 4746W        W 8814   0.965   6.068  18.292
 4747W        W 8815   0.206   6.309  19.060
 4748W        W 8816   0.710   5.379  21.502
 4749W        W 8817   1.414   3.939  21.688
 4750W        W 8818   2.123   4.081  21.044
 4751W        W 8819   1.318   3.849  19.325
 4752W        W 8820   2.377   3.926  18.830
 4753W        W 8821   0.322   3.858  20.407
 4754W        W 8822   0.370   4.821  19.777
 4755W        W 8823   3.059   3.929  20.183
 4756W        W 8824   0.481   4.427  18.997
 4757W        W 8825   3.052   4.115  20.613
 4758W        W 8826   3.448   5.318  18.298
 4759W        W 8827   0.740   4.076  20.117
 4760W        W 8828   1.854   4.648  21.057
 4761W        W 8829   0.002   4.338  18.535
 4762W        W 8830   0.788   5.727  21.096
 4763W        W 8831   2.146   5.125  20.275
 4764W        W 8832   2.013   7.204  18.571
 4765W        W 8833   0.159   5.711  18.268
 4766W        W 8834   0.894   6.122  21.394
 4767W        W 8835   0.415   5.289  21.025
 4768W        W 8836   1.406   5.394  20.819
 4769W        W 8837   3.174   3.753  21.081
 4770W        W 8838   3.572   5.363  21.072
 4771W        W 8839   3.560   5.563  18.758
 4772W        W 8840   2.423   5.895  18.857
 4773W        W 8841   2.897   7.195  18.552
 4774W        W 8842   2.074   5.185  21.694
 4775W        W 8843   0.404   6.152  21.734
 4776W        W 8844   3.610   4.074  21.686
 4777W        W 8845   3.328   5.002  20.307
 4778W        W 8846   1.636   7.132  21.784
 4779W        W 8847   1.491   3.761  18.511
 4780W        W 8848   3.030   6.360  18.454
 4781W        W 8849   0.799   4.453  21.340
 4782W        W 8850   1.233   6.447  21.202
 4783W        W 8851   3.359   4.438  21.000
 4784W        W 8852   2.570   7.097  18.968
 4785W        W 8853   2.809   5.716  20.335
 4786W        W 8854   1.059   4.132  21.002
 4787W        W 8855   1.528   5.201  21.759
 4788W        W 8856   1.031   6.380  18.953
 4789W        W 8857   2.786   5.878  19.217
 4790W        W 8858   0.554   4.504  20.941
 4791W        W 8859   1.883   6.566  19.405
 4792W        W 8860   3.633   5.126  19.586
 4793W        W 8861   1.855   3.759  21.305
 4794W        W 8862   2.635   6.464  20.384
 4795W        W 8863   2.938   6.808  20.092
 4796W        W 8864   2.157   6.610  18.520
 4797W        W 8865   0.167   6.502  21.362
 4798W        W 8866   0.910   4.494  20.600
 4799W        W 8867   0.880   3.842  19.710
 4800W        W 8868   2.501   4.684  20.402
 4801W        W 8869   1.299   5.855  18.602
 4802W        W 8870   3.297   5.797  20.101
 4803W        W 8871   0.624   6.555  21.524
 4804W        W 8872   3.011   7.237  19.321
 4805W        W 8873   1.110   4.257  19.766
 4806W        W 8874   0.879   5.750  19.856
 4807W        W 8875   1.192   7.161  20.606
 4808W        W 8876   3.259   7.257  21.638
 4809W        W 8877   2.418   5.445  20.571
 4810W        W 8878   0.267   5.243  18.486
 4811W        W 8879   3.401   6.901  19.183
 4812W        W 8880   3.238   4.225  18.802
 4813W        W 8881   1.377   3.744  21.205
 4814W        W 8882   3.083   6.546  19.663
 4815W        W 8883   3.112   5.102  19.568
 4816W        W 8884   1.229   4.775  19.784
 4817W        W 8885   1.474   5.037  21.108
 4818W        W 8886   2.585   6.190  20.971
 4819W        W 8887   1.235   4.644  21.083
 4820W        W 8888   1.214   7.110  19.699
 4821W        W 8889   0.531   7.069  21.333
 4822W        W 8890   0.643   6.430  18.463
 4823W        W 8891   3.160   6.188  19.273
 4824W        W 8892   0.764   4.980  21.159
 4825W        W 8893   3.537   4.910  18.640
 4826W        W 8894   1.282   5.967  19.111
 4827W        W 8895   2.381   5.349  21.192
 4828W        W 8896   2.272   4.977  20.736
 4829W        W 8897   0.832   5.349  20.765
 4830W        W 8898   3.042   7.237  20.594
 4831W        W 8899   2.833   3.871  21.588
 4832W        W 8900   0.497   4.021  21.175
 4833W        W 8901   0.836   5.044  20.228
 4834W        W 8902   1.205   4.858  18.350
 4835W        W 8903   0.008   6.617  20.895
 4836W        W 8904   1.593   5.326  20.338
 4837W        W 8905   1.416   4.351  18.443
 4838W        W 8906   0.551   5.167  19.224
 4839W        W 8907   0.322   7.019  20.661
 4840W        W 8908   3.117   5.245  18.769
 4841W        W 8909   3.212   4.161  21.455
 4842W        W 8910   2.648   6.370  19.418
 4843W        W 8911   0.246   5.294  21.595
 4844W        W 8912   3.212   3.758  18.891
 4845W        W 8913   2.732   6.233  18.902
 4846W        W 8914   1.634   5.291  18.987
 4847W        W 8915   2.821   4.095  18.510
 4848W        W 8916   2.886   4.702  20.696
 4849W        W 8917   0.595   5.295  19.903
 4850W        W 8918   0.889   6.234  19.552
 4851W        W 8919   2.652   4.854  19.517
 4852W        W 8920   1.675   4.233  20.213
 4853W        W 8921   3.637   6.144  20.724
 4854W        W 8922   3.555   4.131  20.285
 4855W        W 8923   0.094   6.961  19.661
 4856W        W 8924   0.603   6.148  19.197
 4857W        W 8925   0.518   3.765  21.750
 4858W        W 8926   1.637   6.618  21.852
 4859W        W 8927   3.392   5.586  19.642
 4860W        W 8928   2.746   5.763  18.522
 4861W        W 8929   2.041   7.284  20.734
 4862W        W 8930   2.898   6.006  21.771
 4863W        W 8931   1.713   3.716  19.051
 4864W        W 8932   2.426   4.585  19.910
 4865W        W 8933   0.112   6.172  20.242
 4866W        W 8934   1.365   4.134  18.883
 4867W        W 8935   1.169   5.618  21.732
 4868W        W 8936   2.163   4.599  19.446
 4869W        W 8937   2.368   6.009  20.568
 4870W        W 8938   0.522   6.614  21.003
 4871W        W 8939   1.113   6.597  21.726
 4872W        W 8940   0.964   4.394  18.740
 4873W        W 8941   2.481   4.536  19.065
 4874W        W 8942   2.439   6.644  21.302
 4875W        W 8943   1.124   5.236  19.901
 4876W        W 8944   0.779   6.934  20.766
 4877W        W 8945   3.524   7.051  18.367
 4878W        W 8946   0.387   5.723  21.363
 4879W        W 8947   2.382   5.985  20.051
 4880W        W 8948   0.818   5.634  19.293
 4881W        W 8949   1.189   6.641  20.688
 4882W        W 8950   1.567   4.060  19.729
 4883W        W 8951   0.178   6.044  18.659
 4884W        W 8952   1.697   4.995  18.529
 4885W        W 8953   0.343   5.544  19.548
 4886W        W 8954   1.633   4.186  21.012
 4887W        W 8955   3.305   3.895  18.439
 4888W        W 8956   3.398   5.641  21.538
 4889W        W 8957   2.052   6.898  21.690
 4890W        W 8958   3.610   5.992  21.212
 4891W        W 8959   3.018   6.790  21.823
 4892W        W 8960   0.757   7.246  20.301
 4893W        W 8961   3.616   5.868  19.175
 4894W        W 8962   2.146   5.135  19.688
 4895W        W 8963   1.913   3.747  19.578
 4896W        W 8964   0.972   6.731  19.415
 4897W        W 8965   1.471   4.472  20.640
 4898W        W 8966   1.171   3.841  20.109
 4899W        W 8967   0.234   6.663  18.657
 4900W        W 8968   2.050   6.027  19.375
 4901W        W 8969   0.925   6.822  21.254
 4902W        W 8970   0.402   5.645  18.950
 4903W        W 8971   0.287   4.188  19.949
 4904W        W 8972   1.835   6.153  20.006
 4905W        W 8973   0.087   4.007  19.026
 4906W        W 8974   2.751   5.213  20.953
 4907W        W 8975   2.628   4.599  18.525
 4908W        W 8976   3.145   6.271  20.173
 4909W        W 8977   1.806   6.755  20.004
 4910W        W 8978   1.218   6.859  18.915
 4911W        W 8979   2.500   3.762  18.345
 4912W        W 8980   0.300   7.022  20.086
 4913W        W 8981   2.497   4.780  21.721
 4914W        W 8982   0.480   4.310  21.720
 4915W        W 8983   0.211   4.910  19.053
 4916W        W 8984   0.902   4.899  18.778
 4917W        W 8985   2.665   5.226  21.595
 4918W        W 8986   1.008   5.507  20.304
 4919W        W 8987   2.482   3.793  19.424
 4920W        W 8988   1.613   7.224  19.927
 4921W        W 8989   2.827   6.686  20.864
 4922W        W 8990   2.411   6.835  19.975
 4923W        W 8991   2.430   5.815  19.569
 4924W        W 8992   1.892   4.040  18.640
 4925W        W 8993   3.573   3.668  19.362
 4926W        W 8994   1.261   5.303  18.525
 4927W        W 8995   3.427   4.640  19.515
 4928W        W 8996   2.119   5.810  18.392
 4929W        W 8997   3.055   6.010  21.140
 4930W        W 8998   2.709   6.711  18.607
 4931W        W 8999   1.324   4.386  21.513
 4932W        W 9000   1.144   4.970  20.754
 4933W        W 9001   3.236   6.465  21.031
 4934W        W 9002   2.336   4.415  21.408
 4935W        W 9003   0.180   4.886  21.185
 4936W        W 9004   1.940   5.363  20.911
 4937W        W 9005   0.297   6.121  19.568
 4938W        W 9006   0.444   5.418  20.458
 4939W        W 9007   2.761   5.704  20.808
 4940W        W 9008   2.533   7.084  21.619
 4941W        W 9009   2.429   4.823  21.172
 4942W        W 9010   2.706   6.877  19.577
 4943W        W 9011   1.708   6.597  20.900
 4944W        W 9012   1.193   6.952  20.169
 4945W        W 9013   2.998   6.123  20.588
 4946W        W 9014   2.048   6.195  21.725
 4947W        W 9015   0.653   6.148  20.064
 4948W        W 9016   2.999   5.907  19.709
 4949W        W 9017   2.640   6.973  20.460
 4950W        W 9018   0.618   6.702  20.330
 4951W        W 9019   1.639   4.754  21.540
 4952W        W 9020   2.090   6.920  19.051
 4953W        W 9021   1.398   6.175  21.689
 4954W        W 9022   1.524   6.413  19.066
 4955W        W 9023   0.745   5.153  18.325
 4956W        W 9024   3.165   5.862  22.518
 4957W        W 9025   1.213   6.938  22.071
 4958W        W 9026   1.296   5.090  23.054
 4959W        W 9027   0.811   4.938  23.218
 4960W        W 9028   1.802   5.753  22.652
 4961W        W 9029   2.231   4.945  22.229
 4962W        W 9030   1.788   6.180  22.198
 4963W        W 9031   0.484   4.019  23.033
 4964W        W 9032   3.172   4.413  21.984
 4965W        W 9033   3.378   6.387  22.481
 4966W        W 9034   0.507   7.173  22.235
 4967W        W 9035   0.900   7.219  22.911
 4968W        W 9036   2.725   5.413  23.071
 4969W        W 9037   2.691   5.101  22.098
 4970W        W 9038   3.176   5.453  22.853
 4971W        W 9039   2.078   4.111  22.869
 4972W        W 9040   0.735   6.805  22.552
 4973W        W 9041   1.691   6.878  22.410
 4974W        W 9042   3.083   4.904  21.874
 4975W        W 9043   1.270   5.594  23.137
 4976W        W 9044   0.740   5.633  21.995
 4977W        W 9045   0.395   4.666  22.174
 4978W        W 9046   0.457   6.622  22.968
 4979W        W 9047   1.588   6.105  23.216
 4980W        W 9048   1.846   4.606  22.614
 4981W        W 9049   0.012   5.356  22.808
 4982W        W 9050   2.327   5.035  22.759
 4983W        W 9051   2.204   5.525  22.863
 4984W        W 9052   2.193   4.419  22.320
 4985W        W 9053   2.592   4.299  23.101
 4986W        W 9054   1.383   4.726  22.477
 4987W        W 9055   3.004   4.494  22.822
 4988W        W 9056   3.371   4.976  22.767
 4989W        W 9057   1.040   3.729  22.473
 4990W        W 9058   3.511   6.512  21.953
 4991W        W 9059   2.335   4.302  21.885
 4992W        W 9060   2.046   6.379  22.612
 4993W        W 9061   2.145   6.946  23.204
 4994W        W 9062   3.319   5.949  22.048
 4995W        W 9063   1.754   5.432  23.109
 4996W        W 9064   2.824   4.962  22.727
 4997W        W 9065   3.111   4.695  22.369
 4998W        W 9066   2.920   6.735  22.758
 4999W        W 9067   2.650   5.417  22.532
 5000W        W 9068   3.303   4.069  22.999
 5001W        W 9069   1.489   6.945  22.964
 5002W        W 9070   0.604   4.125  22.222
 5003W        W 9071   0.736   6.899  21.880
 5004W        W 9072   1.110   5.365  22.631
 5005W        W 9073   1.594   4.352  22.934
 5006W        W 9074   0.942   4.142  22.886
 5007W        W 9075   0.947   4.370  21.911
 5008W        W 9076   1.720   5.506  22.218
 5009W        W 9077   0.988   3.821  21.988
 5010W        W 9078   1.726   4.902  23.039
 5011W        W 9079   0.637   4.414  23.253
 5012W        W 9080   0.423   7.126  22.929
 5013W        W 9081   0.790   5.941  22.413
 5014W        W 9082   2.425   6.173  22.099
 5015W        W 9083   3.576   4.472  22.695
 5016W        W 9084   0.054   7.133  22.490
 5017W        W 9085   1.316   6.426  22.145
 5018W        W 9086   3.221   6.808  22.331
 5019W        W 9087   2.196   5.461  22.345
 5020W        W 9088   1.039   4.652  22.862
 5021W        W 9089   1.871   4.562  21.914
 5022W        W 9090   2.808   4.033  22.709
 5023W        W 9091   0.138   3.881  22.157
 5024W        W 9092   0.965   6.068  21.937
 5025W        W 9093   0.206   6.309  22.705
 5026W        W 9094   1.318   3.849  22.970
 5027W        W 9095   2.377   3.926  22.475
 5028W        W 9096   0.481   4.427  22.642
 5029W        W 9097   3.448   5.318  21.943
 5030W        W 9098   0.002   4.338  22.180
 5031W        W 9099   2.013   7.204  22.216
 5032W        W 9100   0.159   5.711  21.913
 5033W        W 9101   3.560   5.563  22.403
 5034W        W 9102   2.423   5.895  22.502
 5035W        W 9103   2.897   7.195  22.197
 5036W        W 9104   1.491   3.761  22.156
 5037W        W 9105   3.030   6.360  22.099
 5038W        W 9106   2.570   7.097  22.613
 5039W        W 9107   1.031   6.380  22.598
 5040W        W 9108   2.786   5.878  22.862
 5041W        W 9109   1.883   6.566  23.050
 5042W        W 9110   3.633   5.126  23.231
 5043W        W 9111   2.157   6.610  22.165
 5044W        W 9112   1.299   5.855  22.247
 5045W        W 9113   3.011   7.237  22.966
 5046W        W 9114   0.267   5.243  22.131
 5047W        W 9115   3.401   6.901  22.828
 5048W        W 9116   3.238   4.225  22.447
 5049W        W 9117   3.112   5.102  23.213
 5050W        W 9118   0.643   6.430  22.108
 5051W        W 9119   3.160   6.188  22.918
 5052W        W 9120   3.537   4.910  22.285
 5053W        W 9121   1.282   5.967  22.756
 5054W        W 9122   1.205   4.858  21.995
 5055W        W 9123   1.416   4.351  22.088
 5056W        W 9124   0.551   5.167  22.869
 5057W        W 9125   3.117   5.245  22.414
 5058W        W 9126   2.648   6.370  23.063
 5059W        W 9127   3.212   3.758  22.536
 5060W        W 9128   2.732   6.233  22.547
 5061W        W 9129   1.634   5.291  22.632
 5062W        W 9130   2.821   4.095  22.155
 5063W        W 9131   0.889   6.234  23.197
 5064W        W 9132   2.652   4.854  23.162
 5065W        W 9133   0.094   6.961  23.306
 5066W        W 9134   0.603   6.148  22.842
 5067W        W 9135   3.392   5.586  23.287
 5068W        W 9136   2.746   5.763  22.167
 5069W        W 9137   1.713   3.716  22.696
 5070W        W 9138   1.365   4.134  22.528
 5071W        W 9139   2.163   4.599  23.091
 5072W        W 9140   0.964   4.394  22.385
 5073W        W 9141   2.481   4.536  22.710
 5074W        W 9142   3.524   7.051  22.012
 5075W        W 9143   0.178   6.044  22.304
 5076W        W 9144   1.697   4.995  22.174
 5077W        W 9145   0.343   5.544  23.193
 5078W        W 9146   3.305   3.895  22.084
 5079W        W 9147   3.616   5.868  22.820
 5080W        W 9148   1.913   3.747  23.223
 5081W        W 9149   0.972   6.731  23.060
 5082W        W 9150   0.234   6.663  22.302
 5083W        W 9151   2.050   6.027  23.020
 5084W        W 9152   0.402   5.645  22.595
 5085W        W 9153   0.087   4.007  22.671
 5086W        W 9154   2.628   4.599  22.170
 5087W        W 9155   1.218   6.859  22.560
 5088W        W 9156   2.500   3.762  21.990
 5089W        W 9157   0.211   4.910  22.698
 5090W        W 9158   0.902   4.899  22.423
 5091W        W 9159   2.430   5.815  23.214
 5092W        W 9160   1.892   4.040  22.285
 5093W        W 9161   3.573   3.668  23.007
 5094W        W 9162   1.261   5.303  22.170
 5095W        W 9163   3.427   4.640  23.160
 5096W        W 9164   2.119   5.810  22.037
 5097W        W 9165   2.709   6.711  22.252
 5098W        W 9166   0.297   6.121  23.213
 5099W        W 9167   2.706   6.877  23.222
 5100W        W 9168   2.090   6.920  22.696
 5101W        W 9169   1.524   6.413  22.711
 5102W        W 9170   0.745   5.153  21.970
 5103W        W 9171   0.084  10.884   3.359
 5104W        W 9172   0.460   9.777   2.882
 5105W        W 9173   3.165   9.507   0.652
 5106W        W 9174   3.295  10.592   2.679
 5107W        W 9175   1.213  10.583   0.205
 5108W        W 9176   1.296   8.735   1.188
 5109W        W 9177   0.811   8.583   1.352
 5110W        W 9178   1.802   9.398   0.786
 5111W        W 9179   1.477  10.490   3.141
 5112W        W 9180   0.126   8.051   3.104
 5113W        W 9181   0.888   7.331   2.906
 5114W        W 9182   2.582   7.719   1.793
 5115W        W 9183   2.231   8.590   0.363
 5116W        W 9184   2.801   8.024   3.454
 5117W        W 9185   0.167   7.816   2.579
 5118W        W 9186   0.266  10.435   3.600
 5119W        W 9187   1.788   9.825   0.332
 5120W        W 9188   0.220   8.608   2.025
 5121W        W 9189   1.113   8.499   3.262
 5122W        W 9190   3.572   8.358   1.761
 5123W        W 9191   3.336   9.401   2.620
 5124W        W 9192   1.644   8.734   1.647
 5125W        W 9193   2.190  10.073   2.016
 5126W        W 9194   0.690   9.507   2.248
 5127W        W 9195   0.049   9.035   1.819
 5128W        W 9196   1.085   9.007   3.011
 5129W        W 9197   3.356   8.790   3.265
 5130W        W 9198   0.972  10.234   1.710
 5131W        W 9199   2.093   9.923   2.844
 5132W        W 9200   1.313   8.563   2.069
 5133W        W 9201   1.605   9.347   1.712
 5134W        W 9202   2.602  10.120   3.560
 5135W        W 9203   1.681   9.440   3.570
 5136W        W 9204   1.662   9.156   3.048
 5137W        W 9205   0.071   8.547   3.570
 5138W        W 9206   2.903  10.082   3.169
 5139W        W 9207   0.484   7.664   1.167
 5140W        W 9208   1.011   9.922   2.166
 5141W        W 9209   3.474   9.705   1.456
 5142W        W 9210   2.887   8.105   2.023
 5143W        W 9211   3.172   8.058   0.118
 5144W        W 9212   3.637   8.859   2.424
 5145W        W 9213   1.604  10.566   2.177
 5146W        W 9214   3.378  10.032   0.615
 5147W        W 9215   0.507  10.818   0.369
 5148W        W 9216   0.900  10.864   1.045
 5149W        W 9217   0.697   7.618   2.471
 5150W        W 9218   3.320   8.636   2.746
 5151W        W 9219   2.725   9.058   1.205
 5152W        W 9220   2.691   8.746   0.232
 5153W        W 9221   1.899   9.890   2.372
 5154W        W 9222   1.705   8.220   1.571
 5155W        W 9223   2.305  10.307   2.565
 5156W        W 9224   3.176   9.098   0.987
 5157W        W 9225   2.078   7.756   1.003
 5158W        W 9226   0.735  10.450   0.686
 5159W        W 9227   0.106   7.949   1.285
 5160W        W 9228   2.892   8.556   1.759
 5161W        W 9229   0.350  10.173   1.674
 5162W        W 9230   1.691  10.523   0.544
 5163W        W 9231   3.083   8.549   0.008
 5164W        W 9232   0.106  10.307   2.172
 5165W        W 9233   0.897   9.879   2.652
 5166W        W 9234   1.270   9.239   1.271
 5167W        W 9235   1.292   7.644   2.364
 5168W        W 9236   3.521   7.406   1.661
 5169W        W 9237   0.740   9.278   0.129
 5170W        W 9238   0.395   8.311   0.308
 5171W        W 9239   0.457  10.267   1.102
 5172W        W 9240   1.588   9.750   1.350
 5173W        W 9241   2.920  10.609   3.064
 5174W        W 9242   1.846   8.251   0.748
 5175W        W 9243   3.229  10.649   1.520
 5176W        W 9244   2.906   8.502   3.118
 5177W        W 9245   3.619  10.158   1.252
 5178W        W 9246   2.246   9.450   2.736
 5179W        W 9247   0.012   9.001   0.942
 5180W        W 9248   1.123   9.416   2.515
 5181W        W 9249   2.327   8.680   0.893
 5182W        W 9250   2.204   9.170   0.997
 5183W        W 9251   0.547   8.590   2.471
 5184W        W 9252   0.532   8.466   3.393
 5185W        W 9253   0.422   7.383   1.552
 5186W        W 9254   2.190   7.730   2.113
 5187W        W 9255   1.838   7.915   3.276
 5188W        W 9256   2.193   8.064   0.454
 5189W        W 9257   3.376  10.457   3.208
 5190W        W 9258   2.343   7.538   3.247
 5191W        W 9259   3.362   9.839   3.369
 5192W        W 9260   2.792   8.006   2.965
 5193W        W 9261   2.592   7.944   1.235
 5194W        W 9262   2.985   9.078   3.639
 5195W        W 9263   0.725  10.654   1.625
 5196W        W 9264   1.383   8.371   0.611
 5197W        W 9265   0.952   7.655   3.275
 5198W        W 9266   3.004   8.139   0.956
 5199W        W 9267   3.371   8.621   0.901
 5200W        W 9268   1.114  10.838   3.372
 5201W        W 9269   1.040   7.374   0.607
 5202W        W 9270   3.361   7.908   1.642
 5203W        W 9271   3.511  10.157   0.087
 5204W        W 9272   0.418   9.360   1.789
 5205W        W 9273   2.335   7.947   0.019
 5206W        W 9274   3.469  10.279   1.739
 5207W        W 9275   3.508   7.473   2.489
 5208W        W 9276   1.953   8.685   3.043
 5209W        W 9277   2.046  10.024   0.746
 5210W        W 9278   2.446   9.318   3.486
 5211W        W 9279   2.120   7.295   1.795
 5212W        W 9280   0.732   8.198   1.858
 5213W        W 9281   0.286   9.398   2.632
 5214W        W 9282   2.145  10.591   1.338
 5215W        W 9283   3.339   8.188   2.210
 5216W        W 9284   1.976  10.535   2.977
 5217W        W 9285   3.319   9.594   0.182
 5218W        W 9286   1.754   9.077   1.243
 5219W        W 9287   3.606   7.588   2.984
 5220W        W 9288   1.755   9.423   2.578
 5221W        W 9289   1.972   8.309   2.023
 5222W        W 9290   2.824   8.607   0.861
 5223W        W 9291   3.111   8.340   0.503
 5224W        W 9292   2.920  10.380   0.892
 5225W        W 9293   2.754   9.983   1.688
 5226W        W 9294   2.650   9.062   0.666
 5227W        W 9295   2.083   9.272   1.652
 5228W        W 9296   2.964   9.060   1.719
 5229W        W 9297   0.339   8.075   2.143
 5230W        W 9298   3.117   9.127   2.970
 5231W        W 9299   3.468  10.745   2.116
 5232W        W 9300   1.398  10.189   1.518
 5233W        W 9301   2.405  10.722   2.842
 5234W        W 9302   2.399   8.052   2.606
 5235W        W 9303   1.606  10.760   2.667
 5236W        W 9304   3.303   7.714   1.133
 5237W        W 9305   3.094   9.033   2.434
 5238W        W 9306   0.077   8.354   2.472
 5239W        W 9307   2.937   8.149   1.490
 5240W        W 9308   3.348   8.300   3.267
 5241W        W 9309   2.233   9.999   1.485
 5242W        W 9310   1.489  10.590   1.098
 5243W        W 9311   0.604   7.770   0.356
 5244W        W 9312   1.708   7.424   2.166
 5245W        W 9313   0.736  10.544   0.014
 5246W        W 9314   1.110   9.010   0.765
 5247W        W 9315   1.764   9.639   3.078
 5248W        W 9316   1.594   7.997   1.068
 5249W        W 9317   2.950   7.594   1.496
 5250W        W 9318   2.670  10.876   1.824
 5251W        W 9319   2.082  10.524   2.164
 5252W        W 9320   1.478   9.561   2.125
 5253W        W 9321   3.248  10.284   2.251
 5254W        W 9322   0.942   7.787   1.020
 5255W        W 9323   1.464  10.084   1.980
 5256W        W 9324   0.947   8.015   0.045
 5257W        W 9325   1.748   8.624   2.439
 5258W        W 9326   2.596   7.490   2.309
 5259W        W 9327   0.016   9.333   2.194
 5260W        W 9328   1.720   9.151   0.352
 5261W        W 9329   0.988   7.466   0.122
 5262W        W 9330   1.726   8.547   1.173
 5263W        W 9331   2.696   7.523   2.872
 5264W        W 9332   1.284   9.535   2.981
 5265W        W 9333   2.088   9.317   3.198
 5266W        W 9334   2.705   9.347   3.091
 5267W        W 9335   1.989   7.487   3.596
 5268W        W 9336   1.211   8.103   1.989
 5269W        W 9337   0.637   8.059   1.387
 5270W        W 9338   0.423  10.771   1.063
 5271W        W 9339   1.755  10.101   3.188
 5272W        W 9340   0.790   9.586   0.547
 5273W        W 9341   2.470   8.971   1.768
 5274W        W 9342   2.750   8.770   2.167
 5275W        W 9343   1.955   9.444   2.101
 5276W        W 9344   2.425   9.818   0.233
 5277W        W 9345   2.097   7.839   1.561
 5278W        W 9346   3.576   8.117   0.829
 5279W        W 9347   0.070  10.706   2.860
 5280W        W 9348   0.487   9.932   2.392
 5281W        W 9349   0.054  10.778   0.624
 5282W        W 9350   1.953   8.048   2.430
 5283W        W 9351   1.316  10.071   0.279
 5284W        W 9352   3.221  10.453   0.465
 5285W        W 9353   2.196   9.106   0.479
 5286W        W 9354   1.039   8.297   0.996
 5287W        W 9355   1.871   8.207   0.048
 5288W        W 9356   2.455   9.772   3.226
 5289W        W 9357   2.808   7.678   0.843
 5290W        W 9358   0.138   7.526   0.291
 5291W        W 9359   1.424   9.845   2.581
 5292W        W 9360   1.223   9.761   1.673
 5293W        W 9361   0.965   9.713   0.071
 5294W        W 9362   0.206   9.954   0.839
 5295W        W 9363   0.710   9.024   3.281
 5296W        W 9364   1.414   7.584   3.467
 5297W        W 9365   2.123   7.726   2.823
 5298W        W 9366   1.318   7.494   1.104
 5299W        W 9367   2.377   7.571   0.609
 5300W        W 9368   0.322   7.503   2.186
 5301W        W 9369   0.370   8.466   1.556
 5302W        W 9370   3.059   7.574   1.962
 5303W        W 9371   0.481   8.072   0.776
 5304W        W 9372   3.052   7.760   2.392
 5305W        W 9373   3.448   8.963   0.077
 5306W        W 9374   0.740   7.721   1.896
 5307W        W 9375   1.854   8.293   2.836
 5308W        W 9376   0.002   7.983   0.314
 5309W        W 9377   0.788   9.372   2.875
 5310W        W 9378   2.146   8.770   2.054
 5311W        W 9379   2.013  10.849   0.350
 5312W        W 9380   0.159   9.356   0.047
 5313W        W 9381   0.894   9.767   3.173
 5314W        W 9382   0.415   8.934   2.804
 5315W        W 9383   1.406   9.039   2.598
 5316W        W 9384   3.174   7.398   2.860
 5317W        W 9385   3.572   9.008   2.851
 5318W        W 9386   3.560   9.208   0.537
 5319W        W 9387   2.423   9.540   0.636
 5320W        W 9388   2.897  10.840   0.331
 5321W        W 9389   2.074   8.830   3.473
 5322W        W 9390   0.404   9.797   3.513
 5323W        W 9391   3.610   7.719   3.465
 5324W        W 9392   3.328   8.647   2.086
 5325W        W 9393   1.636  10.777   3.563
 5326W        W 9394   1.491   7.406   0.290
 5327W        W 9395   3.030  10.005   0.233
 5328W        W 9396   0.799   8.098   3.119
 5329W        W 9397   1.233  10.092   2.981
 5330W        W 9398   3.359   8.083   2.779
 5331W        W 9399   2.570  10.742   0.747
 5332W        W 9400   2.809   9.361   2.114
 5333W        W 9401   1.059   7.777   2.781
 5334W        W 9402   1.528   8.846   3.538
 5335W        W 9403   1.031  10.025   0.732
 5336W        W 9404   2.786   9.523   0.996
 5337W        W 9405   0.554   8.149   2.720
 5338W        W 9406   1.883  10.211   1.184
 5339W        W 9407   3.633   8.771   1.365
 5340W        W 9408   1.855   7.404   3.084
 5341W        W 9409   2.635  10.109   2.163
 5342W        W 9410   2.938  10.453   1.871
 5343W        W 9411   2.157  10.255   0.299
 5344W        W 9412   0.167  10.147   3.141
 5345W        W 9413   0.910   8.139   2.379
 5346W        W 9414   0.880   7.487   1.489
 5347W        W 9415   2.501   8.329   2.181
 5348W        W 9416   1.299   9.500   0.381
 5349W        W 9417   3.297   9.442   1.880
 5350W        W 9418   0.624  10.200   3.303
 5351W        W 9419   3.011  10.882   1.100
 5352W        W 9420   1.110   7.902   1.545
 5353W        W 9421   0.879   9.395   1.635
 5354W        W 9422   1.192  10.806   2.385
 5355W        W 9423   3.259  10.902   3.417
 5356W        W 9424   2.418   9.090   2.350
 5357W        W 9425   0.267   8.888   0.265
 5358W        W 9426   3.401  10.546   0.962
 5359W        W 9427   3.238   7.870   0.581
 5360W        W 9428   1.377   7.389   2.984
 5361W        W 9429   3.083  10.191   1.442
 5362W        W 9430   3.112   8.747   1.347
 5363W        W 9431   1.229   8.420   1.563
 5364W        W 9432   1.474   8.682   2.887
 5365W        W 9433   2.585   9.835   2.750
 5366W        W 9434   1.235   8.289   2.862
 5367W        W 9435   1.214  10.755   1.478
 5368W        W 9436   0.531  10.714   3.112
 5369W        W 9437   0.643  10.075   0.242
 5370W        W 9438   3.160   9.833   1.052
 5371W        W 9439   0.764   8.625   2.938
 5372W        W 9440   3.537   8.555   0.419
 5373W        W 9441   1.282   9.612   0.890
 5374W        W 9442   2.381   8.994   2.971
 5375W        W 9443   2.272   8.622   2.515
 5376W        W 9444   0.832   8.994   2.544
 5377W        W 9445   3.042  10.882   2.373
 5378W        W 9446   2.833   7.516   3.367
 5379W        W 9447   0.497   7.666   2.954
 5380W        W 9448   0.836   8.689   2.007
 5381W        W 9449   1.205   8.503   0.129
 5382W        W 9450   0.008  10.262   2.674
 5383W        W 9451   1.593   8.971   2.117
 5384W        W 9452   1.416   7.996   0.222
 5385W        W 9453   0.551   8.812   1.003
 5386W        W 9454   0.322  10.664   2.440
 5387W        W 9455   3.117   8.890   0.548
 5388W        W 9456   3.212   7.806   3.234
 5389W        W 9457   2.648  10.015   1.197
 5390W        W 9458   0.246   8.939   3.374
 5391W        W 9459   3.212   7.403   0.670
 5392W        W 9460   2.732   9.878   0.681
 5393W        W 9461   1.634   8.936   0.766
 5394W        W 9462   2.821   7.740   0.289
 5395W        W 9463   2.886   8.347   2.475
 5396W        W 9464   0.595   8.940   1.682
 5397W        W 9465   0.889   9.879   1.331
 5398W        W 9466   2.652   8.499   1.296
 5399W        W 9467   1.675   7.878   1.992
 5400W        W 9468   3.637   9.789   2.503
 5401W        W 9469   3.555   7.776   2.064
 5402W        W 9470   0.094  10.606   1.440
 5403W        W 9471   0.603   9.793   0.976
 5404W        W 9472   0.518   7.410   3.529
 5405W        W 9473   1.637  10.263   3.631
 5406W        W 9474   3.392   9.231   1.421
 5407W        W 9475   2.746   9.408   0.301
 5408W        W 9476   2.041  10.929   2.513
 5409W        W 9477   2.898   9.651   3.550
 5410W        W 9478   1.713   7.361   0.830
 5411W        W 9479   2.426   8.230   1.689
 5412W        W 9480   0.112   9.817   2.021
 5413W        W 9481   1.365   7.779   0.662
 5414W        W 9482   1.169   9.263   3.511
 5415W        W 9483   2.163   8.244   1.225
 5416W        W 9484   2.368   9.654   2.347
 5417W        W 9485   0.522  10.259   2.782
 5418W        W 9486   1.113  10.242   3.505
 5419W        W 9487   0.964   8.039   0.519
 5420W        W 9488   2.481   8.181   0.844
 5421W        W 9489   2.439  10.289   3.081
 5422W        W 9490   1.124   8.881   1.680
 5423W        W 9491   0.779  10.579   2.545
 5424W        W 9492   3.524  10.696   0.146
 5425W        W 9493   0.387   9.368   3.142
 5426W        W 9494   2.382   9.630   1.830
 5427W        W 9495   0.818   9.279   1.072
 5428W        W 9496   1.189  10.286   2.467
 5429W        W 9497   1.567   7.705   1.508
 5430W        W 9498   0.178   9.689   0.438
 5431W        W 9499   1.697   8.640   0.308
 5432W        W 9500   0.343   9.189   1.327
 5433W        W 9501   1.633   7.831   2.791
 5434W        W 9502   3.305   7.540   0.218
 5435W        W 9503   3.398   9.286   3.317
 5436W        W 9504   2.052  10.543   3.469
 5437W        W 9505   3.610   9.637   2.991
 5438W        W 9506   3.018  10.435   3.602
 5439W        W 9507   0.757  10.891   2.080
 5440W        W 9508   3.616   9.513   0.954
 5441W        W 9509   2.146   8.780   1.467
 5442W        W 9510   1.913   7.392   1.357
 5443W        W 9511   0.972  10.376   1.194
 5444W        W 9512   1.471   8.117   2.419
 5445W        W 9513   1.171   7.486   1.888
 5446W        W 9514   0.234  10.308   0.436
 5447W        W 9515   2.050   9.672   1.154
 5448W        W 9516   0.925  10.467   3.033
 5449W        W 9517   0.402   9.290   0.729
 5450W        W 9518   0.287   7.833   1.728
 5451W        W 9519   1.835   9.798   1.785
 5452W        W 9520   0.087   7.652   0.805
 5453W        W 9521   2.751   8.858   2.732
 5454W        W 9522   2.628   8.244   0.304
 5455W        W 9523   3.145   9.916   1.952
 5456W        W 9524   1.806  10.400   1.783
 5457W        W 9525   1.218  10.504   0.694
 5458W        W 9526   2.500   7.407   0.124
 5459W        W 9527   0.300  10.667   1.865
 5460W        W 9528   2.497   8.425   3.500
 5461W        W 9529   0.480   7.955   3.499
 5462W        W 9530   0.211   8.555   0.832
 5463W        W 9531   0.902   8.544   0.557
 5464W        W 9532   2.665   8.871   3.374
 5465W        W 9533   1.008   9.152   2.083
 5466W        W 9534   2.482   7.438   1.203
 5467W        W 9535   1.613  10.869   1.706
 5468W        W 9536   2.827  10.331   2.643
 5469W        W 9537   2.411  10.480   1.754
 5470W        W 9538   2.430   9.460   1.348
 5471W        W 9539   1.892   7.685   0.419
 5472W        W 9540   3.573   7.313   1.141
 5473W        W 9541   1.261   8.948   0.304
 5474W        W 9542   3.427   8.285   1.294
 5475W        W 9543   2.119   9.455   0.171
 5476W        W 9544   3.055   9.655   2.919
 5477W        W 9545   2.709  10.356   0.386
 5478W        W 9546   1.324   8.031   3.292
 5479W        W 9547   1.144   8.615   2.533
 5480W        W 9548   3.236  10.110   2.810
 5481W        W 9549   2.336   8.060   3.187
 5482W        W 9550   0.180   8.531   2.964
 5483W        W 9551   1.940   9.008   2.690
 5484W        W 9552   0.297   9.766   1.347
 5485W        W 9553   0.444   9.063   2.237
 5486W        W 9554   2.761   9.349   2.587
 5487W        W 9555   2.533  10.729   3.398
 5488W        W 9556   2.429   8.468   2.951
 5489W        W 9557   2.706  10.522   1.356
 5490W        W 9558   1.708  10.242   2.679
 5491W        W 9559   1.193  10.597   1.948
 5492W        W 9560   2.998   9.768   2.367
 5493W        W 9561   2.048   9.840   3.504
 5494W        W 9562   0.653   9.793   1.843
 5495W        W 9563   2.999   9.552   1.488
 5496W        W 9564   2.640  10.618   2.239
 5497W        W 9565   0.618  10.347   2.109
 5498W        W 9566   1.639   8.399   3.319
 5499W        W 9567   2.090  10.565   0.830
 5500W        W 9568   1.398   9.820   3.468
 5501W        W 9569   1.524  10.058   0.845
 5502W        W 9570   0.745   8.798   0.104
 5503W        W 9571   0.084  10.884   7.003
 5504W        W 9572   0.460   9.777   6.526
 5505W        W 9573   3.165   9.507   4.296
 5506W        W 9574   3.295  10.592   6.323
 5507W        W 9575   1.213  10.583   3.849
 5508W        W 9576   1.296   8.735   4.832
 5509W        W 9577   0.811   8.583   4.996
 5510W        W 9578   1.802   9.398   4.430
 5511W        W 9579   1.477  10.490   6.785
 5512W        W 9580   0.126   8.051   6.748
 5513W        W 9581   0.888   7.331   6.550
 5514W        W 9582   2.582   7.719   5.437
 5515W        W 9583   2.231   8.590   4.007
 5516W        W 9584   2.801   8.024   7.098
 5517W        W 9585   0.167   7.816   6.223
 5518W        W 9586   0.266  10.435   7.244
 5519W        W 9587   1.788   9.825   3.976
 5520W        W 9588   0.220   8.608   5.669
 5521W        W 9589   1.113   8.499   6.906
 5522W        W 9590   3.336   9.401   6.264
 5523W        W 9591   1.644   8.734   5.291
 5524W        W 9592   2.190  10.073   5.660
 5525W        W 9593   0.690   9.507   5.892
 5526W        W 9594   0.049   9.035   5.463
 5527W        W 9595   1.085   9.007   6.655
 5528W        W 9596   3.356   8.790   6.909
 5529W        W 9597   0.972  10.234   5.354
 5530W        W 9598   2.093   9.923   6.488
 5531W        W 9599   1.313   8.563   5.713
 5532W        W 9600   1.605   9.347   5.356
 5533W        W 9601   2.602  10.120   7.204
 5534W        W 9602   1.681   9.440   7.214
 5535W        W 9603   1.662   9.156   6.692
 5536W        W 9604   0.071   8.547   7.214
 5537W        W 9605   2.903  10.082   6.813
 5538W        W 9606   0.484   7.664   4.811
 5539W        W 9607   1.011   9.922   5.810
 5540W        W 9608   3.474   9.705   5.100
 5541W        W 9609   2.887   8.105   5.667
 5542W        W 9610   3.172   8.058   3.762
 5543W        W 9611   3.637   8.859   6.068
 5544W        W 9612   1.604  10.566   5.821
 5545W        W 9613   3.378  10.032   4.259
 5546W        W 9614   0.507  10.818   4.013
 5547W        W 9615   0.900  10.864   4.689
 5548W        W 9616   0.697   7.618   6.115
 5549W        W 9617   3.320   8.636   6.390
 5550W        W 9618   2.725   9.058   4.849
 5551W        W 9619   2.691   8.746   3.876
 5552W        W 9620   1.899   9.890   6.016
 5553W        W 9621   1.705   8.220   5.215
 5554W        W 9622   2.305  10.307   6.209
 5555W        W 9623   3.176   9.098   4.631
 5556W        W 9624   2.078   7.756   4.647
 5557W        W 9625   0.735  10.450   4.330
 5558W        W 9626   0.106   7.949   4.929
 5559W        W 9627   2.892   8.556   5.403
 5560W        W 9628   0.350  10.173   5.318
 5561W        W 9629   1.691  10.523   4.188
 5562W        W 9630   3.083   8.549   3.652
 5563W        W 9631   0.106  10.307   5.816
 5564W        W 9632   0.897   9.879   6.296
 5565W        W 9633   1.270   9.239   4.915
 5566W        W 9634   1.292   7.644   6.008
 5567W        W 9635   3.521   7.406   5.305
 5568W        W 9636   0.740   9.278   3.773
 5569W        W 9637   0.395   8.311   3.952
 5570W        W 9638   0.457  10.267   4.746
 5571W        W 9639   1.588   9.750   4.994
 5572W        W 9640   2.920  10.609   6.708
 5573W        W 9641   1.846   8.251   4.392
 5574W        W 9642   3.229  10.649   5.164
 5575W        W 9643   2.906   8.502   6.762
 5576W        W 9644   3.619  10.158   4.896
 5577W        W 9645   2.246   9.450   6.380
 5578W        W 9646   0.012   9.001   4.586
 5579W        W 9647   1.123   9.416   6.159
 5580W        W 9648   2.327   8.680   4.537
 5581W        W 9649   2.204   9.170   4.641
 5582W        W 9650   0.547   8.590   6.115
 5583W        W 9651   0.532   8.466   7.037
 5584W        W 9652   0.422   7.383   5.196
 5585W        W 9653   2.190   7.730   5.757
 5586W        W 9654   1.838   7.915   6.920
 5587W        W 9655   2.193   8.064   4.098
 5588W        W 9656   3.376  10.457   6.852
 5589W        W 9657   2.343   7.538   6.891
 5590W        W 9658   3.362   9.839   7.013
 5591W        W 9659   2.792   8.006   6.609
 5592W        W 9660   2.592   7.944   4.879
 5593W        W 9661   2.985   9.078   7.283
 5594W        W 9662   0.725  10.654   5.269
 5595W        W 9663   1.383   8.371   4.255
 5596W        W 9664   0.952   7.655   6.919
 5597W        W 9665   3.004   8.139   4.600
 5598W        W 9666   3.371   8.621   4.545
 5599W        W 9667   1.114  10.838   7.016
 5600W        W 9668   1.040   7.374   4.251
 5601W        W 9669   3.361   7.908   5.286
 5602W        W 9670   3.511  10.157   3.731
 5603W        W 9671   0.418   9.360   5.433
 5604W        W 9672   2.335   7.947   3.663
 5605W        W 9673   3.469  10.279   5.383
 5606W        W 9674   3.508   7.473   6.133
 5607W        W 9675   1.953   8.685   6.687
 5608W        W 9676   2.046  10.024   4.390
 5609W        W 9677   2.446   9.318   7.130
 5610W        W 9678   2.120   7.295   5.439
 5611W        W 9679   0.732   8.198   5.502
 5612W        W 9680   0.286   9.398   6.276
 5613W        W 9681   2.145  10.591   4.982
 5614W        W 9682   1.976  10.535   6.621
 5615W        W 9683   3.319   9.594   3.826
 5616W        W 9684   1.754   9.077   4.887
 5617W        W 9685   3.606   7.588   6.628
 5618W        W 9686   1.755   9.423   6.222
 5619W        W 9687   1.972   8.309   5.667
 5620W        W 9688   2.824   8.607   4.505
 5621W        W 9689   3.111   8.340   4.147
 5622W        W 9690   2.920  10.380   4.536
 5623W        W 9691   2.754   9.983   5.332
 5624W        W 9692   2.650   9.062   4.310
 5625W        W 9693   2.083   9.272   5.296
 5626W        W 9694   2.964   9.060   5.363
 5627W        W 9695   0.339   8.075   5.787
 5628W        W 9696   3.117   9.127   6.614
 5629W        W 9697   3.468  10.745   5.760
 5630W        W 9698   1.398  10.189   5.162
 5631W        W 9699   2.405  10.722   6.486
 5632W        W 9700   2.399   8.052   6.250
 5633W        W 9701   1.606  10.760   6.311
 5634W        W 9702   3.303   7.714   4.777
 5635W        W 9703   3.094   9.033   6.078
 5636W        W 9704   0.077   8.354   6.116
 5637W        W 9705   2.937   8.149   5.134
 5638W        W 9706   3.348   8.300   6.911
 5639W        W 9707   2.233   9.999   5.129
 5640W        W 9708   1.489  10.590   4.742
 5641W        W 9709   0.604   7.770   4.000
 5642W        W 9710   1.708   7.424   5.810
 5643W        W 9711   0.736  10.544   3.658
 5644W        W 9712   1.110   9.010   4.409
 5645W        W 9713   1.764   9.639   6.722
 5646W        W 9714   1.594   7.997   4.712
 5647W        W 9715   2.950   7.594   5.140
 5648W        W 9716   2.670  10.876   5.468
 5649W        W 9717   2.082  10.524   5.808
 5650W        W 9718   1.478   9.561   5.769
 5651W        W 9719   3.248  10.284   5.895
 5652W        W 9720   0.942   7.787   4.664
 5653W        W 9721   1.464  10.084   5.624
 5654W        W 9722   0.947   8.015   3.689
 5655W        W 9723   1.748   8.624   6.083
 5656W        W 9724   2.596   7.490   5.953
 5657W        W 9725   0.016   9.333   5.838
 5658W        W 9726   1.720   9.151   3.996
 5659W        W 9727   0.988   7.466   3.766
 5660W        W 9728   1.726   8.547   4.817
 5661W        W 9729   2.696   7.523   6.516
 5662W        W 9730   1.284   9.535   6.625
 5663W        W 9731   2.088   9.317   6.842
 5664W        W 9732   2.705   9.347   6.735
 5665W        W 9733   1.989   7.487   7.240
 5666W        W 9734   1.211   8.103   5.633
 5667W        W 9735   0.637   8.059   5.031
 5668W        W 9736   0.423  10.771   4.707
 5669W        W 9737   1.755  10.101   6.832
 5670W        W 9738   0.790   9.586   4.191
 5671W        W 9739   2.470   8.971   5.412
 5672W        W 9740   2.750   8.770   5.811
 5673W        W 9741   1.955   9.444   5.745
 5674W        W 9742   2.425   9.818   3.877
 5675W        W 9743   2.097   7.839   5.205
 5676W        W 9744   3.576   8.117   4.473
 5677W        W 9745   0.070  10.706   6.504
 5678W        W 9746   0.487   9.932   6.036
 5679W        W 9747   0.054  10.778   4.268
 5680W        W 9748   1.953   8.048   6.074
 5681W        W 9749   1.316  10.071   3.923
 5682W        W 9750   3.221  10.453   4.109
 5683W        W 9751   2.196   9.106   4.123
 5684W        W 9752   1.039   8.297   4.640
 5685W        W 9753   1.871   8.207   3.692
 5686W        W 9754   2.455   9.772   6.870
 5687W        W 9755   2.808   7.678   4.487
 5688W        W 9756   0.138   7.526   3.935
 5689W        W 9757   1.424   9.845   6.225
 5690W        W 9758   1.223   9.761   5.317
 5691W        W 9759   0.965   9.713   3.715
 5692W        W 9760   0.206   9.954   4.483
 5693W        W 9761   0.710   9.024   6.925
 5694W        W 9762   1.414   7.584   7.111
 5695W        W 9763   2.123   7.726   6.467
 5696W        W 9764   1.318   7.494   4.748
 5697W        W 9765   2.377   7.571   4.253
 5698W        W 9766   0.322   7.503   5.830
 5699W        W 9767   0.370   8.466   5.200
 5700W        W 9768   0.481   8.072   4.420
 5701W        W 9769   3.052   7.760   6.036
 5702W        W 9770   3.448   8.963   3.721
 5703W        W 9771   0.740   7.721   5.540
 5704W        W 9772   1.854   8.293   6.480
 5705W        W 9773   0.002   7.983   3.958
 5706W        W 9774   0.788   9.372   6.519
 5707W        W 9775   2.146   8.770   5.698
 5708W        W 9776   2.013  10.849   3.994
 5709W        W 9777   0.159   9.356   3.691
 5710W        W 9778   0.894   9.767   6.817
 5711W        W 9779   0.415   8.934   6.448
 5712W        W 9780   1.406   9.039   6.242
 5713W        W 9781   3.174   7.398   6.504
 5714W        W 9782   3.572   9.008   6.495
 5715W        W 9783   3.560   9.208   4.181
 5716W        W 9784   2.423   9.540   4.280
 5717W        W 9785   2.897  10.840   3.975
 5718W        W 9786   2.074   8.830   7.117
 5719W        W 9787   0.404   9.797   7.157
 5720W        W 9788   3.610   7.719   7.109
 5721W        W 9789   3.328   8.647   5.730
 5722W        W 9790   1.636  10.777   7.207
 5723W        W 9791   1.491   7.406   3.934
 5724W        W 9792   3.030  10.005   3.877
 5725W        W 9793   0.799   8.098   6.763
 5726W        W 9794   1.233  10.092   6.625
 5727W        W 9795   3.359   8.083   6.423
 5728W        W 9796   2.570  10.742   4.391
 5729W        W 9797   2.809   9.361   5.758
 5730W        W 9798   1.059   7.777   6.425
 5731W        W 9799   1.528   8.846   7.182
 5732W        W 9800   1.031  10.025   4.376
 5733W        W 9801   2.786   9.523   4.640
 5734W        W 9802   0.554   8.149   6.364
 5735W        W 9803   1.883  10.211   4.828
 5736W        W 9804   3.633   8.771   5.009
 5737W        W 9805   1.855   7.404   6.728
 5738W        W 9806   2.635  10.109   5.807
 5739W        W 9807   2.938  10.453   5.515
 5740W        W 9808   2.157  10.255   3.943
 5741W        W 9809   0.167  10.147   6.785
 5742W        W 9810   0.910   8.139   6.023
 5743W        W 9811   0.880   7.487   5.133
 5744W        W 9812   2.501   8.329   5.825
 5745W        W 9813   1.299   9.500   4.025
 5746W        W 9814   3.297   9.442   5.524
 5747W        W 9815   0.624  10.200   6.947
 5748W        W 9816   3.011  10.882   4.744
 5749W        W 9817   1.110   7.902   5.189
 5750W        W 9818   0.879   9.395   5.279
 5751W        W 9819   1.192  10.806   6.029
 5752W        W 9820   3.259  10.902   7.061
 5753W        W 9821   2.418   9.090   5.994
 5754W        W 9822   0.267   8.888   3.909
 5755W        W 9823   3.401  10.546   4.606
 5756W        W 9824   3.238   7.870   4.225
 5757W        W 9825   1.377   7.389   6.628
 5758W        W 9826   3.083  10.191   5.086
 5759W        W 9827   3.112   8.747   4.991
 5760W        W 9828   1.229   8.420   5.207
 5761W        W 9829   1.474   8.682   6.531
 5762W        W 9830   2.585   9.835   6.394
 5763W        W 9831   1.235   8.289   6.506
 5764W        W 9832   1.214  10.755   5.122
 5765W        W 9833   0.531  10.714   6.756
 5766W        W 9834   0.643  10.075   3.886
 5767W        W 9835   3.160   9.833   4.696
 5768W        W 9836   0.764   8.625   6.582
 5769W        W 9837   3.537   8.555   4.063
 5770W        W 9838   1.282   9.612   4.534
 5771W        W 9839   2.381   8.994   6.615
 5772W        W 9840   2.272   8.622   6.159
 5773W        W 9841   0.832   8.994   6.188
 5774W        W 9842   3.042  10.882   6.017
 5775W        W 9843   2.833   7.516   7.011
 5776W        W 9844   0.497   7.666   6.598
 5777W        W 9845   0.836   8.689   5.651
 5778W        W 9846   1.205   8.503   3.773
 5779W        W 9847   0.008  10.262   6.318
 5780W        W 9848   1.593   8.971   5.761
 5781W        W 9849   1.416   7.996   3.866
 5782W        W 9850   0.551   8.812   4.647
 5783W        W 9851   0.322  10.664   6.084
 5784W        W 9852   3.117   8.890   4.192
 5785W        W 9853   3.212   7.806   6.878
 5786W        W 9854   2.648  10.015   4.841
 5787W        W 9855   0.246   8.939   7.018
 5788W        W 9856   3.212   7.403   4.314
 5789W        W 9857   2.732   9.878   4.325
 5790W        W 9858   1.634   8.936   4.410
 5791W        W 9859   2.821   7.740   3.933
 5792W        W 9860   2.886   8.347   6.119
 5793W        W 9861   0.595   8.940   5.326
 5794W        W 9862   0.889   9.879   4.975
 5795W        W 9863   2.652   8.499   4.940
 5796W        W 9864   1.675   7.878   5.636
 5797W        W 9865   3.637   9.789   6.147
 5798W        W 9866   3.555   7.776   5.708
 5799W        W 9867   0.094  10.606   5.084
 5800W        W 9868   0.603   9.793   4.620
 5801W        W 9869   0.518   7.410   7.173
 5802W        W 9870   1.637  10.263   7.275
 5803W        W 9871   3.392   9.231   5.065
 5804W        W 9872   2.746   9.408   3.945
 5805W        W 9873   2.041  10.929   6.157
 5806W        W 9874   2.898   9.651   7.194
 5807W        W 9875   1.713   7.361   4.474
 5808W        W 9876   2.426   8.230   5.333
 5809W        W 9877   0.112   9.817   5.665
 5810W        W 9878   1.365   7.779   4.306
 5811W        W 9879   1.169   9.263   7.155
 5812W        W 9880   2.163   8.244   4.869
 5813W        W 9881   2.368   9.654   5.991
 5814W        W 9882   0.522  10.259   6.426
 5815W        W 9883   1.113  10.242   7.149
 5816W        W 9884   0.964   8.039   4.163
 5817W        W 9885   2.481   8.181   4.488
 5818W        W 9886   2.439  10.289   6.725
 5819W        W 9887   1.124   8.881   5.324
 5820W        W 9888   0.779  10.579   6.189
 5821W        W 9889   3.524  10.696   3.790
 5822W        W 9890   0.387   9.368   6.786
 5823W        W 9891   2.382   9.630   5.474
 5824W        W 9892   0.818   9.279   4.716
 5825W        W 9893   1.189  10.286   6.111
 5826W        W 9894   1.567   7.705   5.152
 5827W        W 9895   0.178   9.689   4.082
 5828W        W 9896   1.697   8.640   3.952
 5829W        W 9897   0.343   9.189   4.971
 5830W        W 9898   1.633   7.831   6.435
 5831W        W 9899   3.305   7.540   3.862
 5832W        W 9900   3.398   9.286   6.961
 5833W        W 9901   2.052  10.543   7.113
 5834W        W 9902   3.610   9.637   6.635
 5835W        W 9903   3.018  10.435   7.246
 5836W        W 9904   0.757  10.891   5.724
 5837W        W 9905   3.616   9.513   4.598
 5838W        W 9906   2.146   8.780   5.111
 5839W        W 9907   1.913   7.392   5.001
 5840W        W 9908   0.972  10.376   4.838
 5841W        W 9909   1.471   8.117   6.063
 5842W        W 9910   1.171   7.486   5.532
 5843W        W 9911   0.234  10.308   4.080
 5844W        W 9912   2.050   9.672   4.798
 5845W        W 9913   0.925  10.467   6.677
 5846W        W 9914   0.402   9.290   4.373
 5847W        W 9915   0.287   7.833   5.372
 5848W        W 9916   1.835   9.798   5.429
 5849W        W 9917   0.087   7.652   4.449
 5850W        W 9918   2.751   8.858   6.376
 5851W        W 9919   2.628   8.244   3.948
 5852W        W 9920   3.145   9.916   5.596
 5853W        W 9921   1.806  10.400   5.427
 5854W        W 9922   1.218  10.504   4.338
 5855W        W 9923   2.500   7.407   3.768
 5856W        W 9924   0.300  10.667   5.509
 5857W        W 9925   2.497   8.425   7.144
 5858W        W 9926   0.480   7.955   7.143
 5859W        W 9927   0.211   8.555   4.476
 5860W        W 9928   0.902   8.544   4.201
 5861W        W 9929   2.665   8.871   7.018
 5862W        W 9930   1.008   9.152   5.727
 5863W        W 9931   2.482   7.438   4.847
 5864W        W 9932   1.613  10.869   5.350
 5865W        W 9933   2.827  10.331   6.287
 5866W        W 9934   2.411  10.480   5.398
 5867W        W 9935   2.430   9.460   4.992
 5868W        W 9936   1.892   7.685   4.063
 5869W        W 9937   3.573   7.313   4.785
 5870W        W 9938   1.261   8.948   3.948
 5871W        W 9939   3.427   8.285   4.938
 5872W        W 9940   2.119   9.455   3.815
 5873W        W 9941   3.055   9.655   6.563
 5874W        W 9942   2.709  10.356   4.030
 5875W        W 9943   1.324   8.031   6.936
 5876W        W 9944   1.144   8.615   6.177
 5877W        W 9945   3.236  10.110   6.454
 5878W        W 9946   2.336   8.060   6.831
 5879W        W 9947   0.180   8.531   6.608
 5880W        W 9948   1.940   9.008   6.334
 5881W        W 9949   0.297   9.766   4.991
 5882W        W 9950   0.444   9.063   5.881
 5883W        W 9951   2.761   9.349   6.231
 5884W        W 9952   2.533  10.729   7.042
 5885W        W 9953   2.429   8.468   6.595
 5886W        W 9954   2.706  10.522   5.000
 5887W        W 9955   1.708  10.242   6.323
 5888W        W 9956   1.193  10.597   5.592
 5889W        W 9957   2.998   9.768   6.011
 5890W        W 9958   2.048   9.840   7.148
 5891W        W 9959   0.653   9.793   5.487
 5892W        W 9960   2.999   9.552   5.132
 5893W        W 9961   2.640  10.618   5.883
 5894W        W 9962   0.618  10.347   5.753
 5895W        W 9963   1.639   8.399   6.963
 5896W        W 9964   2.090  10.565   4.474
 5897W        W 9965   1.398   9.820   7.112
 5898W        W 9966   1.524  10.058   4.489
 5899W        W 9967   0.745   8.798   3.748
 5900W        W 9968   0.084  10.884  10.648
 5901W        W 9969   0.460   9.777  10.171
 5902W        W 9970   3.165   9.507   7.941
 5903W        W 9971   3.295  10.592   9.968
 5904W        W 9972   1.213  10.583   7.494
 5905W        W 9973   1.296   8.735   8.477
 5906W        W 9974   0.811   8.583   8.641
 5907W        W 9975   1.802   9.398   8.075
 5908W        W 9976   1.477  10.490  10.430
 5909W        W 9977   0.126   8.051  10.393
 5910W        W 9978   0.888   7.331  10.195
 5911W        W 9979   2.582   7.719   9.082
 5912W        W 9980   2.231   8.590   7.652
 5913W        W 9981   2.801   8.024  10.743
 5914W        W 9982   0.167   7.816   9.868
 5915W        W 9983   0.266  10.435  10.889
 5916W        W 9984   1.788   9.825   7.621
 5917W        W 9985   0.220   8.608   9.314
 5918W        W 9986   1.113   8.499  10.551
 5919W        W 9987   3.572   8.358   9.050
 5920W        W 9988   3.336   9.401   9.909
 5921W        W 9989   1.644   8.734   8.936
 5922W        W 9990   2.190  10.073   9.305
 5923W        W 9991   0.690   9.507   9.537
 5924W        W 9992   0.049   9.035   9.108
 5925W        W 9993   1.085   9.007  10.300
 5926W        W 9994   3.356   8.790  10.554
 5927W        W 9995   0.972  10.234   8.999
 5928W        W 9996   2.093   9.923  10.133
 5929W        W 9997   1.313   8.563   9.358
 5930W        W 9998   1.605   9.347   9.001
 5931W        W 9999   2.602  10.120  10.849
 5932W        W10000   1.681   9.440  10.859
 5933W        W10001   1.662   9.156  10.337
 5934W        W10002   0.071   8.547  10.859
 5935W        W10003   2.903  10.082  10.458
 5936W        W10004   0.484   7.664   8.456
 5937W        W10005   1.011   9.922   9.455
 5938W        W10006   3.474   9.705   8.745
 5939W        W10007   2.887   8.105   9.312
 5940W        W10008   3.172   8.058   7.407
 5941W        W10009   3.637   8.859   9.713
 5942W        W10010   1.604  10.566   9.466
 5943W        W10011   3.378  10.032   7.904
 5944W        W10012   0.507  10.818   7.658
 5945W        W10013   0.900  10.864   8.334
 5946W        W10014   0.697   7.618   9.760
 5947W        W10015   3.320   8.636  10.035
 5948W        W10016   2.725   9.058   8.494
 5949W        W10017   2.691   8.746   7.521
 5950W        W10018   1.899   9.890   9.661
 5951W        W10019   1.705   8.220   8.860
 5952W        W10020   2.305  10.307   9.854
 5953W        W10021   3.176   9.098   8.276
 5954W        W10022   2.078   7.756   8.292
 5955W        W10023   0.735  10.450   7.975
 5956W        W10024   0.106   7.949   8.574
 5957W        W10025   2.892   8.556   9.048
 5958W        W10026   0.350  10.173   8.963
 5959W        W10027   1.691  10.523   7.833
 5960W        W10028   3.083   8.549   7.297
 5961W        W10029   0.106  10.307   9.461
 5962W        W10030   0.897   9.879   9.941
 5963W        W10031   1.270   9.239   8.560
 5964W        W10032   1.292   7.644   9.653
 5965W        W10033   3.521   7.406   8.950
 5966W        W10034   0.740   9.278   7.418
 5967W        W10035   0.395   8.311   7.597
 5968W        W10036   0.457  10.267   8.391
 5969W        W10037   1.588   9.750   8.639
 5970W        W10038   2.920  10.609  10.353
 5971W        W10039   1.846   8.251   8.037
 5972W        W10040   3.229  10.649   8.809
 5973W        W10041   2.906   8.502  10.407
 5974W        W10042   3.619  10.158   8.541
 5975W        W10043   2.246   9.450  10.025
 5976W        W10044   0.012   9.001   8.231
 5977W        W10045   1.123   9.416   9.804
 5978W        W10046   2.327   8.680   8.182
 5979W        W10047   2.204   9.170   8.286
 5980W        W10048   0.547   8.590   9.760
 5981W        W10049   0.532   8.466  10.682
 5982W        W10050   0.422   7.383   8.841
 5983W        W10051   2.190   7.730   9.402
 5984W        W10052   1.838   7.915  10.565
 5985W        W10053   2.193   8.064   7.743
 5986W        W10054   3.376  10.457  10.497
 5987W        W10055   2.343   7.538  10.536
 5988W        W10056   3.362   9.839  10.658
 5989W        W10057   2.792   8.006  10.254
 5990W        W10058   2.592   7.944   8.524
 5991W        W10059   2.985   9.078  10.928
 5992W        W10060   0.725  10.654   8.914
 5993W        W10061   1.383   8.371   7.900
 5994W        W10062   0.952   7.655  10.564
 5995W        W10063   3.004   8.139   8.245
 5996W        W10064   1.114  10.838  10.661
 5997W        W10065   1.040   7.374   7.896
 5998W        W10066   3.361   7.908   8.931
 5999W        W10067   3.511  10.157   7.376
 6000W        W10068   0.418   9.360   9.078
 6001W        W10069   2.335   7.947   7.308
 6002W        W10070   3.469  10.279   9.028
 6003W        W10071   3.508   7.473   9.778
 6004W        W10072   1.953   8.685  10.332
 6005W        W10073   2.046  10.024   8.035
 6006W        W10074   2.446   9.318  10.775
 6007W        W10075   2.120   7.295   9.084
 6008W        W10076   0.732   8.198   9.147
 6009W        W10077   0.286   9.398   9.921
 6010W        W10078   2.145  10.591   8.627
 6011W        W10079   3.339   8.188   9.499
 6012W        W10080   1.976  10.535  10.266
 6013W        W10081   3.319   9.594   7.471
 6014W        W10082   1.754   9.077   8.532
 6015W        W10083   3.606   7.588  10.273
 6016W        W10084   1.755   9.423   9.867
 6017W        W10085   1.972   8.309   9.312
 6018W        W10086   2.920  10.380   8.181
 6019W        W10087   2.754   9.983   8.977
 6020W        W10088   2.650   9.062   7.955
 6021W        W10089   2.083   9.272   8.941
 6022W        W10090   2.964   9.060   9.008
 6023W        W10091   0.339   8.075   9.432
 6024W        W10092   3.117   9.127  10.259
 6025W        W10093   3.468  10.745   9.405
 6026W        W10094   1.398  10.189   8.807
 6027W        W10095   2.405  10.722  10.131
 6028W        W10096   2.399   8.052   9.895
 6029W        W10097   1.606  10.760   9.956
 6030W        W10098   3.094   9.033   9.723
 6031W        W10099   0.077   8.354   9.761
 6032W        W10100   2.937   8.149   8.779
 6033W        W10101   3.348   8.300  10.556
 6034W        W10102   2.233   9.999   8.774
 6035W        W10103   1.489  10.590   8.387
 6036W        W10104   0.604   7.770   7.645
 6037W        W10105   1.708   7.424   9.455
 6038W        W10106   0.736  10.544   7.303
 6039W        W10107   1.110   9.010   8.054
 6040W        W10108   1.764   9.639  10.367
 6041W        W10109   1.594   7.997   8.357
 6042W        W10110   2.950   7.594   8.785
 6043W        W10111   2.670  10.876   9.113
 6044W        W10112   2.082  10.524   9.453
 6045W        W10113   1.478   9.561   9.414
 6046W        W10114   3.248  10.284   9.540
 6047W        W10115   0.942   7.787   8.309
 6048W        W10116   1.464  10.084   9.269
 6049W        W10117   0.947   8.015   7.334
 6050W        W10118   1.748   8.624   9.728
 6051W        W10119   2.596   7.490   9.598
 6052W        W10120   0.016   9.333   9.483
 6053W        W10121   1.720   9.151   7.641
 6054W        W10122   0.988   7.466   7.411
 6055W        W10123   1.726   8.547   8.462
 6056W        W10124   2.696   7.523  10.161
 6057W        W10125   1.284   9.535  10.270
 6058W        W10126   2.088   9.317  10.487
 6059W        W10127   2.705   9.347  10.380
 6060W        W10128   1.989   7.487  10.885
 6061W        W10129   1.211   8.103   9.278
 6062W        W10130   0.637   8.059   8.676
 6063W        W10131   0.423  10.771   8.352
 6064W        W10132   1.755  10.101  10.477
 6065W        W10133   0.790   9.586   7.836
 6066W        W10134   2.470   8.971   9.057
 6067W        W10135   2.750   8.770   9.456
 6068W        W10136   1.955   9.444   9.390
 6069W        W10137   2.425   9.818   7.522
 6070W        W10138   2.097   7.839   8.850
 6071W        W10139   3.576   8.117   8.118
 6072W        W10140   0.070  10.706  10.149
 6073W        W10141   0.487   9.932   9.681
 6074W        W10142   0.054  10.778   7.913
 6075W        W10143   1.953   8.048   9.719
 6076W        W10144   1.316  10.071   7.568
 6077W        W10145   3.221  10.453   7.754
 6078W        W10146   2.196   9.106   7.768
 6079W        W10147   1.039   8.297   8.285
 6080W        W10148   1.871   8.207   7.337
 6081W        W10149   2.455   9.772  10.515
 6082W        W10150   2.808   7.678   8.132
 6083W        W10151   0.138   7.526   7.580
 6084W        W10152   1.424   9.845   9.870
 6085W        W10153   1.223   9.761   8.962
 6086W        W10154   0.965   9.713   7.360
 6087W        W10155   0.206   9.954   8.128
 6088W        W10156   0.710   9.024  10.570
 6089W        W10157   1.414   7.584  10.756
 6090W        W10158   2.123   7.726  10.112
 6091W        W10159   1.318   7.494   8.393
 6092W        W10160   2.377   7.571   7.898
 6093W        W10161   0.322   7.503   9.475
 6094W        W10162   0.370   8.466   8.845
 6095W        W10163   3.059   7.574   9.251
 6096W        W10164   0.481   8.072   8.065
 6097W        W10165   3.052   7.760   9.681
 6098W        W10166   3.448   8.963   7.366
 6099W        W10167   0.740   7.721   9.185
 6100W        W10168   1.854   8.293  10.125
 6101W        W10169   0.002   7.983   7.603
 6102W        W10170   0.788   9.372  10.164
 6103W        W10171   2.146   8.770   9.343
 6104W        W10172   2.013  10.849   7.639
 6105W        W10173   0.159   9.356   7.336
 6106W        W10174   0.894   9.767  10.462
 6107W        W10175   0.415   8.934  10.093
 6108W        W10176   1.406   9.039   9.887
 6109W        W10177   3.174   7.398  10.149
 6110W        W10178   3.572   9.008  10.140
 6111W        W10179   3.560   9.208   7.826
 6112W        W10180   2.423   9.540   7.925
 6113W        W10181   2.897  10.840   7.620
 6114W        W10182   2.074   8.830  10.762
 6115W        W10183   0.404   9.797  10.802
 6116W        W10184   3.610   7.719  10.754
 6117W        W10185   3.328   8.647   9.375
 6118W        W10186   1.636  10.777  10.852
 6119W        W10187   1.491   7.406   7.579
 6120W        W10188   3.030  10.005   7.522
 6121W        W10189   0.799   8.098  10.408
 6122W        W10190   1.233  10.092  10.270
 6123W        W10191   3.359   8.083  10.068
 6124W        W10192   2.570  10.742   8.036
 6125W        W10193   2.809   9.361   9.403
 6126W        W10194   1.059   7.777  10.070
 6127W        W10195   1.528   8.846  10.827
 6128W        W10196   1.031  10.025   8.021
 6129W        W10197   2.786   9.523   8.285
 6130W        W10198   0.554   8.149  10.009
 6131W        W10199   1.883  10.211   8.473
 6132W        W10200   3.633   8.771   8.654
 6133W        W10201   1.855   7.404  10.373
 6134W        W10202   2.635  10.109   9.452
 6135W        W10203   2.938  10.453   9.160
 6136W        W10204   2.157  10.255   7.588
 6137W        W10205   0.167  10.147  10.430
 6138W        W10206   0.910   8.139   9.668
 6139W        W10207   0.880   7.487   8.778
 6140W        W10208   2.501   8.329   9.470
 6141W        W10209   1.299   9.500   7.670
 6142W        W10210   3.297   9.442   9.169
 6143W        W10211   0.624  10.200  10.592
 6144W        W10212   3.011  10.882   8.389
 6145W        W10213   1.110   7.902   8.834
 6146W        W10214   0.879   9.395   8.924
 6147W        W10215   1.192  10.806   9.674
 6148W        W10216   3.259  10.902  10.706
 6149W        W10217   2.418   9.090   9.639
 6150W        W10218   0.267   8.888   7.554
 6151W        W10219   3.401  10.546   8.251
 6152W        W10220   3.238   7.870   7.870
 6153W        W10221   1.377   7.389  10.273
 6154W        W10222   3.083  10.191   8.731
 6155W        W10223   3.112   8.747   8.636
 6156W        W10224   1.229   8.420   8.852
 6157W        W10225   1.474   8.682  10.176
 6158W        W10226   2.585   9.835  10.039
 6159W        W10227   1.235   8.289  10.151
 6160W        W10228   1.214  10.755   8.767
 6161W        W10229   0.531  10.714  10.401
 6162W        W10230   0.643  10.075   7.531
 6163W        W10231   3.160   9.833   8.341
 6164W        W10232   0.764   8.625  10.227
 6165W        W10233   3.537   8.555   7.708
 6166W        W10234   1.282   9.612   8.179
 6167W        W10235   2.381   8.994  10.260
 6168W        W10236   2.272   8.622   9.804
 6169W        W10237   0.832   8.994   9.833
 6170W        W10238   3.042  10.882   9.662
 6171W        W10239   2.833   7.516  10.656
 6172W        W10240   0.497   7.666  10.243
 6173W        W10241   0.836   8.689   9.296
 6174W        W10242   1.205   8.503   7.418
 6175W        W10243   0.008  10.262   9.963
 6176W        W10244   1.593   8.971   9.406
 6177W        W10245   1.416   7.996   7.511
 6178W        W10246   0.551   8.812   8.292
 6179W        W10247   0.322  10.664   9.729
 6180W        W10248   3.117   8.890   7.837
 6181W        W10249   3.212   7.806  10.523
 6182W        W10250   2.648  10.015   8.486
 6183W        W10251   0.246   8.939  10.663
 6184W        W10252   3.212   7.403   7.959
 6185W        W10253   2.732   9.878   7.970
 6186W        W10254   1.634   8.936   8.055
 6187W        W10255   2.821   7.740   7.578
 6188W        W10256   2.886   8.347   9.764
 6189W        W10257   0.595   8.940   8.971
 6190W        W10258   0.889   9.879   8.620
 6191W        W10259   2.652   8.499   8.585
 6192W        W10260   1.675   7.878   9.281
 6193W        W10261   3.637   9.789   9.792
 6194W        W10262   3.555   7.776   9.353
 6195W        W10263   0.094  10.606   8.729
 6196W        W10264   0.603   9.793   8.265
 6197W        W10265   0.518   7.410  10.818
 6198W        W10266   1.637  10.263  10.920
 6199W        W10267   3.392   9.231   8.710
 6200W        W10268   2.746   9.408   7.590
 6201W        W10269   2.041  10.929   9.802
 6202W        W10270   2.898   9.651  10.839
 6203W        W10271   1.713   7.361   8.119
 6204W        W10272   2.426   8.230   8.978
 6205W        W10273   0.112   9.817   9.310
 6206W        W10274   1.365   7.779   7.951
 6207W        W10275   1.169   9.263  10.800
 6208W        W10276   2.163   8.244   8.514
 6209W        W10277   2.368   9.654   9.636
 6210W        W10278   0.522  10.259  10.071
 6211W        W10279   1.113  10.242  10.794
 6212W        W10280   0.964   8.039   7.808
 6213W        W10281   2.481   8.181   8.133
 6214W        W10282   2.439  10.289  10.370
 6215W        W10283   1.124   8.881   8.969
 6216W        W10284   0.779  10.579   9.834
 6217W        W10285   3.524  10.696   7.435
 6218W        W10286   0.387   9.368  10.431
 6219W        W10287   2.382   9.630   9.119
 6220W        W10288   0.818   9.279   8.361
 6221W        W10289   1.189  10.286   9.756
 6222W        W10290   1.567   7.705   8.797
 6223W        W10291   0.178   9.689   7.727
 6224W        W10292   1.697   8.640   7.597
 6225W        W10293   0.343   9.189   8.616
 6226W        W10294   1.633   7.831  10.080
 6227W        W10295   3.305   7.540   7.507
 6228W        W10296   3.398   9.286  10.606
 6229W        W10297   2.052  10.543  10.758
 6230W        W10298   3.610   9.637  10.280
 6231W        W10299   3.018  10.435  10.891
 6232W        W10300   0.757  10.891   9.369
 6233W        W10301   3.616   9.513   8.243
 6234W        W10302   2.146   8.780   8.756
 6235W        W10303   1.913   7.392   8.646
 6236W        W10304   0.972  10.376   8.483
 6237W        W10305   1.471   8.117   9.708
 6238W        W10306   1.171   7.486   9.177
 6239W        W10307   0.234  10.308   7.725
 6240W        W10308   2.050   9.672   8.443
 6241W        W10309   0.925  10.467  10.322
 6242W        W10310   0.402   9.290   8.018
 6243W        W10311   0.287   7.833   9.017
 6244W        W10312   1.835   9.798   9.074
 6245W        W10313   0.087   7.652   8.094
 6246W        W10314   2.751   8.858  10.021
 6247W        W10315   2.628   8.244   7.593
 6248W        W10316   3.145   9.916   9.241
 6249W        W10317   1.806  10.400   9.072
 6250W        W10318   1.218  10.504   7.983
 6251W        W10319   2.500   7.407   7.413
 6252W        W10320   0.300  10.667   9.154
 6253W        W10321   2.497   8.425  10.789
 6254W        W10322   0.480   7.955  10.788
 6255W        W10323   0.211   8.555   8.121
 6256W        W10324   0.902   8.544   7.846
 6257W        W10325   2.665   8.871  10.663
 6258W        W10326   1.008   9.152   9.372
 6259W        W10327   2.482   7.438   8.492
 6260W        W10328   1.613  10.869   8.995
 6261W        W10329   2.827  10.331   9.932
 6262W        W10330   2.411  10.480   9.043
 6263W        W10331   2.430   9.460   8.637
 6264W        W10332   1.892   7.685   7.708
 6265W        W10333   3.573   7.313   8.430
 6266W        W10334   1.261   8.948   7.593
 6267W        W10335   2.119   9.455   7.460
 6268W        W10336   3.055   9.655  10.208
 6269W        W10337   2.709  10.356   7.675
 6270W        W10338   1.324   8.031  10.581
 6271W        W10339   1.144   8.615   9.822
 6272W        W10340   3.236  10.110  10.099
 6273W        W10341   2.336   8.060  10.476
 6274W        W10342   0.180   8.531  10.253
 6275W        W10343   1.940   9.008   9.979
 6276W        W10344   0.297   9.766   8.636
 6277W        W10345   0.444   9.063   9.526
 6278W        W10346   2.761   9.349   9.876
 6279W        W10347   2.533  10.729  10.687
 6280W        W10348   2.429   8.468  10.240
 6281W        W10349   2.706  10.522   8.645
 6282W        W10350   1.708  10.242   9.968
 6283W        W10351   1.193  10.597   9.237
 6284W        W10352   2.998   9.768   9.656
 6285W        W10353   2.048   9.840  10.793
 6286W        W10354   0.653   9.793   9.132
 6287W        W10355   2.999   9.552   8.777
 6288W        W10356   2.640  10.618   9.528
 6289W        W10357   0.618  10.347   9.398
 6290W        W10358   1.639   8.399  10.608
 6291W        W10359   2.090  10.565   8.119
 6292W        W10360   1.398   9.820  10.757
 6293W        W10361   1.524  10.058   8.134
 6294W        W10362   0.745   8.798   7.393
 6295W        W10363   0.084  10.884  14.292
 6296W        W10364   0.460   9.777  13.815
 6297W        W10365   3.165   9.507  11.585
 6298W        W10366   3.295  10.592  13.612
 6299W        W10367   1.213  10.583  11.138
 6300W        W10368   1.296   8.735  12.121
 6301W        W10369   0.811   8.583  12.285
 6302W        W10370   1.802   9.398  11.719
 6303W        W10371   1.477  10.490  14.074
 6304W        W10372   0.126   8.051  14.037
 6305W        W10373   0.888   7.331  13.839
 6306W        W10374   2.582   7.719  12.726
 6307W        W10375   2.231   8.590  11.296
 6308W        W10376   2.801   8.024  14.387
 6309W        W10377   0.167   7.816  13.512
 6310W        W10378   0.266  10.435  14.533
 6311W        W10379   1.788   9.825  11.265
 6312W        W10380   0.220   8.608  12.958
 6313W        W10381   1.113   8.499  14.195
 6314W        W10382   3.572   8.358  12.694
 6315W        W10383   3.336   9.401  13.553
 6316W        W10384   1.644   8.734  12.580
 6317W        W10385   2.190  10.073  12.949
 6318W        W10386   0.690   9.507  13.181
 6319W        W10387   0.049   9.035  12.752
 6320W        W10388   1.085   9.007  13.944
 6321W        W10389   3.356   8.790  14.198
 6322W        W10390   0.972  10.234  12.643
 6323W        W10391   2.093   9.923  13.777
 6324W        W10392   1.313   8.563  13.002
 6325W        W10393   1.605   9.347  12.645
 6326W        W10394   2.602  10.120  14.493
 6327W        W10395   1.681   9.440  14.503
 6328W        W10396   1.662   9.156  13.981
 6329W        W10397   0.071   8.547  14.503
 6330W        W10398   2.903  10.082  14.102
 6331W        W10399   0.484   7.664  12.100
 6332W        W10400   1.011   9.922  13.099
 6333W        W10401   3.474   9.705  12.389
 6334W        W10402   2.887   8.105  12.956
 6335W        W10403   3.172   8.058  11.051
 6336W        W10404   3.637   8.859  13.357
 6337W        W10405   1.604  10.566  13.110
 6338W        W10406   3.378  10.032  11.548
 6339W        W10407   0.507  10.818  11.302
 6340W        W10408   0.900  10.864  11.978
 6341W        W10409   0.697   7.618  13.404
 6342W        W10410   3.320   8.636  13.679
 6343W        W10411   2.725   9.058  12.138
 6344W        W10412   2.691   8.746  11.165
 6345W        W10413   1.899   9.890  13.305
 6346W        W10414   1.705   8.220  12.504
 6347W        W10415   2.305  10.307  13.498
 6348W        W10416   3.176   9.098  11.920
 6349W        W10417   2.078   7.756  11.936
 6350W        W10418   0.735  10.450  11.619
 6351W        W10419   0.106   7.949  12.218
 6352W        W10420   2.892   8.556  12.692
 6353W        W10421   0.350  10.173  12.607
 6354W        W10422   1.691  10.523  11.477
 6355W        W10423   3.083   8.549  10.941
 6356W        W10424   0.106  10.307  13.105
 6357W        W10425   0.897   9.879  13.585
 6358W        W10426   1.270   9.239  12.204
 6359W        W10427   1.292   7.644  13.297
 6360W        W10428   3.521   7.406  12.594
 6361W        W10429   0.740   9.278  11.062
 6362W        W10430   0.395   8.311  11.241
 6363W        W10431   0.457  10.267  12.035
 6364W        W10432   1.588   9.750  12.283
 6365W        W10433   2.920  10.609  13.997
 6366W        W10434   1.846   8.251  11.681
 6367W        W10435   3.229  10.649  12.453
 6368W        W10436   2.906   8.502  14.051
 6369W        W10437   3.619  10.158  12.185
 6370W        W10438   2.246   9.450  13.669
 6371W        W10439   0.012   9.001  11.875
 6372W        W10440   1.123   9.416  13.448
 6373W        W10441   2.327   8.680  11.826
 6374W        W10442   2.204   9.170  11.930
 6375W        W10443   0.547   8.590  13.404
 6376W        W10444   0.532   8.466  14.326
 6377W        W10445   0.422   7.383  12.485
 6378W        W10446   2.190   7.730  13.046
 6379W        W10447   1.838   7.915  14.209
 6380W        W10448   2.193   8.064  11.387
 6381W        W10449   3.376  10.457  14.141
 6382W        W10450   2.343   7.538  14.180
 6383W        W10451   3.362   9.839  14.302
 6384W        W10452   2.792   8.006  13.898
 6385W        W10453   2.592   7.944  12.168
 6386W        W10454   2.985   9.078  14.572
 6387W        W10455   0.725  10.654  12.558
 6388W        W10456   1.383   8.371  11.544
 6389W        W10457   0.952   7.655  14.208
 6390W        W10458   3.004   8.139  11.889
 6391W        W10459   3.371   8.621  11.834
 6392W        W10460   1.114  10.838  14.305
 6393W        W10461   1.040   7.374  11.540
 6394W        W10462   3.361   7.908  12.575
 6395W        W10463   3.511  10.157  11.020
 6396W        W10464   0.418   9.360  12.722
 6397W        W10465   2.335   7.947  10.952
 6398W        W10466   3.469  10.279  12.672
 6399W        W10467   3.508   7.473  13.422
 6400W        W10468   1.953   8.685  13.976
 6401W        W10469   2.046  10.024  11.679
 6402W        W10470   2.446   9.318  14.419
 6403W        W10471   2.120   7.295  12.728
 6404W        W10472   0.732   8.198  12.791
 6405W        W10473   0.286   9.398  13.565
 6406W        W10474   2.145  10.591  12.271
 6407W        W10475   3.339   8.188  13.143
 6408W        W10476   1.976  10.535  13.910
 6409W        W10477   3.319   9.594  11.115
 6410W        W10478   1.754   9.077  12.176
 6411W        W10479   3.606   7.588  13.917
 6412W        W10480   1.755   9.423  13.511
 6413W        W10481   1.972   8.309  12.956
 6414W        W10482   2.824   8.607  11.794
 6415W        W10483   3.111   8.340  11.436
 6416W        W10484   2.920  10.380  11.825
 6417W        W10485   2.754   9.983  12.621
 6418W        W10486   2.650   9.062  11.599
 6419W        W10487   2.083   9.272  12.585
 6420W        W10488   2.964   9.060  12.652
 6421W        W10489   0.339   8.075  13.076
 6422W        W10490   3.117   9.127  13.903
 6423W        W10491   3.468  10.745  13.049
 6424W        W10492   1.398  10.189  12.451
 6425W        W10493   2.405  10.722  13.775
 6426W        W10494   2.399   8.052  13.539
 6427W        W10495   1.606  10.760  13.600
 6428W        W10496   3.303   7.714  12.066
 6429W        W10497   3.094   9.033  13.367
 6430W        W10498   0.077   8.354  13.405
 6431W        W10499   2.937   8.149  12.423
 6432W        W10500   3.348   8.300  14.200
 6433W        W10501   2.233   9.999  12.418
 6434W        W10502   1.489  10.590  12.031
 6435W        W10503   0.604   7.770  11.289
 6436W        W10504   1.708   7.424  13.099
 6437W        W10505   0.736  10.544  10.947
 6438W        W10506   1.110   9.010  11.698
 6439W        W10507   1.764   9.639  14.011
 6440W        W10508   1.594   7.997  12.001
 6441W        W10509   2.950   7.594  12.429
 6442W        W10510   2.670  10.876  12.757
 6443W        W10511   2.082  10.524  13.097
 6444W        W10512   1.478   9.561  13.058
 6445W        W10513   3.248  10.284  13.184
 6446W        W10514   0.942   7.787  11.953
 6447W        W10515   1.464  10.084  12.913
 6448W        W10516   0.947   8.015  10.978
 6449W        W10517   1.748   8.624  13.372
 6450W        W10518   2.596   7.490  13.242
 6451W        W10519   0.016   9.333  13.127
 6452W        W10520   1.720   9.151  11.285
 6453W        W10521   0.988   7.466  11.055
 6454W        W10522   1.726   8.547  12.106
 6455W        W10523   2.696   7.523  13.805
 6456W        W10524   1.284   9.535  13.914
 6457W        W10525   2.088   9.317  14.131
 6458W        W10526   2.705   9.347  14.024
 6459W        W10527   1.989   7.487  14.529
 6460W        W10528   1.211   8.103  12.922
 6461W        W10529   0.637   8.059  12.320
 6462W        W10530   0.423  10.771  11.996
 6463W        W10531   1.755  10.101  14.121
 6464W        W10532   0.790   9.586  11.480
 6465W        W10533   2.470   8.971  12.701
 6466W        W10534   2.750   8.770  13.100
 6467W        W10535   1.955   9.444  13.034
 6468W        W10536   2.425   9.818  11.166
 6469W        W10537   2.097   7.839  12.494
 6470W        W10538   3.576   8.117  11.762
 6471W        W10539   0.070  10.706  13.793
 6472W        W10540   0.487   9.932  13.325
 6473W        W10541   0.054  10.778  11.557
 6474W        W10542   1.953   8.048  13.363
 6475W        W10543   1.316  10.071  11.212
 6476W        W10544   3.221  10.453  11.398
 6477W        W10545   2.196   9.106  11.412
 6478W        W10546   1.039   8.297  11.929
 6479W        W10547   1.871   8.207  10.981
 6480W        W10548   2.455   9.772  14.159
 6481W        W10549   2.808   7.678  11.776
 6482W        W10550   0.138   7.526  11.224
 6483W        W10551   1.424   9.845  13.514
 6484W        W10552   1.223   9.761  12.606
 6485W        W10553   0.965   9.713  11.004
 6486W        W10554   0.206   9.954  11.772
 6487W        W10555   0.710   9.024  14.214
 6488W        W10556   1.414   7.584  14.400
 6489W        W10557   2.123   7.726  13.756
 6490W        W10558   1.318   7.494  12.037
 6491W        W10559   2.377   7.571  11.542
 6492W        W10560   0.322   7.503  13.119
 6493W        W10561   0.370   8.466  12.489
 6494W        W10562   3.059   7.574  12.895
 6495W        W10563   0.481   8.072  11.709
 6496W        W10564   3.052   7.760  13.325
 6497W        W10565   3.448   8.963  11.010
 6498W        W10566   0.740   7.721  12.829
 6499W        W10567   1.854   8.293  13.769
 6500W        W10568   0.002   7.983  11.247
 6501W        W10569   0.788   9.372  13.808
 6502W        W10570   2.146   8.770  12.987
 6503W        W10571   2.013  10.849  11.283
 6504W        W10572   0.159   9.356  10.980
 6505W        W10573   0.894   9.767  14.106
 6506W        W10574   0.415   8.934  13.737
 6507W        W10575   1.406   9.039  13.531
 6508W        W10576   3.174   7.398  13.793
 6509W        W10577   3.572   9.008  13.784
 6510W        W10578   3.560   9.208  11.470
 6511W        W10579   2.423   9.540  11.569
 6512W        W10580   2.897  10.840  11.264
 6513W        W10581   2.074   8.830  14.406
 6514W        W10582   0.404   9.797  14.446
 6515W        W10583   3.610   7.719  14.398
 6516W        W10584   3.328   8.647  13.019
 6517W        W10585   1.636  10.777  14.496
 6518W        W10586   1.491   7.406  11.223
 6519W        W10587   3.030  10.005  11.166
 6520W        W10588   0.799   8.098  14.052
 6521W        W10589   1.233  10.092  13.914
 6522W        W10590   3.359   8.083  13.712
 6523W        W10591   2.570  10.742  11.680
 6524W        W10592   2.809   9.361  13.047
 6525W        W10593   1.059   7.777  13.714
 6526W        W10594   1.528   8.846  14.471
 6527W        W10595   1.031  10.025  11.665
 6528W        W10596   2.786   9.523  11.929
 6529W        W10597   0.554   8.149  13.653
 6530W        W10598   1.883  10.211  12.117
 6531W        W10599   3.633   8.771  12.298
 6532W        W10600   1.855   7.404  14.017
 6533W        W10601   2.635  10.109  13.096
 6534W        W10602   2.938  10.453  12.804
 6535W        W10603   2.157  10.255  11.232
 6536W        W10604   0.167  10.147  14.074
 6537W        W10605   0.910   8.139  13.312
 6538W        W10606   0.880   7.487  12.422
 6539W        W10607   2.501   8.329  13.114
 6540W        W10608   1.299   9.500  11.314
 6541W        W10609   3.297   9.442  12.813
 6542W        W10610   0.624  10.200  14.236
 6543W        W10611   3.011  10.882  12.033
 6544W        W10612   1.110   7.902  12.478
 6545W        W10613   0.879   9.395  12.568
 6546W        W10614   1.192  10.806  13.318
 6547W        W10615   3.259  10.902  14.350
 6548W        W10616   2.418   9.090  13.283
 6549W        W10617   0.267   8.888  11.198
 6550W        W10618   3.401  10.546  11.895
 6551W        W10619   3.238   7.870  11.514
 6552W        W10620   1.377   7.389  13.917
 6553W        W10621   3.083  10.191  12.375
 6554W        W10622   3.112   8.747  12.280
 6555W        W10623   1.229   8.420  12.496
 6556W        W10624   1.474   8.682  13.820
 6557W        W10625   2.585   9.835  13.683
 6558W        W10626   1.235   8.289  13.795
 6559W        W10627   1.214  10.755  12.411
 6560W        W10628   0.531  10.714  14.045
 6561W        W10629   0.643  10.075  11.175
 6562W        W10630   3.160   9.833  11.985
 6563W        W10631   0.764   8.625  13.871
 6564W        W10632   3.537   8.555  11.352
 6565W        W10633   1.282   9.612  11.823
 6566W        W10634   2.381   8.994  13.904
 6567W        W10635   2.272   8.622  13.448
 6568W        W10636   0.832   8.994  13.477
 6569W        W10637   3.042  10.882  13.306
 6570W        W10638   2.833   7.516  14.300
 6571W        W10639   0.497   7.666  13.887
 6572W        W10640   0.836   8.689  12.940
 6573W        W10641   1.205   8.503  11.062
 6574W        W10642   0.008  10.262  13.607
 6575W        W10643   1.593   8.971  13.050
 6576W        W10644   1.416   7.996  11.155
 6577W        W10645   0.551   8.812  11.936
 6578W        W10646   0.322  10.664  13.373
 6579W        W10647   3.117   8.890  11.481
 6580W        W10648   3.212   7.806  14.167
 6581W        W10649   2.648  10.015  12.130
 6582W        W10650   0.246   8.939  14.307
 6583W        W10651   3.212   7.403  11.603
 6584W        W10652   2.732   9.878  11.614
 6585W        W10653   1.634   8.936  11.699
 6586W        W10654   2.821   7.740  11.222
 6587W        W10655   2.886   8.347  13.408
 6588W        W10656   0.595   8.940  12.615
 6589W        W10657   0.889   9.879  12.264
 6590W        W10658   2.652   8.499  12.229
 6591W        W10659   1.675   7.878  12.925
 6592W        W10660   3.637   9.789  13.436
 6593W        W10661   3.555   7.776  12.997
 6594W        W10662   0.094  10.606  12.373
 6595W        W10663   0.603   9.793  11.909
 6596W        W10664   0.518   7.410  14.462
 6597W        W10665   1.637  10.263  14.564
 6598W        W10666   3.392   9.231  12.354
 6599W        W10667   2.746   9.408  11.234
 6600W        W10668   2.041  10.929  13.446
 6601W        W10669   2.898   9.651  14.483
 6602W        W10670   1.713   7.361  11.763
 6603W        W10671   2.426   8.230  12.622
 6604W        W10672   0.112   9.817  12.954
 6605W        W10673   1.365   7.779  11.595
 6606W        W10674   1.169   9.263  14.444
 6607W        W10675   2.163   8.244  12.158
 6608W        W10676   2.368   9.654  13.280
 6609W        W10677   0.522  10.259  13.715
 6610W        W10678   1.113  10.242  14.438
 6611W        W10679   0.964   8.039  11.452
 6612W        W10680   2.481   8.181  11.777
 6613W        W10681   2.439  10.289  14.014
 6614W        W10682   1.124   8.881  12.613
 6615W        W10683   0.779  10.579  13.478
 6616W        W10684   3.524  10.696  11.079
 6617W        W10685   0.387   9.368  14.075
 6618W        W10686   2.382   9.630  12.763
 6619W        W10687   0.818   9.279  12.005
 6620W        W10688   1.189  10.286  13.400
 6621W        W10689   1.567   7.705  12.441
 6622W        W10690   0.178   9.689  11.371
 6623W        W10691   1.697   8.640  11.241
 6624W        W10692   0.343   9.189  12.260
 6625W        W10693   1.633   7.831  13.724
 6626W        W10694   3.305   7.540  11.151
 6627W        W10695   3.398   9.286  14.250
 6628W        W10696   2.052  10.543  14.402
 6629W        W10697   3.610   9.637  13.924
 6630W        W10698   3.018  10.435  14.535
 6631W        W10699   0.757  10.891  13.013
 6632W        W10700   3.616   9.513  11.887
 6633W        W10701   2.146   8.780  12.400
 6634W        W10702   1.913   7.392  12.290
 6635W        W10703   0.972  10.376  12.127
 6636W        W10704   1.471   8.117  13.352
 6637W        W10705   1.171   7.486  12.821
 6638W        W10706   0.234  10.308  11.369
 6639W        W10707   2.050   9.672  12.087
 6640W        W10708   0.925  10.467  13.966
 6641W        W10709   0.402   9.290  11.662
 6642W        W10710   0.287   7.833  12.661
 6643W        W10711   1.835   9.798  12.718
 6644W        W10712   0.087   7.652  11.738
 6645W        W10713   2.751   8.858  13.665
 6646W        W10714   2.628   8.244  11.237
 6647W        W10715   3.145   9.916  12.885
 6648W        W10716   1.806  10.400  12.716
 6649W        W10717   1.218  10.504  11.627
 6650W        W10718   2.500   7.407  11.057
 6651W        W10719   0.300  10.667  12.798
 6652W        W10720   2.497   8.425  14.433
 6653W        W10721   0.480   7.955  14.432
 6654W        W10722   0.211   8.555  11.765
 6655W        W10723   0.902   8.544  11.490
 6656W        W10724   2.665   8.871  14.307
 6657W        W10725   1.008   9.152  13.016
 6658W        W10726   2.482   7.438  12.136
 6659W        W10727   1.613  10.869  12.639
 6660W        W10728   2.827  10.331  13.576
 6661W        W10729   2.411  10.480  12.687
 6662W        W10730   2.430   9.460  12.281
 6663W        W10731   1.892   7.685  11.352
 6664W        W10732   3.573   7.313  12.074
 6665W        W10733   1.261   8.948  11.237
 6666W        W10734   3.427   8.285  12.227
 6667W        W10735   2.119   9.455  11.104
 6668W        W10736   3.055   9.655  13.852
 6669W        W10737   2.709  10.356  11.319
 6670W        W10738   1.324   8.031  14.225
 6671W        W10739   1.144   8.615  13.466
 6672W        W10740   3.236  10.110  13.743
 6673W        W10741   2.336   8.060  14.120
 6674W        W10742   0.180   8.531  13.897
 6675W        W10743   1.940   9.008  13.623
 6676W        W10744   0.297   9.766  12.280
 6677W        W10745   0.444   9.063  13.170
 6678W        W10746   2.761   9.349  13.520
 6679W        W10747   2.533  10.729  14.331
 6680W        W10748   2.429   8.468  13.884
 6681W        W10749   2.706  10.522  12.289
 6682W        W10750   1.708  10.242  13.612
 6683W        W10751   1.193  10.597  12.881
 6684W        W10752   2.998   9.768  13.300
 6685W        W10753   2.048   9.840  14.437
 6686W        W10754   0.653   9.793  12.776
 6687W        W10755   2.999   9.552  12.421
 6688W        W10756   2.640  10.618  13.172
 6689W        W10757   0.618  10.347  13.042
 6690W        W10758   1.639   8.399  14.252
 6691W        W10759   2.090  10.565  11.763
 6692W        W10760   1.398   9.820  14.401
 6693W        W10761   1.524  10.058  11.778
 6694W        W10762   0.745   8.798  11.037
 6695W        W10763   0.084  10.884  17.936
 6696W        W10764   0.460   9.777  17.459
 6697W        W10765   3.165   9.507  15.229
 6698W        W10766   3.295  10.592  17.256
 6699W        W10767   1.213  10.583  14.782
 6700W        W10768   1.296   8.735  15.765
 6701W        W10769   0.811   8.583  15.929
 6702W        W10770   1.802   9.398  15.363
 6703W        W10771   1.477  10.490  17.718
 6704W        W10772   0.126   8.051  17.681
 6705W        W10773   0.888   7.331  17.483
 6706W        W10774   2.582   7.719  16.370
 6707W        W10775   2.231   8.590  14.940
 6708W        W10776   2.801   8.024  18.031
 6709W        W10777   0.167   7.816  17.156
 6710W        W10778   0.266  10.435  18.177
 6711W        W10779   1.788   9.825  14.909
 6712W        W10780   0.220   8.608  16.602
 6713W        W10781   1.113   8.499  17.839
 6714W        W10782   3.336   9.401  17.197
 6715W        W10783   1.644   8.734  16.224
 6716W        W10784   2.190  10.073  16.593
 6717W        W10785   0.690   9.507  16.825
 6718W        W10786   0.049   9.035  16.396
 6719W        W10787   1.085   9.007  17.588
 6720W        W10788   3.356   8.790  17.842
 6721W        W10789   0.972  10.234  16.287
 6722W        W10790   2.093   9.923  17.421
 6723W        W10791   1.313   8.563  16.646
 6724W        W10792   1.605   9.347  16.289
 6725W        W10793   2.602  10.120  18.137
 6726W        W10794   1.681   9.440  18.147
 6727W        W10795   1.662   9.156  17.625
 6728W        W10796   0.071   8.547  18.147
 6729W        W10797   2.903  10.082  17.746
 6730W        W10798   0.484   7.664  15.744
 6731W        W10799   1.011   9.922  16.743
 6732W        W10800   3.474   9.705  16.033
 6733W        W10801   2.887   8.105  16.600
 6734W        W10802   3.172   8.058  14.695
 6735W        W10803   3.637   8.859  17.001
 6736W        W10804   1.604  10.566  16.754
 6737W        W10805   3.378  10.032  15.192
 6738W        W10806   0.507  10.818  14.946
 6739W        W10807   0.900  10.864  15.622
 6740W        W10808   0.697   7.618  17.048
 6741W        W10809   3.320   8.636  17.323
 6742W        W10810   2.725   9.058  15.782
 6743W        W10811   2.691   8.746  14.809
 6744W        W10812   1.899   9.890  16.949
 6745W        W10813   1.705   8.220  16.148
 6746W        W10814   2.305  10.307  17.142
 6747W        W10815   3.176   9.098  15.564
 6748W        W10816   2.078   7.756  15.580
 6749W        W10817   0.735  10.450  15.263
 6750W        W10818   0.106   7.949  15.862
 6751W        W10819   2.892   8.556  16.336
 6752W        W10820   0.350  10.173  16.251
 6753W        W10821   1.691  10.523  15.121
 6754W        W10822   3.083   8.549  14.585
 6755W        W10823   0.106  10.307  16.749
 6756W        W10824   0.897   9.879  17.229
 6757W        W10825   1.270   9.239  15.848
 6758W        W10826   1.292   7.644  16.941
 6759W        W10827   3.521   7.406  16.238
 6760W        W10828   0.740   9.278  14.706
 6761W        W10829   0.395   8.311  14.885
 6762W        W10830   0.457  10.267  15.679
 6763W        W10831   1.588   9.750  15.927
 6764W        W10832   2.920  10.609  17.641
 6765W        W10833   1.846   8.251  15.325
 6766W        W10834   3.229  10.649  16.097
 6767W        W10835   2.906   8.502  17.695
 6768W        W10836   3.619  10.158  15.829
 6769W        W10837   2.246   9.450  17.313
 6770W        W10838   0.012   9.001  15.519
 6771W        W10839   1.123   9.416  17.092
 6772W        W10840   2.327   8.680  15.470
 6773W        W10841   2.204   9.170  15.574
 6774W        W10842   0.547   8.590  17.048
 6775W        W10843   0.532   8.466  17.970
 6776W        W10844   0.422   7.383  16.129
 6777W        W10845   2.190   7.730  16.690
 6778W        W10846   1.838   7.915  17.853
 6779W        W10847   2.193   8.064  15.031
 6780W        W10848   3.376  10.457  17.785
 6781W        W10849   2.343   7.538  17.824
 6782W        W10850   3.362   9.839  17.946
 6783W        W10851   2.792   8.006  17.542
 6784W        W10852   2.592   7.944  15.812
 6785W        W10853   2.985   9.078  18.216
 6786W        W10854   0.725  10.654  16.202
 6787W        W10855   1.383   8.371  15.188
 6788W        W10856   0.952   7.655  17.852
 6789W        W10857   3.004   8.139  15.533
 6790W        W10858   3.371   8.621  15.478
 6791W        W10859   1.114  10.838  17.949
 6792W        W10860   1.040   7.374  15.184
 6793W        W10861   3.361   7.908  16.219
 6794W        W10862   3.511  10.157  14.664
 6795W        W10863   0.418   9.360  16.366
 6796W        W10864   2.335   7.947  14.596
 6797W        W10865   3.469  10.279  16.316
 6798W        W10866   3.508   7.473  17.066
 6799W        W10867   1.953   8.685  17.620
 6800W        W10868   2.046  10.024  15.323
 6801W        W10869   2.446   9.318  18.063
 6802W        W10870   2.120   7.295  16.372
 6803W        W10871   0.732   8.198  16.435
 6804W        W10872   0.286   9.398  17.209
 6805W        W10873   2.145  10.591  15.915
 6806W        W10874   1.976  10.535  17.554
 6807W        W10875   3.319   9.594  14.759
 6808W        W10876   1.754   9.077  15.820
 6809W        W10877   3.606   7.588  17.561
 6810W        W10878   1.755   9.423  17.155
 6811W        W10879   1.972   8.309  16.600
 6812W        W10880   2.824   8.607  15.438
 6813W        W10881   3.111   8.340  15.080
 6814W        W10882   2.920  10.380  15.469
 6815W        W10883   2.754   9.983  16.265
 6816W        W10884   2.650   9.062  15.243
 6817W        W10885   2.083   9.272  16.229
 6818W        W10886   2.964   9.060  16.296
 6819W        W10887   0.339   8.075  16.720
 6820W        W10888   3.117   9.127  17.547
 6821W        W10889   1.398  10.189  16.095
 6822W        W10890   2.405  10.722  17.419
 6823W        W10891   2.399   8.052  17.183
 6824W        W10892   1.606  10.760  17.244
 6825W        W10893   3.303   7.714  15.710
 6826W        W10894   3.094   9.033  17.011
 6827W        W10895   0.077   8.354  17.049
 6828W        W10896   2.937   8.149  16.067
 6829W        W10897   3.348   8.300  17.844
 6830W        W10898   2.233   9.999  16.062
 6831W        W10899   1.489  10.590  15.675
 6832W        W10900   0.604   7.770  14.933
 6833W        W10901   1.708   7.424  16.743
 6834W        W10902   0.736  10.544  14.591
 6835W        W10903   1.110   9.010  15.342
 6836W        W10904   1.764   9.639  17.655
 6837W        W10905   1.594   7.997  15.645
 6838W        W10906   2.950   7.594  16.073
 6839W        W10907   2.670  10.876  16.401
 6840W        W10908   2.082  10.524  16.741
 6841W        W10909   1.478   9.561  16.702
 6842W        W10910   0.942   7.787  15.597
 6843W        W10911   1.464  10.084  16.557
 6844W        W10912   0.947   8.015  14.622
 6845W        W10913   1.748   8.624  17.016
 6846W        W10914   2.596   7.490  16.886
 6847W        W10915   0.016   9.333  16.771
 6848W        W10916   1.720   9.151  14.929
 6849W        W10917   0.988   7.466  14.699
 6850W        W10918   1.726   8.547  15.750
 6851W        W10919   2.696   7.523  17.449
 6852W        W10920   1.284   9.535  17.558
 6853W        W10921   2.088   9.317  17.775
 6854W        W10922   2.705   9.347  17.668
 6855W        W10923   1.989   7.487  18.173
 6856W        W10924   1.211   8.103  16.566
 6857W        W10925   0.637   8.059  15.964
 6858W        W10926   0.423  10.771  15.640
 6859W        W10927   1.755  10.101  17.765
 6860W        W10928   0.790   9.586  15.124
 6861W        W10929   2.470   8.971  16.345
 6862W        W10930   2.750   8.770  16.744
 6863W        W10931   1.955   9.444  16.678
 6864W        W10932   2.425   9.818  14.810
 6865W        W10933   2.097   7.839  16.138
 6866W        W10934   3.576   8.117  15.406
 6867W        W10935   0.070  10.706  17.437
 6868W        W10936   0.487   9.932  16.969
 6869W        W10937   0.054  10.778  15.201
 6870W        W10938   1.953   8.048  17.007
 6871W        W10939   1.316  10.071  14.856
 6872W        W10940   3.221  10.453  15.042
 6873W        W10941   2.196   9.106  15.056
 6874W        W10942   1.039   8.297  15.573
 6875W        W10943   1.871   8.207  14.625
 6876W        W10944   2.455   9.772  17.803
 6877W        W10945   2.808   7.678  15.420
 6878W        W10946   0.138   7.526  14.868
 6879W        W10947   1.424   9.845  17.158
 6880W        W10948   1.223   9.761  16.250
 6881W        W10949   0.965   9.713  14.648
 6882W        W10950   0.206   9.954  15.416
 6883W        W10951   0.710   9.024  17.858
 6884W        W10952   1.414   7.584  18.044
 6885W        W10953   2.123   7.726  17.400
 6886W        W10954   1.318   7.494  15.681
 6887W        W10955   2.377   7.571  15.186
 6888W        W10956   0.322   7.503  16.763
 6889W        W10957   0.370   8.466  16.133
 6890W        W10958   3.059   7.574  16.539
 6891W        W10959   0.481   8.072  15.353
 6892W        W10960   3.052   7.760  16.969
 6893W        W10961   3.448   8.963  14.654
 6894W        W10962   0.740   7.721  16.473
 6895W        W10963   1.854   8.293  17.413
 6896W        W10964   0.002   7.983  14.891
 6897W        W10965   0.788   9.372  17.452
 6898W        W10966   2.146   8.770  16.631
 6899W        W10967   2.013  10.849  14.927
 6900W        W10968   0.159   9.356  14.624
 6901W        W10969   0.894   9.767  17.750
 6902W        W10970   0.415   8.934  17.381
 6903W        W10971   1.406   9.039  17.175
 6904W        W10972   3.174   7.398  17.437
 6905W        W10973   3.572   9.008  17.428
 6906W        W10974   3.560   9.208  15.114
 6907W        W10975   2.423   9.540  15.213
 6908W        W10976   2.897  10.840  14.908
 6909W        W10977   2.074   8.830  18.050
 6910W        W10978   0.404   9.797  18.090
 6911W        W10979   3.610   7.719  18.042
 6912W        W10980   3.328   8.647  16.663
 6913W        W10981   1.636  10.777  18.140
 6914W        W10982   1.491   7.406  14.867
 6915W        W10983   3.030  10.005  14.810
 6916W        W10984   0.799   8.098  17.696
 6917W        W10985   1.233  10.092  17.558
 6918W        W10986   3.359   8.083  17.356
 6919W        W10987   2.570  10.742  15.324
 6920W        W10988   2.809   9.361  16.691
 6921W        W10989   1.059   7.777  17.358
 6922W        W10990   1.528   8.846  18.115
 6923W        W10991   1.031  10.025  15.309
 6924W        W10992   2.786   9.523  15.573
 6925W        W10993   0.554   8.149  17.297
 6926W        W10994   1.883  10.211  15.761
 6927W        W10995   3.633   8.771  15.942
 6928W        W10996   1.855   7.404  17.661
 6929W        W10997   2.635  10.109  16.740
 6930W        W10998   2.157  10.255  14.876
 6931W        W10999   0.167  10.147  17.718
 6932W        W11000   0.910   8.139  16.956
 6933W        W11001   0.880   7.487  16.066
 6934W        W11002   2.501   8.329  16.758
 6935W        W11003   1.299   9.500  14.958
 6936W        W11004   3.297   9.442  16.457
 6937W        W11005   0.624  10.200  17.880
 6938W        W11006   3.011  10.882  15.677
 6939W        W11007   1.110   7.902  16.122
 6940W        W11008   0.879   9.395  16.212
 6941W        W11009   1.192  10.806  16.962
 6942W        W11010   3.259  10.902  17.994
 6943W        W11011   2.418   9.090  16.927
 6944W        W11012   0.267   8.888  14.842
 6945W        W11013   3.401  10.546  15.539
 6946W        W11014   3.238   7.870  15.158
 6947W        W11015   1.377   7.389  17.561
 6948W        W11016   3.083  10.191  16.019
 6949W        W11017   3.112   8.747  15.924
 6950W        W11018   1.229   8.420  16.140
 6951W        W11019   1.474   8.682  17.464
 6952W        W11020   2.585   9.835  17.327
 6953W        W11021   1.235   8.289  17.439
 6954W        W11022   1.214  10.755  16.055
 6955W        W11023   0.531  10.714  17.689
 6956W        W11024   0.643  10.075  14.819
 6957W        W11025   3.160   9.833  15.629
 6958W        W11026   0.764   8.625  17.515
 6959W        W11027   3.537   8.555  14.996
 6960W        W11028   1.282   9.612  15.467
 6961W        W11029   2.381   8.994  17.548
 6962W        W11030   2.272   8.622  17.092
 6963W        W11031   0.832   8.994  17.121
 6964W        W11032   3.042  10.882  16.950
 6965W        W11033   2.833   7.516  17.944
 6966W        W11034   0.497   7.666  17.531
 6967W        W11035   0.836   8.689  16.584
 6968W        W11036   1.205   8.503  14.706
 6969W        W11037   0.008  10.262  17.251
 6970W        W11038   1.593   8.971  16.694
 6971W        W11039   1.416   7.996  14.799
 6972W        W11040   0.551   8.812  15.580
 6973W        W11041   0.322  10.664  17.017
 6974W        W11042   3.117   8.890  15.125
 6975W        W11043   3.212   7.806  17.811
 6976W        W11044   2.648  10.015  15.774
 6977W        W11045   0.246   8.939  17.951
 6978W        W11046   3.212   7.403  15.247
 6979W        W11047   2.732   9.878  15.258
 6980W        W11048   1.634   8.936  15.343
 6981W        W11049   2.821   7.740  14.866
 6982W        W11050   2.886   8.347  17.052
 6983W        W11051   0.595   8.940  16.259
 6984W        W11052   0.889   9.879  15.908
 6985W        W11053   2.652   8.499  15.873
 6986W        W11054   1.675   7.878  16.569
 6987W        W11055   3.637   9.789  17.080
 6988W        W11056   0.094  10.606  16.017
 6989W        W11057   0.603   9.793  15.553
 6990W        W11058   0.518   7.410  18.106
 6991W        W11059   1.637  10.263  18.208
 6992W        W11060   3.392   9.231  15.998
 6993W        W11061   2.746   9.408  14.878
 6994W        W11062   2.041  10.929  17.090
 6995W        W11063   2.898   9.651  18.127
 6996W        W11064   1.713   7.361  15.407
 6997W        W11065   2.426   8.230  16.266
 6998W        W11066   0.112   9.817  16.598
 6999W        W11067   1.365   7.779  15.239
 7000W        W11068   1.169   9.263  18.088
 7001W        W11069   2.163   8.244  15.802
 7002W        W11070   2.368   9.654  16.924
 7003W        W11071   0.522  10.259  17.359
 7004W        W11072   1.113  10.242  18.082
 7005W        W11073   0.964   8.039  15.096
 7006W        W11074   2.481   8.181  15.421
 7007W        W11075   2.439  10.289  17.658
 7008W        W11076   1.124   8.881  16.257
 7009W        W11077   0.779  10.579  17.122
 7010W        W11078   3.524  10.696  14.723
 7011W        W11079   0.387   9.368  17.719
 7012W        W11080   2.382   9.630  16.407
 7013W        W11081   0.818   9.279  15.649
 7014W        W11082   1.189  10.286  17.044
 7015W        W11083   1.567   7.705  16.085
 7016W        W11084   0.178   9.689  15.015
 7017W        W11085   1.697   8.640  14.885
 7018W        W11086   0.343   9.189  15.904
 7019W        W11087   1.633   7.831  17.368
 7020W        W11088   3.305   7.540  14.795
 7021W        W11089   3.398   9.286  17.894
 7022W        W11090   2.052  10.543  18.046
 7023W        W11091   3.610   9.637  17.568
 7024W        W11092   3.018  10.435  18.179
 7025W        W11093   0.757  10.891  16.657
 7026W        W11094   3.616   9.513  15.531
 7027W        W11095   2.146   8.780  16.044
 7028W        W11096   1.913   7.392  15.934
 7029W        W11097   0.972  10.376  15.771
 7030W        W11098   1.471   8.117  16.996
 7031W        W11099   1.171   7.486  16.465
 7032W        W11100   0.234  10.308  15.013
 7033W        W11101   2.050   9.672  15.731
 7034W        W11102   0.925  10.467  17.610
 7035W        W11103   0.402   9.290  15.306
 7036W        W11104   0.287   7.833  16.305
 7037W        W11105   1.835   9.798  16.362
 7038W        W11106   0.087   7.652  15.382
 7039W        W11107   2.751   8.858  17.309
 7040W        W11108   2.628   8.244  14.881
 7041W        W11109   1.806  10.400  16.360
 7042W        W11110   1.218  10.504  15.271
 7043W        W11111   2.500   7.407  14.701
 7044W        W11112   0.300  10.667  16.442
 7045W        W11113   2.497   8.425  18.077
 7046W        W11114   0.480   7.955  18.076
 7047W        W11115   0.211   8.555  15.409
 7048W        W11116   0.902   8.544  15.134
 7049W        W11117   2.665   8.871  17.951
 7050W        W11118   1.008   9.152  16.660
 7051W        W11119   2.482   7.438  15.780
 7052W        W11120   1.613  10.869  16.283
 7053W        W11121   2.827  10.331  17.220
 7054W        W11122   2.411  10.480  16.331
 7055W        W11123   2.430   9.460  15.925
 7056W        W11124   1.892   7.685  14.996
 7057W        W11125   3.573   7.313  15.718
 7058W        W11126   1.261   8.948  14.881
 7059W        W11127   3.427   8.285  15.871
 7060W        W11128   2.119   9.455  14.748
 7061W        W11129   3.055   9.655  17.496
 7062W        W11130   2.709  10.356  14.963
 7063W        W11131   1.324   8.031  17.869
 7064W        W11132   1.144   8.615  17.110
 7065W        W11133   3.236  10.110  17.387
 7066W        W11134   2.336   8.060  17.764
 7067W        W11135   0.180   8.531  17.541
 7068W        W11136   1.940   9.008  17.267
 7069W        W11137   0.297   9.766  15.924
 7070W        W11138   0.444   9.063  16.814
 7071W        W11139   2.761   9.349  17.164
 7072W        W11140   2.533  10.729  17.975
 7073W        W11141   2.429   8.468  17.528
 7074W        W11142   2.706  10.522  15.933
 7075W        W11143   1.708  10.242  17.256
 7076W        W11144   1.193  10.597  16.525
 7077W        W11145   2.998   9.768  16.944
 7078W        W11146   2.048   9.840  18.081
 7079W        W11147   0.653   9.793  16.420
 7080W        W11148   2.999   9.552  16.065
 7081W        W11149   0.618  10.347  16.686
 7082W        W11150   1.639   8.399  17.896
 7083W        W11151   2.090  10.565  15.407
 7084W        W11152   1.398   9.820  18.045
 7085W        W11153   1.524  10.058  15.422
 7086W        W11154   0.745   8.798  14.681
 7087W        W11155   0.084  10.884  21.580
 7088W        W11156   0.460   9.777  21.103
 7089W        W11157   3.165   9.507  18.873
 7090W        W11158   3.295  10.592  20.900
 7091W        W11159   1.213  10.583  18.426
 7092W        W11160   1.296   8.735  19.409
 7093W        W11161   0.811   8.583  19.573
 7094W        W11162   1.802   9.398  19.007
 7095W        W11163   1.477  10.490  21.362
 7096W        W11164   0.126   8.051  21.325
 7097W        W11165   0.888   7.331  21.127
 7098W        W11166   2.582   7.719  20.014
 7099W        W11167   2.231   8.590  18.584
 7100W        W11168   2.801   8.024  21.675
 7101W        W11169   0.167   7.816  20.800
 7102W        W11170   0.266  10.435  21.821
 7103W        W11171   1.788   9.825  18.553
 7104W        W11172   0.220   8.608  20.246
 7105W        W11173   1.113   8.499  21.483
 7106W        W11174   3.572   8.358  19.982
 7107W        W11175   3.336   9.401  20.841
 7108W        W11176   1.644   8.734  19.868
 7109W        W11177   2.190  10.073  20.237
 7110W        W11178   0.690   9.507  20.469
 7111W        W11179   0.049   9.035  20.040
 7112W        W11180   1.085   9.007  21.232
 7113W        W11181   3.356   8.790  21.486
 7114W        W11182   0.972  10.234  19.931
 7115W        W11183   2.093   9.923  21.065
 7116W        W11184   1.313   8.563  20.290
 7117W        W11185   1.605   9.347  19.933
 7118W        W11186   2.602  10.120  21.781
 7119W        W11187   1.681   9.440  21.791
 7120W        W11188   1.662   9.156  21.269
 7121W        W11189   0.071   8.547  21.791
 7122W        W11190   2.903  10.082  21.390
 7123W        W11191   0.484   7.664  19.388
 7124W        W11192   1.011   9.922  20.387
 7125W        W11193   3.474   9.705  19.677
 7126W        W11194   2.887   8.105  20.244
 7127W        W11195   3.172   8.058  18.339
 7128W        W11196   3.637   8.859  20.645
 7129W        W11197   1.604  10.566  20.398
 7130W        W11198   3.378  10.032  18.836
 7131W        W11199   0.507  10.818  18.590
 7132W        W11200   0.900  10.864  19.266
 7133W        W11201   0.697   7.618  20.692
 7134W        W11202   3.320   8.636  20.967
 7135W        W11203   2.725   9.058  19.426
 7136W        W11204   2.691   8.746  18.453
 7137W        W11205   1.899   9.890  20.593
 7138W        W11206   1.705   8.220  19.792
 7139W        W11207   2.305  10.307  20.786
 7140W        W11208   3.176   9.098  19.208
 7141W        W11209   2.078   7.756  19.224
 7142W        W11210   0.735  10.450  18.907
 7143W        W11211   0.106   7.949  19.506
 7144W        W11212   2.892   8.556  19.980
 7145W        W11213   0.350  10.173  19.895
 7146W        W11214   1.691  10.523  18.765
 7147W        W11215   3.083   8.549  18.229
 7148W        W11216   0.106  10.307  20.393
 7149W        W11217   0.897   9.879  20.873
 7150W        W11218   1.270   9.239  19.492
 7151W        W11219   1.292   7.644  20.585
 7152W        W11220   3.521   7.406  19.882
 7153W        W11221   0.740   9.278  18.350
 7154W        W11222   0.395   8.311  18.529
 7155W        W11223   0.457  10.267  19.323
 7156W        W11224   1.588   9.750  19.571
 7157W        W11225   2.920  10.609  21.285
 7158W        W11226   1.846   8.251  18.969
 7159W        W11227   3.229  10.649  19.741
 7160W        W11228   2.906   8.502  21.339
 7161W        W11229   3.619  10.158  19.473
 7162W        W11230   2.246   9.450  20.957
 7163W        W11231   0.012   9.001  19.163
 7164W        W11232   1.123   9.416  20.736
 7165W        W11233   2.327   8.680  19.114
 7166W        W11234   2.204   9.170  19.218
 7167W        W11235   0.547   8.590  20.692
 7168W        W11236   0.532   8.466  21.614
 7169W        W11237   0.422   7.383  19.773
 7170W        W11238   2.190   7.730  20.334
 7171W        W11239   1.838   7.915  21.497
 7172W        W11240   2.193   8.064  18.675
 7173W        W11241   3.376  10.457  21.429
 7174W        W11242   2.343   7.538  21.468
 7175W        W11243   3.362   9.839  21.590
 7176W        W11244   2.792   8.006  21.186
 7177W        W11245   2.592   7.944  19.456
 7178W        W11246   2.985   9.078  21.860
 7179W        W11247   0.725  10.654  19.846
 7180W        W11248   1.383   8.371  18.832
 7181W        W11249   0.952   7.655  21.496
 7182W        W11250   3.004   8.139  19.177
 7183W        W11251   3.371   8.621  19.122
 7184W        W11252   1.114  10.838  21.593
 7185W        W11253   1.040   7.374  18.828
 7186W        W11254   3.361   7.908  19.863
 7187W        W11255   3.511  10.157  18.308
 7188W        W11256   0.418   9.360  20.010
 7189W        W11257   2.335   7.947  18.240
 7190W        W11258   3.469  10.279  19.960
 7191W        W11259   3.508   7.473  20.710
 7192W        W11260   1.953   8.685  21.264
 7193W        W11261   2.046  10.024  18.967
 7194W        W11262   2.446   9.318  21.707
 7195W        W11263   2.120   7.295  20.016
 7196W        W11264   0.732   8.198  20.079
 7197W        W11265   0.286   9.398  20.853
 7198W        W11266   2.145  10.591  19.559
 7199W        W11267   3.339   8.188  20.431
 7200W        W11268   1.976  10.535  21.198
 7201W        W11269   3.319   9.594  18.403
 7202W        W11270   1.754   9.077  19.464
 7203W        W11271   3.606   7.588  21.205
 7204W        W11272   1.755   9.423  20.799
 7205W        W11273   1.972   8.309  20.244
 7206W        W11274   2.824   8.607  19.082
 7207W        W11275   3.111   8.340  18.724
 7208W        W11276   2.920  10.380  19.113
 7209W        W11277   2.754   9.983  19.909
 7210W        W11278   2.650   9.062  18.887
 7211W        W11279   2.083   9.272  19.873
 7212W        W11280   2.964   9.060  19.940
 7213W        W11281   0.339   8.075  20.364
 7214W        W11282   3.117   9.127  21.191
 7215W        W11283   3.468  10.745  20.337
 7216W        W11284   1.398  10.189  19.739
 7217W        W11285   2.405  10.722  21.063
 7218W        W11286   2.399   8.052  20.827
 7219W        W11287   1.606  10.760  20.888
 7220W        W11288   3.303   7.714  19.354
 7221W        W11289   3.094   9.033  20.655
 7222W        W11290   0.077   8.354  20.693
 7223W        W11291   2.937   8.149  19.711
 7224W        W11292   3.348   8.300  21.488
 7225W        W11293   2.233   9.999  19.706
 7226W        W11294   1.489  10.590  19.319
 7227W        W11295   0.604   7.770  18.577
 7228W        W11296   1.708   7.424  20.387
 7229W        W11297   0.736  10.544  18.235
 7230W        W11298   1.110   9.010  18.986
 7231W        W11299   1.764   9.639  21.299
 7232W        W11300   1.594   7.997  19.289
 7233W        W11301   2.950   7.594  19.717
 7234W        W11302   2.670  10.876  20.045
 7235W        W11303   2.082  10.524  20.385
 7236W        W11304   1.478   9.561  20.346
 7237W        W11305   3.248  10.284  20.472
 7238W        W11306   0.942   7.787  19.241
 7239W        W11307   1.464  10.084  20.201
 7240W        W11308   0.947   8.015  18.266
 7241W        W11309   1.748   8.624  20.660
 7242W        W11310   2.596   7.490  20.530
 7243W        W11311   0.016   9.333  20.415
 7244W        W11312   1.720   9.151  18.573
 7245W        W11313   0.988   7.466  18.343
 7246W        W11314   1.726   8.547  19.394
 7247W        W11315   2.696   7.523  21.093
 7248W        W11316   1.284   9.535  21.202
 7249W        W11317   2.088   9.317  21.419
 7250W        W11318   2.705   9.347  21.312
 7251W        W11319   1.989   7.487  21.817
 7252W        W11320   1.211   8.103  20.210
 7253W        W11321   0.637   8.059  19.608
 7254W        W11322   0.423  10.771  19.284
 7255W        W11323   1.755  10.101  21.409
 7256W        W11324   0.790   9.586  18.768
 7257W        W11325   2.470   8.971  19.989
 7258W        W11326   2.750   8.770  20.388
 7259W        W11327   1.955   9.444  20.322
 7260W        W11328   2.425   9.818  18.454
 7261W        W11329   2.097   7.839  19.782
 7262W        W11330   3.576   8.117  19.050
 7263W        W11331   0.070  10.706  21.081
 7264W        W11332   0.487   9.932  20.613
 7265W        W11333   0.054  10.778  18.845
 7266W        W11334   1.953   8.048  20.651
 7267W        W11335   1.316  10.071  18.500
 7268W        W11336   3.221  10.453  18.686
 7269W        W11337   2.196   9.106  18.700
 7270W        W11338   1.039   8.297  19.217
 7271W        W11339   1.871   8.207  18.269
 7272W        W11340   2.455   9.772  21.447
 7273W        W11341   2.808   7.678  19.064
 7274W        W11342   0.138   7.526  18.512
 7275W        W11343   1.424   9.845  20.802
 7276W        W11344   1.223   9.761  19.894
 7277W        W11345   0.965   9.713  18.292
 7278W        W11346   0.206   9.954  19.060
 7279W        W11347   0.710   9.024  21.502
 7280W        W11348   1.414   7.584  21.688
 7281W        W11349   2.123   7.726  21.044
 7282W        W11350   1.318   7.494  19.325
 7283W        W11351   2.377   7.571  18.830
 7284W        W11352   0.322   7.503  20.407
 7285W        W11353   0.370   8.466  19.777
 7286W        W11354   3.059   7.574  20.183
 7287W        W11355   0.481   8.072  18.997
 7288W        W11356   3.052   7.760  20.613
 7289W        W11357   3.448   8.963  18.298
 7290W        W11358   0.740   7.721  20.117
 7291W        W11359   1.854   8.293  21.057
 7292W        W11360   0.002   7.983  18.535
 7293W        W11361   0.788   9.372  21.096
 7294W        W11362   2.146   8.770  20.275
 7295W        W11363   2.013  10.849  18.571
 7296W        W11364   0.159   9.356  18.268
 7297W        W11365   0.894   9.767  21.394
 7298W        W11366   0.415   8.934  21.025
 7299W        W11367   1.406   9.039  20.819
 7300W        W11368   3.174   7.398  21.081
 7301W        W11369   3.572   9.008  21.072
 7302W        W11370   3.560   9.208  18.758
 7303W        W11371   2.423   9.540  18.857
 7304W        W11372   2.897  10.840  18.552
 7305W        W11373   2.074   8.830  21.694
 7306W        W11374   0.404   9.797  21.734
 7307W        W11375   3.610   7.719  21.686
 7308W        W11376   3.328   8.647  20.307
 7309W        W11377   1.636  10.777  21.784
 7310W        W11378   1.491   7.406  18.511
 7311W        W11379   3.030  10.005  18.454
 7312W        W11380   0.799   8.098  21.340
 7313W        W11381   1.233  10.092  21.202
 7314W        W11382   3.359   8.083  21.000
 7315W        W11383   2.570  10.742  18.968
 7316W        W11384   2.809   9.361  20.335
 7317W        W11385   1.059   7.777  21.002
 7318W        W11386   1.528   8.846  21.759
 7319W        W11387   1.031  10.025  18.953
 7320W        W11388   2.786   9.523  19.217
 7321W        W11389   0.554   8.149  20.941
 7322W        W11390   1.883  10.211  19.405
 7323W        W11391   3.633   8.771  19.586
 7324W        W11392   1.855   7.404  21.305
 7325W        W11393   2.635  10.109  20.384
 7326W        W11394   2.938  10.453  20.092
 7327W        W11395   2.157  10.255  18.520
 7328W        W11396   0.167  10.147  21.362
 7329W        W11397   0.910   8.139  20.600
 7330W        W11398   0.880   7.487  19.710
 7331W        W11399   2.501   8.329  20.402
 7332W        W11400   1.299   9.500  18.602
 7333W        W11401   3.297   9.442  20.101
 7334W        W11402   0.624  10.200  21.524
 7335W        W11403   3.011  10.882  19.321
 7336W        W11404   1.110   7.902  19.766
 7337W        W11405   0.879   9.395  19.856
 7338W        W11406   1.192  10.806  20.606
 7339W        W11407   3.259  10.902  21.638
 7340W        W11408   2.418   9.090  20.571
 7341W        W11409   0.267   8.888  18.486
 7342W        W11410   3.401  10.546  19.183
 7343W        W11411   3.238   7.870  18.802
 7344W        W11412   1.377   7.389  21.205
 7345W        W11413   3.083  10.191  19.663
 7346W        W11414   3.112   8.747  19.568
 7347W        W11415   1.229   8.420  19.784
 7348W        W11416   1.474   8.682  21.108
 7349W        W11417   2.585   9.835  20.971
 7350W        W11418   1.235   8.289  21.083
 7351W        W11419   1.214  10.755  19.699
 7352W        W11420   0.531  10.714  21.333
 7353W        W11421   0.643  10.075  18.463
 7354W        W11422   3.160   9.833  19.273
 7355W        W11423   0.764   8.625  21.159
 7356W        W11424   3.537   8.555  18.640
 7357W        W11425   1.282   9.612  19.111
 7358W        W11426   2.381   8.994  21.192
 7359W        W11427   2.272   8.622  20.736
 7360W        W11428   0.832   8.994  20.765
 7361W        W11429   3.042  10.882  20.594
 7362W        W11430   2.833   7.516  21.588
 7363W        W11431   0.497   7.666  21.175
 7364W        W11432   0.836   8.689  20.228
 7365W        W11433   1.205   8.503  18.350
 7366W        W11434   0.008  10.262  20.895
 7367W        W11435   1.593   8.971  20.338
 7368W        W11436   1.416   7.996  18.443
 7369W        W11437   0.551   8.812  19.224
 7370W        W11438   0.322  10.664  20.661
 7371W        W11439   3.117   8.890  18.769
 7372W        W11440   3.212   7.806  21.455
 7373W        W11441   2.648  10.015  19.418
 7374W        W11442   0.246   8.939  21.595
 7375W        W11443   3.212   7.403  18.891
 7376W        W11444   2.732   9.878  18.902
 7377W        W11445   1.634   8.936  18.987
 7378W        W11446   2.821   7.740  18.510
 7379W        W11447   2.886   8.347  20.696
 7380W        W11448   0.595   8.940  19.903
 7381W        W11449   0.889   9.879  19.552
 7382W        W11450   2.652   8.499  19.517
 7383W        W11451   1.675   7.878  20.213
 7384W        W11452   3.637   9.789  20.724
 7385W        W11453   3.555   7.776  20.285
 7386W        W11454   0.094  10.606  19.661
 7387W        W11455   0.603   9.793  19.197
 7388W        W11456   0.518   7.410  21.750
 7389W        W11457   1.637  10.263  21.852
 7390W        W11458   3.392   9.231  19.642
 7391W        W11459   2.746   9.408  18.522
 7392W        W11460   2.041  10.929  20.734
 7393W        W11461   2.898   9.651  21.771
 7394W        W11462   1.713   7.361  19.051
 7395W        W11463   2.426   8.230  19.910
 7396W        W11464   0.112   9.817  20.242
 7397W        W11465   1.365   7.779  18.883
 7398W        W11466   1.169   9.263  21.732
 7399W        W11467   2.163   8.244  19.446
 7400W        W11468   2.368   9.654  20.568
 7401W        W11469   0.522  10.259  21.003
 7402W        W11470   1.113  10.242  21.726
 7403W        W11471   0.964   8.039  18.740
 7404W        W11472   2.481   8.181  19.065
 7405W        W11473   2.439  10.289  21.302
 7406W        W11474   1.124   8.881  19.901
 7407W        W11475   0.779  10.579  20.766
 7408W        W11476   3.524  10.696  18.367
 7409W        W11477   0.387   9.368  21.363
 7410W        W11478   2.382   9.630  20.051
 7411W        W11479   0.818   9.279  19.293
 7412W        W11480   1.189  10.286  20.688
 7413W        W11481   1.567   7.705  19.729
 7414W        W11482   0.178   9.689  18.659
 7415W        W11483   1.697   8.640  18.529
 7416W        W11484   0.343   9.189  19.548
 7417W        W11485   1.633   7.831  21.012
 7418W        W11486   3.305   7.540  18.439
 7419W        W11487   3.398   9.286  21.538
 7420W        W11488   2.052  10.543  21.690
 7421W        W11489   3.610   9.637  21.212
 7422W        W11490   3.018  10.435  21.823
 7423W        W11491   0.757  10.891  20.301
 7424W        W11492   3.616   9.513  19.175
 7425W        W11493   2.146   8.780  19.688
 7426W        W11494   1.913   7.392  19.578
 7427W        W11495   0.972  10.376  19.415
 7428W        W11496   1.471   8.117  20.640
 7429W        W11497   1.171   7.486  20.109
 7430W        W11498   0.234  10.308  18.657
 7431W        W11499   2.050   9.672  19.375
 7432W        W11500   0.925  10.467  21.254
 7433W        W11501   0.402   9.290  18.950
 7434W        W11502   0.287   7.833  19.949
 7435W        W11503   1.835   9.798  20.006
 7436W        W11504   0.087   7.652  19.026
 7437W        W11505   2.751   8.858  20.953
 7438W        W11506   2.628   8.244  18.525
 7439W        W11507   3.145   9.916  20.173
 7440W        W11508   1.806  10.400  20.004
 7441W        W11509   1.218  10.504  18.915
 7442W        W11510   2.500   7.407  18.345
 7443W        W11511   0.300  10.667  20.086
 7444W        W11512   2.497   8.425  21.721
 7445W        W11513   0.480   7.955  21.720
 7446W        W11514   0.211   8.555  19.053
 7447W        W11515   0.902   8.544  18.778
 7448W        W11516   2.665   8.871  21.595
 7449W        W11517   1.008   9.152  20.304
 7450W        W11518   2.482   7.438  19.424
 7451W        W11519   1.613  10.869  19.927
 7452W        W11520   2.827  10.331  20.864
 7453W        W11521   2.411  10.480  19.975
 7454W        W11522   2.430   9.460  19.569
 7455W        W11523   1.892   7.685  18.640
 7456W        W11524   3.573   7.313  19.362
 7457W        W11525   1.261   8.948  18.525
 7458W        W11526   3.427   8.285  19.515
 7459W        W11527   2.119   9.455  18.392
 7460W        W11528   3.055   9.655  21.140
 7461W        W11529   2.709  10.356  18.607
 7462W        W11530   1.324   8.031  21.513
 7463W        W11531   1.144   8.615  20.754
 7464W        W11532   3.236  10.110  21.031
 7465W        W11533   2.336   8.060  21.408
 7466W        W11534   0.180   8.531  21.185
 7467W        W11535   1.940   9.008  20.911
 7468W        W11536   0.297   9.766  19.568
 7469W        W11537   0.444   9.063  20.458
 7470W        W11538   2.761   9.349  20.808
 7471W        W11539   2.533  10.729  21.619
 7472W        W11540   2.429   8.468  21.172
 7473W        W11541   2.706  10.522  19.577
 7474W        W11542   1.708  10.242  20.900
 7475W        W11543   1.193  10.597  20.169
 7476W        W11544   2.998   9.768  20.588
 7477W        W11545   2.048   9.840  21.725
 7478W        W11546   0.653   9.793  20.064
 7479W        W11547   2.999   9.552  19.709
 7480W        W11548   2.640  10.618  20.460
 7481W        W11549   0.618  10.347  20.330
 7482W        W11550   1.639   8.399  21.540
 7483W        W11551   2.090  10.565  19.051
 7484W        W11552   1.398   9.820  21.689
 7485W        W11553   1.524  10.058  19.066
 7486W        W11554   0.745   8.798  18.325
 7487W        W11555   3.165   9.507  22.518
 7488W        W11556   1.213  10.583  22.071
 7489W        W11557   1.296   8.735  23.054
 7490W        W11558   0.811   8.583  23.218
 7491W        W11559   1.802   9.398  22.652
 7492W        W11560   2.231   8.590  22.229
 7493W        W11561   1.788   9.825  22.198
 7494W        W11562   0.484   7.664  23.033
 7495W        W11563   3.172   8.058  21.984
 7496W        W11564   3.378  10.032  22.481
 7497W        W11565   0.507  10.818  22.235
 7498W        W11566   0.900  10.864  22.911
 7499W        W11567   2.725   9.058  23.071
 7500W        W11568   2.691   8.746  22.098
 7501W        W11569   3.176   9.098  22.853
 7502W        W11570   2.078   7.756  22.869
 7503W        W11571   0.735  10.450  22.552
 7504W        W11572   1.691  10.523  22.410
 7505W        W11573   3.083   8.549  21.874
 7506W        W11574   1.270   9.239  23.137
 7507W        W11575   0.740   9.278  21.995
 7508W        W11576   0.395   8.311  22.174
 7509W        W11577   0.457  10.267  22.968
 7510W        W11578   1.588   9.750  23.216
 7511W        W11579   1.846   8.251  22.614
 7512W        W11580   0.012   9.001  22.808
 7513W        W11581   2.327   8.680  22.759
 7514W        W11582   2.204   9.170  22.863
 7515W        W11583   2.193   8.064  22.320
 7516W        W11584   2.592   7.944  23.101
 7517W        W11585   1.383   8.371  22.477
 7518W        W11586   3.004   8.139  22.822
 7519W        W11587   3.371   8.621  22.767
 7520W        W11588   1.040   7.374  22.473
 7521W        W11589   3.511  10.157  21.953
 7522W        W11590   2.335   7.947  21.885
 7523W        W11591   2.046  10.024  22.612
 7524W        W11592   2.145  10.591  23.204
 7525W        W11593   3.319   9.594  22.048
 7526W        W11594   1.754   9.077  23.109
 7527W        W11595   2.824   8.607  22.727
 7528W        W11596   3.111   8.340  22.369
 7529W        W11597   2.920  10.380  22.758
 7530W        W11598   2.650   9.062  22.532
 7531W        W11599   3.303   7.714  22.999
 7532W        W11600   1.489  10.590  22.964
 7533W        W11601   0.604   7.770  22.222
 7534W        W11602   0.736  10.544  21.880
 7535W        W11603   1.110   9.010  22.631
 7536W        W11604   1.594   7.997  22.934
 7537W        W11605   0.942   7.787  22.886
 7538W        W11606   0.947   8.015  21.911
 7539W        W11607   1.720   9.151  22.218
 7540W        W11608   0.988   7.466  21.988
 7541W        W11609   1.726   8.547  23.039
 7542W        W11610   0.637   8.059  23.253
 7543W        W11611   0.423  10.771  22.929
 7544W        W11612   0.790   9.586  22.413
 7545W        W11613   2.425   9.818  22.099
 7546W        W11614   3.576   8.117  22.695
 7547W        W11615   0.054  10.778  22.490
 7548W        W11616   1.316  10.071  22.145
 7549W        W11617   3.221  10.453  22.331
 7550W        W11618   2.196   9.106  22.345
 7551W        W11619   1.039   8.297  22.862
 7552W        W11620   1.871   8.207  21.914
 7553W        W11621   2.808   7.678  22.709
 7554W        W11622   0.138   7.526  22.157
 7555W        W11623   0.965   9.713  21.937
 7556W        W11624   0.206   9.954  22.705
 7557W        W11625   1.318   7.494  22.970
 7558W        W11626   2.377   7.571  22.475
 7559W        W11627   0.481   8.072  22.642
 7560W        W11628   3.448   8.963  21.943
 7561W        W11629   0.002   7.983  22.180
 7562W        W11630   2.013  10.849  22.216
 7563W        W11631   0.159   9.356  21.913
 7564W        W11632   3.560   9.208  22.403
 7565W        W11633   2.423   9.540  22.502
 7566W        W11634   2.897  10.840  22.197
 7567W        W11635   1.491   7.406  22.156
 7568W        W11636   3.030  10.005  22.099
 7569W        W11637   2.570  10.742  22.613
 7570W        W11638   1.031  10.025  22.598
 7571W        W11639   2.786   9.523  22.862
 7572W        W11640   1.883  10.211  23.050
 7573W        W11641   3.633   8.771  23.231
 7574W        W11642   2.157  10.255  22.165
 7575W        W11643   1.299   9.500  22.247
 7576W        W11644   3.011  10.882  22.966
 7577W        W11645   0.267   8.888  22.131
 7578W        W11646   3.401  10.546  22.828
 7579W        W11647   3.238   7.870  22.447
 7580W        W11648   3.112   8.747  23.213
 7581W        W11649   0.643  10.075  22.108
 7582W        W11650   3.160   9.833  22.918
 7583W        W11651   3.537   8.555  22.285
 7584W        W11652   1.282   9.612  22.756
 7585W        W11653   1.205   8.503  21.995
 7586W        W11654   1.416   7.996  22.088
 7587W        W11655   0.551   8.812  22.869
 7588W        W11656   3.117   8.890  22.414
 7589W        W11657   2.648  10.015  23.063
 7590W        W11658   3.212   7.403  22.536
 7591W        W11659   2.732   9.878  22.547
 7592W        W11660   1.634   8.936  22.632
 7593W        W11661   2.821   7.740  22.155
 7594W        W11662   0.889   9.879  23.197
 7595W        W11663   2.652   8.499  23.162
 7596W        W11664   0.094  10.606  23.306
 7597W        W11665   0.603   9.793  22.842
 7598W        W11666   3.392   9.231  23.287
 7599W        W11667   2.746   9.408  22.167
 7600W        W11668   1.713   7.361  22.696
 7601W        W11669   1.365   7.779  22.528
 7602W        W11670   2.163   8.244  23.091
 7603W        W11671   0.964   8.039  22.385
 7604W        W11672   2.481   8.181  22.710
 7605W        W11673   3.524  10.696  22.012
 7606W        W11674   0.178   9.689  22.304
 7607W        W11675   1.697   8.640  22.174
 7608W        W11676   0.343   9.189  23.193
 7609W        W11677   3.305   7.540  22.084
 7610W        W11678   3.616   9.513  22.820
 7611W        W11679   1.913   7.392  23.223
 7612W        W11680   0.972  10.376  23.060
 7613W        W11681   0.234  10.308  22.302
 7614W        W11682   2.050   9.672  23.020
 7615W        W11683   0.402   9.290  22.595
 7616W        W11684   0.087   7.652  22.671
 7617W        W11685   2.628   8.244  22.170
 7618W        W11686   1.218  10.504  22.560
 7619W        W11687   2.500   7.407  21.990
 7620W        W11688   0.211   8.555  22.698
 7621W        W11689   0.902   8.544  22.423
 7622W        W11690   2.430   9.460  23.214
 7623W        W11691   1.892   7.685  22.285
 7624W        W11692   3.573   7.313  23.007
 7625W        W11693   1.261   8.948  22.170
 7626W        W11694   3.427   8.285  23.160
 7627W        W11695   2.119   9.455  22.037
 7628W        W11696   2.709  10.356  22.252
 7629W        W11697   0.297   9.766  23.213
 7630W        W11698   2.706  10.522  23.222
 7631W        W11699   2.090  10.565  22.696
 7632W        W11700   1.524  10.058  22.711
 7633W        W11701   0.745   8.798  21.970
 7634W        W11702   0.084  14.528   3.359
 7635W        W11703   0.460  13.421   2.882
 7636W        W11704   3.165  13.151   0.652
 7637W        W11705   3.295  14.236   2.679
 7638W        W11706   1.213  14.227   0.205
 7639W        W11707   1.296  12.379   1.188
 7640W        W11708   0.811  12.227   1.352
 7641W        W11709   1.802  13.042   0.786
 7642W        W11710   1.477  14.134   3.141
 7643W        W11711   0.126  11.695   3.104
 7644W        W11712   0.888  10.975   2.906
 7645W        W11713   2.582  11.363   1.793
 7646W        W11714   2.231  12.234   0.363
 7647W        W11715   2.801  11.668   3.454
 7648W        W11716   0.167  11.460   2.579
 7649W        W11717   0.266  14.079   3.600
 7650W        W11718   1.788  13.469   0.332
 7651W        W11719   0.220  12.252   2.025
 7652W        W11720   1.113  12.143   3.262
 7653W        W11721   3.572  12.002   1.761
 7654W        W11722   3.336  13.045   2.620
 7655W        W11723   1.644  12.378   1.647
 7656W        W11724   2.190  13.717   2.016
 7657W        W11725   0.690  13.151   2.248
 7658W        W11726   0.049  12.679   1.819
 7659W        W11727   1.085  12.651   3.011
 7660W        W11728   3.356  12.434   3.265
 7661W        W11729   0.972  13.878   1.710
 7662W        W11730   2.093  13.567   2.844
 7663W        W11731   1.313  12.207   2.069
 7664W        W11732   1.605  12.991   1.712
 7665W        W11733   2.602  13.764   3.560
 7666W        W11734   1.681  13.084   3.570
 7667W        W11735   1.662  12.800   3.048
 7668W        W11736   0.071  12.191   3.570
 7669W        W11737   2.903  13.726   3.169
 7670W        W11738   0.484  11.308   1.167
 7671W        W11739   1.011  13.566   2.166
 7672W        W11740   3.474  13.349   1.456
 7673W        W11741   2.887  11.749   2.023
 7674W        W11742   3.172  11.702   0.118
 7675W        W11743   3.637  12.503   2.424
 7676W        W11744   1.604  14.210   2.177
 7677W        W11745   3.378  13.676   0.615
 7678W        W11746   0.507  14.462   0.369
 7679W        W11747   0.900  14.508   1.045
 7680W        W11748   0.697  11.262   2.471
 7681W        W11749   3.320  12.280   2.746
 7682W        W11750   2.725  12.702   1.205
 7683W        W11751   2.691  12.390   0.232
 7684W        W11752   1.899  13.534   2.372
 7685W        W11753   1.705  11.864   1.571
 7686W        W11754   2.305  13.951   2.565
 7687W        W11755   3.176  12.742   0.987
 7688W        W11756   2.078  11.400   1.003
 7689W        W11757   0.735  14.094   0.686
 7690W        W11758   0.106  11.593   1.285
 7691W        W11759   2.892  12.200   1.759
 7692W        W11760   0.350  13.817   1.674
 7693W        W11761   1.691  14.167   0.544
 7694W        W11762   3.083  12.193   0.008
 7695W        W11763   0.106  13.951   2.172
 7696W        W11764   0.897  13.523   2.652
 7697W        W11765   1.270  12.883   1.271
 7698W        W11766   1.292  11.288   2.364
 7699W        W11767   3.521  11.050   1.661
 7700W        W11768   0.740  12.922   0.129
 7701W        W11769   0.395  11.955   0.308
 7702W        W11770   0.457  13.911   1.102
 7703W        W11771   1.588  13.394   1.350
 7704W        W11772   2.920  14.253   3.064
 7705W        W11773   1.846  11.895   0.748
 7706W        W11774   3.229  14.293   1.520
 7707W        W11775   2.906  12.146   3.118
 7708W        W11776   3.619  13.802   1.252
 7709W        W11777   2.246  13.094   2.736
 7710W        W11778   0.012  12.645   0.942
 7711W        W11779   1.123  13.060   2.515
 7712W        W11780   2.327  12.324   0.893
 7713W        W11781   2.204  12.814   0.997
 7714W        W11782   0.547  12.234   2.471
 7715W        W11783   0.532  12.110   3.393
 7716W        W11784   0.422  11.027   1.552
 7717W        W11785   2.190  11.374   2.113
 7718W        W11786   1.838  11.559   3.276
 7719W        W11787   2.193  11.708   0.454
 7720W        W11788   3.376  14.101   3.208
 7721W        W11789   2.343  11.182   3.247
 7722W        W11790   3.362  13.483   3.369
 7723W        W11791   2.792  11.650   2.965
 7724W        W11792   2.592  11.588   1.235
 7725W        W11793   2.985  12.722   3.639
 7726W        W11794   0.725  14.298   1.625
 7727W        W11795   1.383  12.015   0.611
 7728W        W11796   0.952  11.299   3.275
 7729W        W11797   3.004  11.783   0.956
 7730W        W11798   3.371  12.265   0.901
 7731W        W11799   1.114  14.482   3.372
 7732W        W11800   1.040  11.018   0.607
 7733W        W11801   3.361  11.552   1.642
 7734W        W11802   3.511  13.801   0.087
 7735W        W11803   0.418  13.004   1.789
 7736W        W11804   2.335  11.591   0.019
 7737W        W11805   3.469  13.923   1.739
 7738W        W11806   3.508  11.117   2.489
 7739W        W11807   1.953  12.329   3.043
 7740W        W11808   2.046  13.668   0.746
 7741W        W11809   2.446  12.962   3.486
 7742W        W11810   2.120  10.939   1.795
 7743W        W11811   0.732  11.842   1.858
 7744W        W11812   0.286  13.042   2.632
 7745W        W11813   2.145  14.235   1.338
 7746W        W11814   3.339  11.832   2.210
 7747W        W11815   1.976  14.179   2.977
 7748W        W11816   3.319  13.238   0.182
 7749W        W11817   1.754  12.721   1.243
 7750W        W11818   3.606  11.232   2.984
 7751W        W11819   1.755  13.067   2.578
 7752W        W11820   1.972  11.953   2.023
 7753W        W11821   2.824  12.251   0.861
 7754W        W11822   3.111  11.984   0.503
 7755W        W11823   2.920  14.024   0.892
 7756W        W11824   2.754  13.627   1.688
 7757W        W11825   2.650  12.706   0.666
 7758W        W11826   2.083  12.916   1.652
 7759W        W11827   2.964  12.704   1.719
 7760W        W11828   0.339  11.719   2.143
 7761W        W11829   3.117  12.771   2.970
 7762W        W11830   3.468  14.389   2.116
 7763W        W11831   1.398  13.833   1.518
 7764W        W11832   2.405  14.366   2.842
 7765W        W11833   2.399  11.696   2.606
 7766W        W11834   1.606  14.404   2.667
 7767W        W11835   3.303  11.358   1.133
 7768W        W11836   3.094  12.677   2.434
 7769W        W11837   0.077  11.998   2.472
 7770W        W11838   2.937  11.793   1.490
 7771W        W11839   3.348  11.944   3.267
 7772W        W11840   2.233  13.643   1.485
 7773W        W11841   1.489  14.234   1.098
 7774W        W11842   0.604  11.414   0.356
 7775W        W11843   1.708  11.068   2.166
 7776W        W11844   0.736  14.188   0.014
 7777W        W11845   1.110  12.654   0.765
 7778W        W11846   1.764  13.283   3.078
 7779W        W11847   1.594  11.641   1.068
 7780W        W11848   2.950  11.238   1.496
 7781W        W11849   2.670  14.520   1.824
 7782W        W11850   2.082  14.168   2.164
 7783W        W11851   1.478  13.205   2.125
 7784W        W11852   3.248  13.928   2.251
 7785W        W11853   0.942  11.431   1.020
 7786W        W11854   1.464  13.728   1.980
 7787W        W11855   0.947  11.659   0.045
 7788W        W11856   1.748  12.268   2.439
 7789W        W11857   2.596  11.134   2.309
 7790W        W11858   0.016  12.977   2.194
 7791W        W11859   1.720  12.795   0.352
 7792W        W11860   0.988  11.110   0.122
 7793W        W11861   1.726  12.191   1.173
 7794W        W11862   2.696  11.167   2.872
 7795W        W11863   1.284  13.179   2.981
 7796W        W11864   2.088  12.961   3.198
 7797W        W11865   2.705  12.991   3.091
 7798W        W11866   1.989  11.131   3.596
 7799W        W11867   1.211  11.747   1.989
 7800W        W11868   0.637  11.703   1.387
 7801W        W11869   0.423  14.415   1.063
 7802W        W11870   1.755  13.745   3.188
 7803W        W11871   0.790  13.230   0.547
 7804W        W11872   2.470  12.615   1.768
 7805W        W11873   2.750  12.414   2.167
 7806W        W11874   1.955  13.088   2.101
 7807W        W11875   2.425  13.462   0.233
 7808W        W11876   2.097  11.483   1.561
 7809W        W11877   3.576  11.761   0.829
 7810W        W11878   0.070  14.350   2.860
 7811W        W11879   0.487  13.576   2.392
 7812W        W11880   0.054  14.422   0.624
 7813W        W11881   1.953  11.692   2.430
 7814W        W11882   1.316  13.715   0.279
 7815W        W11883   3.221  14.097   0.465
 7816W        W11884   2.196  12.750   0.479
 7817W        W11885   1.039  11.941   0.996
 7818W        W11886   1.871  11.851   0.048
 7819W        W11887   2.455  13.416   3.226
 7820W        W11888   2.808  11.322   0.843
 7821W        W11889   0.138  11.170   0.291
 7822W        W11890   1.424  13.489   2.581
 7823W        W11891   1.223  13.405   1.673
 7824W        W11892   0.965  13.357   0.071
 7825W        W11893   0.206  13.598   0.839
 7826W        W11894   0.710  12.668   3.281
 7827W        W11895   1.414  11.228   3.467
 7828W        W11896   2.123  11.370   2.823
 7829W        W11897   1.318  11.138   1.104
 7830W        W11898   2.377  11.215   0.609
 7831W        W11899   0.322  11.147   2.186
 7832W        W11900   0.370  12.110   1.556
 7833W        W11901   3.059  11.218   1.962
 7834W        W11902   0.481  11.716   0.776
 7835W        W11903   3.052  11.404   2.392
 7836W        W11904   3.448  12.607   0.077
 7837W        W11905   0.740  11.365   1.896
 7838W        W11906   1.854  11.937   2.836
 7839W        W11907   0.002  11.627   0.314
 7840W        W11908   0.788  13.016   2.875
 7841W        W11909   2.146  12.414   2.054
 7842W        W11910   2.013  14.493   0.350
 7843W        W11911   0.159  13.000   0.047
 7844W        W11912   0.894  13.411   3.173
 7845W        W11913   0.415  12.578   2.804
 7846W        W11914   1.406  12.683   2.598
 7847W        W11915   3.174  11.042   2.860
 7848W        W11916   3.572  12.652   2.851
 7849W        W11917   3.560  12.852   0.537
 7850W        W11918   2.423  13.184   0.636
 7851W        W11919   2.897  14.484   0.331
 7852W        W11920   2.074  12.474   3.473
 7853W        W11921   0.404  13.441   3.513
 7854W        W11922   3.610  11.363   3.465
 7855W        W11923   3.328  12.291   2.086
 7856W        W11924   1.636  14.421   3.563
 7857W        W11925   1.491  11.050   0.290
 7858W        W11926   3.030  13.649   0.233
 7859W        W11927   0.799  11.742   3.119
 7860W        W11928   1.233  13.736   2.981
 7861W        W11929   3.359  11.727   2.779
 7862W        W11930   2.570  14.386   0.747
 7863W        W11931   2.809  13.005   2.114
 7864W        W11932   1.059  11.421   2.781
 7865W        W11933   1.528  12.490   3.538
 7866W        W11934   1.031  13.669   0.732
 7867W        W11935   2.786  13.167   0.996
 7868W        W11936   0.554  11.793   2.720
 7869W        W11937   1.883  13.855   1.184
 7870W        W11938   3.633  12.415   1.365
 7871W        W11939   1.855  11.048   3.084
 7872W        W11940   2.635  13.753   2.163
 7873W        W11941   2.938  14.097   1.871
 7874W        W11942   2.157  13.899   0.299
 7875W        W11943   0.167  13.791   3.141
 7876W        W11944   0.910  11.783   2.379
 7877W        W11945   0.880  11.131   1.489
 7878W        W11946   2.501  11.973   2.181
 7879W        W11947   1.299  13.144   0.381
 7880W        W11948   3.297  13.086   1.880
 7881W        W11949   0.624  13.844   3.303
 7882W        W11950   3.011  14.526   1.100
 7883W        W11951   1.110  11.546   1.545
 7884W        W11952   0.879  13.039   1.635
 7885W        W11953   1.192  14.450   2.385
 7886W        W11954   3.259  14.546   3.417
 7887W        W11955   2.418  12.734   2.350
 7888W        W11956   0.267  12.532   0.265
 7889W        W11957   3.401  14.190   0.962
 7890W        W11958   3.238  11.514   0.581
 7891W        W11959   1.377  11.033   2.984
 7892W        W11960   3.083  13.835   1.442
 7893W        W11961   3.112  12.391   1.347
 7894W        W11962   1.229  12.064   1.563
 7895W        W11963   1.474  12.326   2.887
 7896W        W11964   2.585  13.479   2.750
 7897W        W11965   1.235  11.933   2.862
 7898W        W11966   1.214  14.399   1.478
 7899W        W11967   0.531  14.358   3.112
 7900W        W11968   0.643  13.719   0.242
 7901W        W11969   3.160  13.477   1.052
 7902W        W11970   0.764  12.269   2.938
 7903W        W11971   3.537  12.199   0.419
 7904W        W11972   1.282  13.256   0.890
 7905W        W11973   2.381  12.638   2.971
 7906W        W11974   2.272  12.266   2.515
 7907W        W11975   0.832  12.638   2.544
 7908W        W11976   3.042  14.526   2.373
 7909W        W11977   2.833  11.160   3.367
 7910W        W11978   0.497  11.310   2.954
 7911W        W11979   0.836  12.333   2.007
 7912W        W11980   1.205  12.147   0.129
 7913W        W11981   0.008  13.906   2.674
 7914W        W11982   1.593  12.615   2.117
 7915W        W11983   1.416  11.640   0.222
 7916W        W11984   0.551  12.456   1.003
 7917W        W11985   0.322  14.308   2.440
 7918W        W11986   3.117  12.534   0.548
 7919W        W11987   3.212  11.450   3.234
 7920W        W11988   2.648  13.659   1.197
 7921W        W11989   0.246  12.583   3.374
 7922W        W11990   3.212  11.047   0.670
 7923W        W11991   2.732  13.522   0.681
 7924W        W11992   1.634  12.580   0.766
 7925W        W11993   2.821  11.384   0.289
 7926W        W11994   2.886  11.991   2.475
 7927W        W11995   0.595  12.584   1.682
 7928W        W11996   0.889  13.523   1.331
 7929W        W11997   2.652  12.143   1.296
 7930W        W11998   1.675  11.522   1.992
 7931W        W11999   3.637  13.433   2.503
 7932W        W12000   3.555  11.420   2.064
 7933W        W12001   0.094  14.250   1.440
 7934W        W12002   0.603  13.437   0.976
 7935W        W12003   0.518  11.054   3.529
 7936W        W12004   1.637  13.907   3.631
 7937W        W12005   3.392  12.875   1.421
 7938W        W12006   2.746  13.052   0.301
 7939W        W12007   2.041  14.573   2.513
 7940W        W12008   2.898  13.295   3.550
 7941W        W12009   1.713  11.005   0.830
 7942W        W12010   2.426  11.874   1.689
 7943W        W12011   0.112  13.461   2.021
 7944W        W12012   1.365  11.423   0.662
 7945W        W12013   1.169  12.907   3.511
 7946W        W12014   2.163  11.888   1.225
 7947W        W12015   2.368  13.298   2.347
 7948W        W12016   0.522  13.903   2.782
 7949W        W12017   1.113  13.886   3.505
 7950W        W12018   0.964  11.683   0.519
 7951W        W12019   2.481  11.825   0.844
 7952W        W12020   2.439  13.933   3.081
 7953W        W12021   1.124  12.525   1.680
 7954W        W12022   0.779  14.223   2.545
 7955W        W12023   3.524  14.340   0.146
 7956W        W12024   0.387  13.012   3.142
 7957W        W12025   2.382  13.274   1.830
 7958W        W12026   0.818  12.923   1.072
 7959W        W12027   1.189  13.930   2.467
 7960W        W12028   1.567  11.349   1.508
 7961W        W12029   0.178  13.333   0.438
 7962W        W12030   1.697  12.284   0.308
 7963W        W12031   0.343  12.833   1.327
 7964W        W12032   1.633  11.475   2.791
 7965W        W12033   3.305  11.184   0.218
 7966W        W12034   3.398  12.930   3.317
 7967W        W12035   2.052  14.187   3.469
 7968W        W12036   3.610  13.281   2.991
 7969W        W12037   3.018  14.079   3.602
 7970W        W12038   0.757  14.535   2.080
 7971W        W12039   3.616  13.157   0.954
 7972W        W12040   2.146  12.424   1.467
 7973W        W12041   1.913  11.036   1.357
 7974W        W12042   0.972  14.020   1.194
 7975W        W12043   1.471  11.761   2.419
 7976W        W12044   1.171  11.130   1.888
 7977W        W12045   0.234  13.952   0.436
 7978W        W12046   2.050  13.316   1.154
 7979W        W12047   0.925  14.111   3.033
 7980W        W12048   0.402  12.934   0.729
 7981W        W12049   0.287  11.477   1.728
 7982W        W12050   1.835  13.442   1.785
 7983W        W12051   0.087  11.296   0.805
 7984W        W12052   2.751  12.502   2.732
 7985W        W12053   2.628  11.888   0.304
 7986W        W12054   3.145  13.560   1.952
 7987W        W12055   1.806  14.044   1.783
 7988W        W12056   1.218  14.148   0.694
 7989W        W12057   2.500  11.051   0.124
 7990W        W12058   0.300  14.311   1.865
 7991W        W12059   2.497  12.069   3.500
 7992W        W12060   0.480  11.599   3.499
 7993W        W12061   0.211  12.199   0.832
 7994W        W12062   0.902  12.188   0.557
 7995W        W12063   2.665  12.515   3.374
 7996W        W12064   1.008  12.796   2.083
 7997W        W12065   2.482  11.082   1.203
 7998W        W12066   1.613  14.513   1.706
 7999W        W12067   2.827  13.975   2.643
 8000W        W12068   2.411  14.124   1.754
 8001W        W12069   2.430  13.104   1.348
 8002W        W12070   1.892  11.329   0.419
 8003W        W12071   3.573  10.957   1.141
 8004W        W12072   1.261  12.592   0.304
 8005W        W12073   3.427  11.929   1.294
 8006W        W12074   2.119  13.099   0.171
 8007W        W12075   3.055  13.299   2.919
 8008W        W12076   2.709  14.000   0.386
 8009W        W12077   1.324  11.675   3.292
 8010W        W12078   1.144  12.259   2.533
 8011W        W12079   3.236  13.754   2.810
 8012W        W12080   2.336  11.704   3.187
 8013W        W12081   0.180  12.175   2.964
 8014W        W12082   1.940  12.652   2.690
 8015W        W12083   0.297  13.410   1.347
 8016W        W12084   0.444  12.707   2.237
 8017W        W12085   2.761  12.993   2.587
 8018W        W12086   2.533  14.373   3.398
 8019W        W12087   2.429  12.112   2.951
 8020W        W12088   2.706  14.166   1.356
 8021W        W12089   1.708  13.886   2.679
 8022W        W12090   1.193  14.241   1.948
 8023W        W12091   2.998  13.412   2.367
 8024W        W12092   2.048  13.484   3.504
 8025W        W12093   0.653  13.437   1.843
 8026W        W12094   2.999  13.196   1.488
 8027W        W12095   2.640  14.262   2.239
 8028W        W12096   0.618  13.991   2.109
 8029W        W12097   1.639  12.043   3.319
 8030W        W12098   2.090  14.209   0.830
 8031W        W12099   1.398  13.464   3.468
 8032W        W12100   1.524  13.702   0.845
 8033W        W12101   0.745  12.442   0.104
 8034W        W12102   0.084  14.528   7.003
 8035W        W12103   0.460  13.421   6.526
 8036W        W12104   3.165  13.151   4.296
 8037W        W12105   3.295  14.236   6.323
 8038W        W12106   1.213  14.227   3.849
 8039W        W12107   1.296  12.379   4.832
 8040W        W12108   0.811  12.227   4.996
 8041W        W12109   1.802  13.042   4.430
 8042W        W12110   1.477  14.134   6.785
 8043W        W12111   0.126  11.695   6.748
 8044W        W12112   0.888  10.975   6.550
 8045W        W12113   2.582  11.363   5.437
 8046W        W12114   2.231  12.234   4.007
 8047W        W12115   2.801  11.668   7.098
 8048W        W12116   0.167  11.460   6.223
 8049W        W12117   0.266  14.079   7.244
 8050W        W12118   1.788  13.469   3.976
 8051W        W12119   0.220  12.252   5.669
 8052W        W12120   1.113  12.143   6.906
 8053W        W12121   3.572  12.002   5.405
 8054W        W12122   3.336  13.045   6.264
 8055W        W12123   1.644  12.378   5.291
 8056W        W12124   2.190  13.717   5.660
 8057W        W12125   0.690  13.151   5.892
 8058W        W12126   0.049  12.679   5.463
 8059W        W12127   1.085  12.651   6.655
 8060W        W12128   3.356  12.434   6.909
 8061W        W12129   0.972  13.878   5.354
 8062W        W12130   2.093  13.567   6.488
 8063W        W12131   1.313  12.207   5.713
 8064W        W12132   1.605  12.991   5.356
 8065W        W12133   2.602  13.764   7.204
 8066W        W12134   1.681  13.084   7.214
 8067W        W12135   1.662  12.800   6.692
 8068W        W12136   0.071  12.191   7.214
 8069W        W12137   2.903  13.726   6.813
 8070W        W12138   0.484  11.308   4.811
 8071W        W12139   1.011  13.566   5.810
 8072W        W12140   3.474  13.349   5.100
 8073W        W12141   2.887  11.749   5.667
 8074W        W12142   3.172  11.702   3.762
 8075W        W12143   3.637  12.503   6.068
 8076W        W12144   1.604  14.210   5.821
 8077W        W12145   3.378  13.676   4.259
 8078W        W12146   0.507  14.462   4.013
 8079W        W12147   0.900  14.508   4.689
 8080W        W12148   0.697  11.262   6.115
 8081W        W12149   3.320  12.280   6.390
 8082W        W12150   2.725  12.702   4.849
 8083W        W12151   2.691  12.390   3.876
 8084W        W12152   1.899  13.534   6.016
 8085W        W12153   1.705  11.864   5.215
 8086W        W12154   2.305  13.951   6.209
 8087W        W12155   3.176  12.742   4.631
 8088W        W12156   2.078  11.400   4.647
 8089W        W12157   0.735  14.094   4.330
 8090W        W12158   0.106  11.593   4.929
 8091W        W12159   2.892  12.200   5.403
 8092W        W12160   0.350  13.817   5.318
 8093W        W12161   1.691  14.167   4.188
 8094W        W12162   3.083  12.193   3.652
 8095W        W12163   0.106  13.951   5.816
 8096W        W12164   0.897  13.523   6.296
 8097W        W12165   1.270  12.883   4.915
 8098W        W12166   1.292  11.288   6.008
 8099W        W12167   3.521  11.050   5.305
 8100W        W12168   0.740  12.922   3.773
 8101W        W12169   0.395  11.955   3.952
 8102W        W12170   0.457  13.911   4.746
 8103W        W12171   1.588  13.394   4.994
 8104W        W12172   2.920  14.253   6.708
 8105W        W12173   1.846  11.895   4.392
 8106W        W12174   3.229  14.293   5.164
 8107W        W12175   2.906  12.146   6.762
 8108W        W12176   3.619  13.802   4.896
 8109W        W12177   2.246  13.094   6.380
 8110W        W12178   0.012  12.645   4.586
 8111W        W12179   1.123  13.060   6.159
 8112W        W12180   2.327  12.324   4.537
 8113W        W12181   2.204  12.814   4.641
 8114W        W12182   0.547  12.234   6.115
 8115W        W12183   0.532  12.110   7.037
 8116W        W12184   0.422  11.027   5.196
 8117W        W12185   2.190  11.374   5.757
 8118W        W12186   1.838  11.559   6.920
 8119W        W12187   2.193  11.708   4.098
 8120W        W12188   3.376  14.101   6.852
 8121W        W12189   2.343  11.182   6.891
 8122W        W12190   3.362  13.483   7.013
 8123W        W12191   2.792  11.650   6.609
 8124W        W12192   2.592  11.588   4.879
 8125W        W12193   2.985  12.722   7.283
 8126W        W12194   0.725  14.298   5.269
 8127W        W12195   1.383  12.015   4.255
 8128W        W12196   0.952  11.299   6.919
 8129W        W12197   3.004  11.783   4.600
 8130W        W12198   3.371  12.265   4.545
 8131W        W12199   1.114  14.482   7.016
 8132W        W12200   1.040  11.018   4.251
 8133W        W12201   3.361  11.552   5.286
 8134W        W12202   3.511  13.801   3.731
 8135W        W12203   0.418  13.004   5.433
 8136W        W12204   2.335  11.591   3.663
 8137W        W12205   3.469  13.923   5.383
 8138W        W12206   3.508  11.117   6.133
 8139W        W12207   1.953  12.329   6.687
 8140W        W12208   2.046  13.668   4.390
 8141W        W12209   2.446  12.962   7.130
 8142W        W12210   2.120  10.939   5.439
 8143W        W12211   0.732  11.842   5.502
 8144W        W12212   0.286  13.042   6.276
 8145W        W12213   2.145  14.235   4.982
 8146W        W12214   3.339  11.832   5.854
 8147W        W12215   1.976  14.179   6.621
 8148W        W12216   3.319  13.238   3.826
 8149W        W12217   1.754  12.721   4.887
 8150W        W12218   3.606  11.232   6.628
 8151W        W12219   1.755  13.067   6.222
 8152W        W12220   1.972  11.953   5.667
 8153W        W12221   2.824  12.251   4.505
 8154W        W12222   3.111  11.984   4.147
 8155W        W12223   2.920  14.024   4.536
 8156W        W12224   2.754  13.627   5.332
 8157W        W12225   2.650  12.706   4.310
 8158W        W12226   2.083  12.916   5.296
 8159W        W12227   2.964  12.704   5.363
 8160W        W12228   0.339  11.719   5.787
 8161W        W12229   3.117  12.771   6.614
 8162W        W12230   3.468  14.389   5.760
 8163W        W12231   1.398  13.833   5.162
 8164W        W12232   2.405  14.366   6.486
 8165W        W12233   2.399  11.696   6.250
 8166W        W12234   1.606  14.404   6.311
 8167W        W12235   3.303  11.358   4.777
 8168W        W12236   3.094  12.677   6.078
 8169W        W12237   0.077  11.998   6.116
 8170W        W12238   2.937  11.793   5.134
 8171W        W12239   3.348  11.944   6.911
 8172W        W12240   2.233  13.643   5.129
 8173W        W12241   1.489  14.234   4.742
 8174W        W12242   0.604  11.414   4.000
 8175W        W12243   1.708  11.068   5.810
 8176W        W12244   0.736  14.188   3.658
 8177W        W12245   1.110  12.654   4.409
 8178W        W12246   1.764  13.283   6.722
 8179W        W12247   1.594  11.641   4.712
 8180W        W12248   2.950  11.238   5.140
 8181W        W12249   2.670  14.520   5.468
 8182W        W12250   2.082  14.168   5.808
 8183W        W12251   1.478  13.205   5.769
 8184W        W12252   3.248  13.928   5.895
 8185W        W12253   0.942  11.431   4.664
 8186W        W12254   1.464  13.728   5.624
 8187W        W12255   0.947  11.659   3.689
 8188W        W12256   1.748  12.268   6.083
 8189W        W12257   2.596  11.134   5.953
 8190W        W12258   0.016  12.977   5.838
 8191W        W12259   1.720  12.795   3.996
 8192W        W12260   0.988  11.110   3.766
 8193W        W12261   1.726  12.191   4.817
 8194W        W12262   2.696  11.167   6.516
 8195W        W12263   1.284  13.179   6.625
 8196W        W12264   2.088  12.961   6.842
 8197W        W12265   2.705  12.991   6.735
 8198W        W12266   1.989  11.131   7.240
 8199W        W12267   1.211  11.747   5.633
 8200W        W12268   0.637  11.703   5.031
 8201W        W12269   0.423  14.415   4.707
 8202W        W12270   1.755  13.745   6.832
 8203W        W12271   0.790  13.230   4.191
 8204W        W12272   2.470  12.615   5.412
 8205W        W12273   2.750  12.414   5.811
 8206W        W12274   1.955  13.088   5.745
 8207W        W12275   2.425  13.462   3.877
 8208W        W12276   2.097  11.483   5.205
 8209W        W12277   3.576  11.761   4.473
 8210W        W12278   0.070  14.350   6.504
 8211W        W12279   0.487  13.576   6.036
 8212W        W12280   0.054  14.422   4.268
 8213W        W12281   1.953  11.692   6.074
 8214W        W12282   1.316  13.715   3.923
 8215W        W12283   3.221  14.097   4.109
 8216W        W12284   2.196  12.750   4.123
 8217W        W12285   1.039  11.941   4.640
 8218W        W12286   1.871  11.851   3.692
 8219W        W12287   2.455  13.416   6.870
 8220W        W12288   2.808  11.322   4.487
 8221W        W12289   0.138  11.170   3.935
 8222W        W12290   1.424  13.489   6.225
 8223W        W12291   1.223  13.405   5.317
 8224W        W12292   0.965  13.357   3.715
 8225W        W12293   0.206  13.598   4.483
 8226W        W12294   0.710  12.668   6.925
 8227W        W12295   1.414  11.228   7.111
 8228W        W12296   2.123  11.370   6.467
 8229W        W12297   1.318  11.138   4.748
 8230W        W12298   2.377  11.215   4.253
 8231W        W12299   0.322  11.147   5.830
 8232W        W12300   0.370  12.110   5.200
 8233W        W12301   3.059  11.218   5.606
 8234W        W12302   0.481  11.716   4.420
 8235W        W12303   3.052  11.404   6.036
 8236W        W12304   3.448  12.607   3.721
 8237W        W12305   0.740  11.365   5.540
 8238W        W12306   1.854  11.937   6.480
 8239W        W12307   0.002  11.627   3.958
 8240W        W12308   0.788  13.016   6.519
 8241W        W12309   2.146  12.414   5.698
 8242W        W12310   2.013  14.493   3.994
 8243W        W12311   0.159  13.000   3.691
 8244W        W12312   0.894  13.411   6.817
 8245W        W12313   0.415  12.578   6.448
 8246W        W12314   1.406  12.683   6.242
 8247W        W12315   3.174  11.042   6.504
 8248W        W12316   3.572  12.652   6.495
 8249W        W12317   3.560  12.852   4.181
 8250W        W12318   2.423  13.184   4.280
 8251W        W12319   2.897  14.484   3.975
 8252W        W12320   2.074  12.474   7.117
 8253W        W12321   0.404  13.441   7.157
 8254W        W12322   3.610  11.363   7.109
 8255W        W12323   3.328  12.291   5.730
 8256W        W12324   1.636  14.421   7.207
 8257W        W12325   1.491  11.050   3.934
 8258W        W12326   3.030  13.649   3.877
 8259W        W12327   0.799  11.742   6.763
 8260W        W12328   1.233  13.736   6.625
 8261W        W12329   3.359  11.727   6.423
 8262W        W12330   2.570  14.386   4.391
 8263W        W12331   2.809  13.005   5.758
 8264W        W12332   1.059  11.421   6.425
 8265W        W12333   1.528  12.490   7.182
 8266W        W12334   1.031  13.669   4.376
 8267W        W12335   2.786  13.167   4.640
 8268W        W12336   0.554  11.793   6.364
 8269W        W12337   1.883  13.855   4.828
 8270W        W12338   3.633  12.415   5.009
 8271W        W12339   1.855  11.048   6.728
 8272W        W12340   2.635  13.753   5.807
 8273W        W12341   2.938  14.097   5.515
 8274W        W12342   2.157  13.899   3.943
 8275W        W12343   0.167  13.791   6.785
 8276W        W12344   0.910  11.783   6.023
 8277W        W12345   0.880  11.131   5.133
 8278W        W12346   2.501  11.973   5.825
 8279W        W12347   1.299  13.144   4.025
 8280W        W12348   3.297  13.086   5.524
 8281W        W12349   0.624  13.844   6.947
 8282W        W12350   3.011  14.526   4.744
 8283W        W12351   1.110  11.546   5.189
 8284W        W12352   0.879  13.039   5.279
 8285W        W12353   1.192  14.450   6.029
 8286W        W12354   3.259  14.546   7.061
 8287W        W12355   2.418  12.734   5.994
 8288W        W12356   0.267  12.532   3.909
 8289W        W12357   3.401  14.190   4.606
 8290W        W12358   3.238  11.514   4.225
 8291W        W12359   1.377  11.033   6.628
 8292W        W12360   3.083  13.835   5.086
 8293W        W12361   3.112  12.391   4.991
 8294W        W12362   1.229  12.064   5.207
 8295W        W12363   1.474  12.326   6.531
 8296W        W12364   2.585  13.479   6.394
 8297W        W12365   1.235  11.933   6.506
 8298W        W12366   1.214  14.399   5.122
 8299W        W12367   0.531  14.358   6.756
 8300W        W12368   0.643  13.719   3.886
 8301W        W12369   3.160  13.477   4.696
 8302W        W12370   0.764  12.269   6.582
 8303W        W12371   3.537  12.199   4.063
 8304W        W12372   1.282  13.256   4.534
 8305W        W12373   2.381  12.638   6.615
 8306W        W12374   2.272  12.266   6.159
 8307W        W12375   0.832  12.638   6.188
 8308W        W12376   3.042  14.526   6.017
 8309W        W12377   2.833  11.160   7.011
 8310W        W12378   0.497  11.310   6.598
 8311W        W12379   0.836  12.333   5.651
 8312W        W12380   1.205  12.147   3.773
 8313W        W12381   0.008  13.906   6.318
 8314W        W12382   1.593  12.615   5.761
 8315W        W12383   1.416  11.640   3.866
 8316W        W12384   0.551  12.456   4.647
 8317W        W12385   0.322  14.308   6.084
 8318W        W12386   3.117  12.534   4.192
 8319W        W12387   3.212  11.450   6.878
 8320W        W12388   2.648  13.659   4.841
 8321W        W12389   0.246  12.583   7.018
 8322W        W12390   3.212  11.047   4.314
 8323W        W12391   2.732  13.522   4.325
 8324W        W12392   1.634  12.580   4.410
 8325W        W12393   2.821  11.384   3.933
 8326W        W12394   2.886  11.991   6.119
 8327W        W12395   0.595  12.584   5.326
 8328W        W12396   0.889  13.523   4.975
 8329W        W12397   2.652  12.143   4.940
 8330W        W12398   1.675  11.522   5.636
 8331W        W12399   3.637  13.433   6.147
 8332W        W12400   3.555  11.420   5.708
 8333W        W12401   0.094  14.250   5.084
 8334W        W12402   0.603  13.437   4.620
 8335W        W12403   0.518  11.054   7.173
 8336W        W12404   1.637  13.907   7.275
 8337W        W12405   3.392  12.875   5.065
 8338W        W12406   2.746  13.052   3.945
 8339W        W12407   2.041  14.573   6.157
 8340W        W12408   2.898  13.295   7.194
 8341W        W12409   1.713  11.005   4.474
 8342W        W12410   2.426  11.874   5.333
 8343W        W12411   0.112  13.461   5.665
 8344W        W12412   1.365  11.423   4.306
 8345W        W12413   1.169  12.907   7.155
 8346W        W12414   2.163  11.888   4.869
 8347W        W12415   2.368  13.298   5.991
 8348W        W12416   0.522  13.903   6.426
 8349W        W12417   1.113  13.886   7.149
 8350W        W12418   0.964  11.683   4.163
 8351W        W12419   2.481  11.825   4.488
 8352W        W12420   2.439  13.933   6.725
 8353W        W12421   1.124  12.525   5.324
 8354W        W12422   0.779  14.223   6.189
 8355W        W12423   3.524  14.340   3.790
 8356W        W12424   0.387  13.012   6.786
 8357W        W12425   2.382  13.274   5.474
 8358W        W12426   0.818  12.923   4.716
 8359W        W12427   1.189  13.930   6.111
 8360W        W12428   1.567  11.349   5.152
 8361W        W12429   0.178  13.333   4.082
 8362W        W12430   1.697  12.284   3.952
 8363W        W12431   0.343  12.833   4.971
 8364W        W12432   1.633  11.475   6.435
 8365W        W12433   3.305  11.184   3.862
 8366W        W12434   3.398  12.930   6.961
 8367W        W12435   2.052  14.187   7.113
 8368W        W12436   3.610  13.281   6.635
 8369W        W12437   3.018  14.079   7.246
 8370W        W12438   0.757  14.535   5.724
 8371W        W12439   3.616  13.157   4.598
 8372W        W12440   2.146  12.424   5.111
 8373W        W12441   1.913  11.036   5.001
 8374W        W12442   0.972  14.020   4.838
 8375W        W12443   1.471  11.761   6.063
 8376W        W12444   1.171  11.130   5.532
 8377W        W12445   0.234  13.952   4.080
 8378W        W12446   2.050  13.316   4.798
 8379W        W12447   0.925  14.111   6.677
 8380W        W12448   0.402  12.934   4.373
 8381W        W12449   0.287  11.477   5.372
 8382W        W12450   1.835  13.442   5.429
 8383W        W12451   0.087  11.296   4.449
 8384W        W12452   2.751  12.502   6.376
 8385W        W12453   2.628  11.888   3.948
 8386W        W12454   3.145  13.560   5.596
 8387W        W12455   1.806  14.044   5.427
 8388W        W12456   1.218  14.148   4.338
 8389W        W12457   2.500  11.051   3.768
 8390W        W12458   0.300  14.311   5.509
 8391W        W12459   2.497  12.069   7.144
 8392W        W12460   0.480  11.599   7.143
 8393W        W12461   0.211  12.199   4.476
 8394W        W12462   0.902  12.188   4.201
 8395W        W12463   2.665  12.515   7.018
 8396W        W12464   1.008  12.796   5.727
 8397W        W12465   2.482  11.082   4.847
 8398W        W12466   1.613  14.513   5.350
 8399W        W12467   2.827  13.975   6.287
 8400W        W12468   2.411  14.124   5.398
 8401W        W12469   2.430  13.104   4.992
 8402W        W12470   1.892  11.329   4.063
 8403W        W12471   3.573  10.957   4.785
 8404W        W12472   1.261  12.592   3.948
 8405W        W12473   3.427  11.929   4.938
 8406W        W12474   2.119  13.099   3.815
 8407W        W12475   3.055  13.299   6.563
 8408W        W12476   2.709  14.000   4.030
 8409W        W12477   1.324  11.675   6.936
 8410W        W12478   1.144  12.259   6.177
 8411W        W12479   3.236  13.754   6.454
 8412W        W12480   2.336  11.704   6.831
 8413W        W12481   0.180  12.175   6.608
 8414W        W12482   1.940  12.652   6.334
 8415W        W12483   0.297  13.410   4.991
 8416W        W12484   0.444  12.707   5.881
 8417W        W12485   2.761  12.993   6.231
 8418W        W12486   2.533  14.373   7.042
 8419W        W12487   2.429  12.112   6.595
 8420W        W12488   2.706  14.166   5.000
 8421W        W12489   1.708  13.886   6.323
 8422W        W12490   1.193  14.241   5.592
 8423W        W12491   2.998  13.412   6.011
 8424W        W12492   2.048  13.484   7.148
 8425W        W12493   0.653  13.437   5.487
 8426W        W12494   2.999  13.196   5.132
 8427W        W12495   2.640  14.262   5.883
 8428W        W12496   0.618  13.991   5.753
 8429W        W12497   1.639  12.043   6.963
 8430W        W12498   2.090  14.209   4.474
 8431W        W12499   1.398  13.464   7.112
 8432W        W12500   1.524  13.702   4.489
 8433W        W12501   0.745  12.442   3.748
 8434W        W12502   0.084  14.528  10.648
 8435W        W12503   0.460  13.421  10.171
 8436W        W12504   3.165  13.151   7.941
 8437W        W12505   3.295  14.236   9.968
 8438W        W12506   1.213  14.227   7.494
 8439W        W12507   1.296  12.379   8.477
 8440W        W12508   0.811  12.227   8.641
 8441W        W12509   1.802  13.042   8.075
 8442W        W12510   1.477  14.134  10.430
 8443W        W12511   0.126  11.695  10.393
 8444W        W12512   0.888  10.975  10.195
 8445W        W12513   2.582  11.363   9.082
 8446W        W12514   2.231  12.234   7.652
 8447W        W12515   2.801  11.668  10.743
 8448W        W12516   0.167  11.460   9.868
 8449W        W12517   0.266  14.079  10.889
 8450W        W12518   1.788  13.469   7.621
 8451W        W12519   0.220  12.252   9.314
 8452W        W12520   1.113  12.143  10.551
 8453W        W12521   3.572  12.002   9.050
 8454W        W12522   3.336  13.045   9.909
 8455W        W12523   1.644  12.378   8.936
 8456W        W12524   2.190  13.717   9.305
 8457W        W12525   0.690  13.151   9.537
 8458W        W12526   0.049  12.679   9.108
 8459W        W12527   1.085  12.651  10.300
 8460W        W12528   3.356  12.434  10.554
 8461W        W12529   0.972  13.878   8.999
 8462W        W12530   2.093  13.567  10.133
 8463W        W12531   1.313  12.207   9.358
 8464W        W12532   1.605  12.991   9.001
 8465W        W12533   2.602  13.764  10.849
 8466W        W12534   1.681  13.084  10.859
 8467W        W12535   1.662  12.800  10.337
 8468W        W12536   0.071  12.191  10.859
 8469W        W12537   2.903  13.726  10.458
 8470W        W12538   0.484  11.308   8.456
 8471W        W12539   1.011  13.566   9.455
 8472W        W12540   3.474  13.349   8.745
 8473W        W12541   2.887  11.749   9.312
 8474W        W12542   3.172  11.702   7.407
 8475W        W12543   3.637  12.503   9.713
 8476W        W12544   1.604  14.210   9.466
 8477W        W12545   3.378  13.676   7.904
 8478W        W12546   0.507  14.462   7.658
 8479W        W12547   0.900  14.508   8.334
 8480W        W12548   0.697  11.262   9.760
 8481W        W12549   3.320  12.280  10.035
 8482W        W12550   2.725  12.702   8.494
 8483W        W12551   2.691  12.390   7.521
 8484W        W12552   1.899  13.534   9.661
 8485W        W12553   1.705  11.864   8.860
 8486W        W12554   2.305  13.951   9.854
 8487W        W12555   3.176  12.742   8.276
 8488W        W12556   2.078  11.400   8.292
 8489W        W12557   0.735  14.094   7.975
 8490W        W12558   0.106  11.593   8.574
 8491W        W12559   2.892  12.200   9.048
 8492W        W12560   0.350  13.817   8.963
 8493W        W12561   1.691  14.167   7.833
 8494W        W12562   3.083  12.193   7.297
 8495W        W12563   0.106  13.951   9.461
 8496W        W12564   0.897  13.523   9.941
 8497W        W12565   1.270  12.883   8.560
 8498W        W12566   1.292  11.288   9.653
 8499W        W12567   3.521  11.050   8.950
 8500W        W12568   0.740  12.922   7.418
 8501W        W12569   0.395  11.955   7.597
 8502W        W12570   0.457  13.911   8.391
 8503W        W12571   1.588  13.394   8.639
 8504W        W12572   2.920  14.253  10.353
 8505W        W12573   1.846  11.895   8.037
 8506W        W12574   3.229  14.293   8.809
 8507W        W12575   2.906  12.146  10.407
 8508W        W12576   3.619  13.802   8.541
 8509W        W12577   2.246  13.094  10.025
 8510W        W12578   0.012  12.645   8.231
 8511W        W12579   1.123  13.060   9.804
 8512W        W12580   2.327  12.324   8.182
 8513W        W12581   2.204  12.814   8.286
 8514W        W12582   0.547  12.234   9.760
 8515W        W12583   0.532  12.110  10.682
 8516W        W12584   0.422  11.027   8.841
 8517W        W12585   2.190  11.374   9.402
 8518W        W12586   1.838  11.559  10.565
 8519W        W12587   2.193  11.708   7.743
 8520W        W12588   3.376  14.101  10.497
 8521W        W12589   2.343  11.182  10.536
 8522W        W12590   3.362  13.483  10.658
 8523W        W12591   2.792  11.650  10.254
 8524W        W12592   2.592  11.588   8.524
 8525W        W12593   2.985  12.722  10.928
 8526W        W12594   0.725  14.298   8.914
 8527W        W12595   1.383  12.015   7.900
 8528W        W12596   0.952  11.299  10.564
 8529W        W12597   3.004  11.783   8.245
 8530W        W12598   3.371  12.265   8.190
 8531W        W12599   1.114  14.482  10.661
 8532W        W12600   1.040  11.018   7.896
 8533W        W12601   3.361  11.552   8.931
 8534W        W12602   3.511  13.801   7.376
 8535W        W12603   0.418  13.004   9.078
 8536W        W12604   2.335  11.591   7.308
 8537W        W12605   3.469  13.923   9.028
 8538W        W12606   3.508  11.117   9.778
 8539W        W12607   1.953  12.329  10.332
 8540W        W12608   2.046  13.668   8.035
 8541W        W12609   2.446  12.962  10.775
 8542W        W12610   2.120  10.939   9.084
 8543W        W12611   0.732  11.842   9.147
 8544W        W12612   0.286  13.042   9.921
 8545W        W12613   2.145  14.235   8.627
 8546W        W12614   3.339  11.832   9.499
 8547W        W12615   1.976  14.179  10.266
 8548W        W12616   3.319  13.238   7.471
 8549W        W12617   1.754  12.721   8.532
 8550W        W12618   3.606  11.232  10.273
 8551W        W12619   1.755  13.067   9.867
 8552W        W12620   1.972  11.953   9.312
 8553W        W12621   2.824  12.251   8.150
 8554W        W12622   3.111  11.984   7.792
 8555W        W12623   2.920  14.024   8.181
 8556W        W12624   2.754  13.627   8.977
 8557W        W12625   2.650  12.706   7.955
 8558W        W12626   2.083  12.916   8.941
 8559W        W12627   2.964  12.704   9.008
 8560W        W12628   0.339  11.719   9.432
 8561W        W12629   3.117  12.771  10.259
 8562W        W12630   3.468  14.389   9.405
 8563W        W12631   1.398  13.833   8.807
 8564W        W12632   2.405  14.366  10.131
 8565W        W12633   2.399  11.696   9.895
 8566W        W12634   1.606  14.404   9.956
 8567W        W12635   3.303  11.358   8.422
 8568W        W12636   3.094  12.677   9.723
 8569W        W12637   0.077  11.998   9.761
 8570W        W12638   2.937  11.793   8.779
 8571W        W12639   3.348  11.944  10.556
 8572W        W12640   2.233  13.643   8.774
 8573W        W12641   1.489  14.234   8.387
 8574W        W12642   0.604  11.414   7.645
 8575W        W12643   1.708  11.068   9.455
 8576W        W12644   0.736  14.188   7.303
 8577W        W12645   1.110  12.654   8.054
 8578W        W12646   1.764  13.283  10.367
 8579W        W12647   1.594  11.641   8.357
 8580W        W12648   2.950  11.238   8.785
 8581W        W12649   2.670  14.520   9.113
 8582W        W12650   2.082  14.168   9.453
 8583W        W12651   1.478  13.205   9.414
 8584W        W12652   3.248  13.928   9.540
 8585W        W12653   0.942  11.431   8.309
 8586W        W12654   1.464  13.728   9.269
 8587W        W12655   0.947  11.659   7.334
 8588W        W12656   1.748  12.268   9.728
 8589W        W12657   2.596  11.134   9.598
 8590W        W12658   0.016  12.977   9.483
 8591W        W12659   1.720  12.795   7.641
 8592W        W12660   0.988  11.110   7.411
 8593W        W12661   1.726  12.191   8.462
 8594W        W12662   2.696  11.167  10.161
 8595W        W12663   1.284  13.179  10.270
 8596W        W12664   2.088  12.961  10.487
 8597W        W12665   2.705  12.991  10.380
 8598W        W12666   1.989  11.131  10.885
 8599W        W12667   1.211  11.747   9.278
 8600W        W12668   0.637  11.703   8.676
 8601W        W12669   0.423  14.415   8.352
 8602W        W12670   1.755  13.745  10.477
 8603W        W12671   0.790  13.230   7.836
 8604W        W12672   2.470  12.615   9.057
 8605W        W12673   2.750  12.414   9.456
 8606W        W12674   1.955  13.088   9.390
 8607W        W12675   2.425  13.462   7.522
 8608W        W12676   2.097  11.483   8.850
 8609W        W12677   3.576  11.761   8.118
 8610W        W12678   0.070  14.350  10.149
 8611W        W12679   0.487  13.576   9.681
 8612W        W12680   0.054  14.422   7.913
 8613W        W12681   1.953  11.692   9.719
 8614W        W12682   1.316  13.715   7.568
 8615W        W12683   3.221  14.097   7.754
 8616W        W12684   2.196  12.750   7.768
 8617W        W12685   1.039  11.941   8.285
 8618W        W12686   1.871  11.851   7.337
 8619W        W12687   2.455  13.416  10.515
 8620W        W12688   2.808  11.322   8.132
 8621W        W12689   0.138  11.170   7.580
 8622W        W12690   1.424  13.489   9.870
 8623W        W12691   1.223  13.405   8.962
 8624W        W12692   0.965  13.357   7.360
 8625W        W12693   0.206  13.598   8.128
 8626W        W12694   0.710  12.668  10.570
 8627W        W12695   1.414  11.228  10.756
 8628W        W12696   2.123  11.370  10.112
 8629W        W12697   1.318  11.138   8.393
 8630W        W12698   2.377  11.215   7.898
 8631W        W12699   0.322  11.147   9.475
 8632W        W12700   0.370  12.110   8.845
 8633W        W12701   3.059  11.218   9.251
 8634W        W12702   0.481  11.716   8.065
 8635W        W12703   3.052  11.404   9.681
 8636W        W12704   3.448  12.607   7.366
 8637W        W12705   0.740  11.365   9.185
 8638W        W12706   1.854  11.937  10.125
 8639W        W12707   0.002  11.627   7.603
 8640W        W12708   0.788  13.016  10.164
 8641W        W12709   2.146  12.414   9.343
 8642W        W12710   2.013  14.493   7.639
 8643W        W12711   0.159  13.000   7.336
 8644W        W12712   0.894  13.411  10.462
 8645W        W12713   0.415  12.578  10.093
 8646W        W12714   1.406  12.683   9.887
 8647W        W12715   3.174  11.042  10.149
 8648W        W12716   3.572  12.652  10.140
 8649W        W12717   3.560  12.852   7.826
 8650W        W12718   2.423  13.184   7.925
 8651W        W12719   2.897  14.484   7.620
 8652W        W12720   2.074  12.474  10.762
 8653W        W12721   0.404  13.441  10.802
 8654W        W12722   3.610  11.363  10.754
 8655W        W12723   3.328  12.291   9.375
 8656W        W12724   1.636  14.421  10.852
 8657W        W12725   1.491  11.050   7.579
 8658W        W12726   3.030  13.649   7.522
 8659W        W12727   0.799  11.742  10.408
 8660W        W12728   1.233  13.736  10.270
 8661W        W12729   3.359  11.727  10.068
 8662W        W12730   2.570  14.386   8.036
 8663W        W12731   2.809  13.005   9.403
 8664W        W12732   1.059  11.421  10.070
 8665W        W12733   1.528  12.490  10.827
 8666W        W12734   1.031  13.669   8.021
 8667W        W12735   2.786  13.167   8.285
 8668W        W12736   0.554  11.793  10.009
 8669W        W12737   1.883  13.855   8.473
 8670W        W12738   3.633  12.415   8.654
 8671W        W12739   1.855  11.048  10.373
 8672W        W12740   2.635  13.753   9.452
 8673W        W12741   2.938  14.097   9.160
 8674W        W12742   2.157  13.899   7.588
 8675W        W12743   0.167  13.791  10.430
 8676W        W12744   0.910  11.783   9.668
 8677W        W12745   0.880  11.131   8.778
 8678W        W12746   2.501  11.973   9.470
 8679W        W12747   1.299  13.144   7.670
 8680W        W12748   3.297  13.086   9.169
 8681W        W12749   0.624  13.844  10.592
 8682W        W12750   3.011  14.526   8.389
 8683W        W12751   1.110  11.546   8.834
 8684W        W12752   0.879  13.039   8.924
 8685W        W12753   1.192  14.450   9.674
 8686W        W12754   3.259  14.546  10.706
 8687W        W12755   2.418  12.734   9.639
 8688W        W12756   0.267  12.532   7.554
 8689W        W12757   3.401  14.190   8.251
 8690W        W12758   3.238  11.514   7.870
 8691W        W12759   1.377  11.033  10.273
 8692W        W12760   3.083  13.835   8.731
 8693W        W12761   3.112  12.391   8.636
 8694W        W12762   1.229  12.064   8.852
 8695W        W12763   1.474  12.326  10.176
 8696W        W12764   2.585  13.479  10.039
 8697W        W12765   1.235  11.933  10.151
 8698W        W12766   1.214  14.399   8.767
 8699W        W12767   0.531  14.358  10.401
 8700W        W12768   0.643  13.719   7.531
 8701W        W12769   3.160  13.477   8.341
 8702W        W12770   0.764  12.269  10.227
 8703W        W12771   3.537  12.199   7.708
 8704W        W12772   1.282  13.256   8.179
 8705W        W12773   2.381  12.638  10.260
 8706W        W12774   2.272  12.266   9.804
 8707W        W12775   0.832  12.638   9.833
 8708W        W12776   3.042  14.526   9.662
 8709W        W12777   2.833  11.160  10.656
 8710W        W12778   0.497  11.310  10.243
 8711W        W12779   0.836  12.333   9.296
 8712W        W12780   1.205  12.147   7.418
 8713W        W12781   0.008  13.906   9.963
 8714W        W12782   1.593  12.615   9.406
 8715W        W12783   1.416  11.640   7.511
 8716W        W12784   0.551  12.456   8.292
 8717W        W12785   0.322  14.308   9.729
 8718W        W12786   3.117  12.534   7.837
 8719W        W12787   3.212  11.450  10.523
 8720W        W12788   2.648  13.659   8.486
 8721W        W12789   0.246  12.583  10.663
 8722W        W12790   3.212  11.047   7.959
 8723W        W12791   2.732  13.522   7.970
 8724W        W12792   1.634  12.580   8.055
 8725W        W12793   2.821  11.384   7.578
 8726W        W12794   2.886  11.991   9.764
 8727W        W12795   0.595  12.584   8.971
 8728W        W12796   0.889  13.523   8.620
 8729W        W12797   2.652  12.143   8.585
 8730W        W12798   1.675  11.522   9.281
 8731W        W12799   3.637  13.433   9.792
 8732W        W12800   3.555  11.420   9.353
 8733W        W12801   0.094  14.250   8.729
 8734W        W12802   0.603  13.437   8.265
 8735W        W12803   0.518  11.054  10.818
 8736W        W12804   1.637  13.907  10.920
 8737W        W12805   3.392  12.875   8.710
 8738W        W12806   2.746  13.052   7.590
 8739W        W12807   2.041  14.573   9.802
 8740W        W12808   2.898  13.295  10.839
 8741W        W12809   1.713  11.005   8.119
 8742W        W12810   2.426  11.874   8.978
 8743W        W12811   0.112  13.461   9.310
 8744W        W12812   1.365  11.423   7.951
 8745W        W12813   1.169  12.907  10.800
 8746W        W12814   2.163  11.888   8.514
 8747W        W12815   2.368  13.298   9.636
 8748W        W12816   0.522  13.903  10.071
 8749W        W12817   1.113  13.886  10.794
 8750W        W12818   0.964  11.683   7.808
 8751W        W12819   2.481  11.825   8.133
 8752W        W12820   2.439  13.933  10.370
 8753W        W12821   1.124  12.525   8.969
 8754W        W12822   0.779  14.223   9.834
 8755W        W12823   3.524  14.340   7.435
 8756W        W12824   0.387  13.012  10.431
 8757W        W12825   2.382  13.274   9.119
 8758W        W12826   0.818  12.923   8.361
 8759W        W12827   1.189  13.930   9.756
 8760W        W12828   1.567  11.349   8.797
 8761W        W12829   0.178  13.333   7.727
 8762W        W12830   1.697  12.284   7.597
 8763W        W12831   0.343  12.833   8.616
 8764W        W12832   1.633  11.475  10.080
 8765W        W12833   3.305  11.184   7.507
 8766W        W12834   3.398  12.930  10.606
 8767W        W12835   2.052  14.187  10.758
 8768W        W12836   3.610  13.281  10.280
 8769W        W12837   3.018  14.079  10.891
 8770W        W12838   0.757  14.535   9.369
 8771W        W12839   3.616  13.157   8.243
 8772W        W12840   2.146  12.424   8.756
 8773W        W12841   1.913  11.036   8.646
 8774W        W12842   0.972  14.020   8.483
 8775W        W12843   1.471  11.761   9.708
 8776W        W12844   1.171  11.130   9.177
 8777W        W12845   0.234  13.952   7.725
 8778W        W12846   2.050  13.316   8.443
 8779W        W12847   0.925  14.111  10.322
 8780W        W12848   0.402  12.934   8.018
 8781W        W12849   0.287  11.477   9.017
 8782W        W12850   1.835  13.442   9.074
 8783W        W12851   0.087  11.296   8.094
 8784W        W12852   2.751  12.502  10.021
 8785W        W12853   2.628  11.888   7.593
 8786W        W12854   3.145  13.560   9.241
 8787W        W12855   1.806  14.044   9.072
 8788W        W12856   1.218  14.148   7.983
 8789W        W12857   2.500  11.051   7.413
 8790W        W12858   0.300  14.311   9.154
 8791W        W12859   2.497  12.069  10.789
 8792W        W12860   0.480  11.599  10.788
 8793W        W12861   0.211  12.199   8.121
 8794W        W12862   0.902  12.188   7.846
 8795W        W12863   2.665  12.515  10.663
 8796W        W12864   1.008  12.796   9.372
 8797W        W12865   2.482  11.082   8.492
 8798W        W12866   1.613  14.513   8.995
 8799W        W12867   2.827  13.975   9.932
 8800W        W12868   2.411  14.124   9.043
 8801W        W12869   2.430  13.104   8.637
 8802W        W12870   1.892  11.329   7.708
 8803W        W12871   3.573  10.957   8.430
 8804W        W12872   1.261  12.592   7.593
 8805W        W12873   3.427  11.929   8.583
 8806W        W12874   2.119  13.099   7.460
 8807W        W12875   3.055  13.299  10.208
 8808W        W12876   2.709  14.000   7.675
 8809W        W12877   1.324  11.675  10.581
 8810W        W12878   1.144  12.259   9.822
 8811W        W12879   3.236  13.754  10.099
 8812W        W12880   2.336  11.704  10.476
 8813W        W12881   0.180  12.175  10.253
 8814W        W12882   1.940  12.652   9.979
 8815W        W12883   0.297  13.410   8.636
 8816W        W12884   0.444  12.707   9.526
 8817W        W12885   2.761  12.993   9.876
 8818W        W12886   2.533  14.373  10.687
 8819W        W12887   2.429  12.112  10.240
 8820W        W12888   2.706  14.166   8.645
 8821W        W12889   1.708  13.886   9.968
 8822W        W12890   1.193  14.241   9.237
 8823W        W12891   2.998  13.412   9.656
 8824W        W12892   2.048  13.484  10.793
 8825W        W12893   0.653  13.437   9.132
 8826W        W12894   2.999  13.196   8.777
 8827W        W12895   2.640  14.262   9.528
 8828W        W12896   0.618  13.991   9.398
 8829W        W12897   1.639  12.043  10.608
 8830W        W12898   2.090  14.209   8.119
 8831W        W12899   1.398  13.464  10.757
 8832W        W12900   1.524  13.702   8.134
 8833W        W12901   0.745  12.442   7.393
 8834W        W12902   0.084  14.528  14.292
 8835W        W12903   0.460  13.421  13.815
 8836W        W12904   3.165  13.151  11.585
 8837W        W12905   3.295  14.236  13.612
 8838W        W12906   1.213  14.227  11.138
 8839W        W12907   1.296  12.379  12.121
 8840W        W12908   0.811  12.227  12.285
 8841W        W12909   1.802  13.042  11.719
 8842W        W12910   1.477  14.134  14.074
 8843W        W12911   0.126  11.695  14.037
 8844W        W12912   0.888  10.975  13.839
 8845W        W12913   2.582  11.363  12.726
 8846W        W12914   2.231  12.234  11.296
 8847W        W12915   2.801  11.668  14.387
 8848W        W12916   0.167  11.460  13.512
 8849W        W12917   0.266  14.079  14.533
 8850W        W12918   1.788  13.469  11.265
 8851W        W12919   0.220  12.252  12.958
 8852W        W12920   1.113  12.143  14.195
 8853W        W12921   3.572  12.002  12.694
 8854W        W12922   3.336  13.045  13.553
 8855W        W12923   1.644  12.378  12.580
 8856W        W12924   2.190  13.717  12.949
 8857W        W12925   0.690  13.151  13.181
 8858W        W12926   0.049  12.679  12.752
 8859W        W12927   1.085  12.651  13.944
 8860W        W12928   3.356  12.434  14.198
 8861W        W12929   0.972  13.878  12.643
 8862W        W12930   2.093  13.567  13.777
 8863W        W12931   1.313  12.207  13.002
 8864W        W12932   1.605  12.991  12.645
 8865W        W12933   2.602  13.764  14.493
 8866W        W12934   1.681  13.084  14.503
 8867W        W12935   1.662  12.800  13.981
 8868W        W12936   0.071  12.191  14.503
 8869W        W12937   2.903  13.726  14.102
 8870W        W12938   0.484  11.308  12.100
 8871W        W12939   1.011  13.566  13.099
 8872W        W12940   3.474  13.349  12.389
 8873W        W12941   2.887  11.749  12.956
 8874W        W12942   3.172  11.702  11.051
 8875W        W12943   3.637  12.503  13.357
 8876W        W12944   1.604  14.210  13.110
 8877W        W12945   3.378  13.676  11.548
 8878W        W12946   0.507  14.462  11.302
 8879W        W12947   0.900  14.508  11.978
 8880W        W12948   0.697  11.262  13.404
 8881W        W12949   3.320  12.280  13.679
 8882W        W12950   2.725  12.702  12.138
 8883W        W12951   2.691  12.390  11.165
 8884W        W12952   1.899  13.534  13.305
 8885W        W12953   1.705  11.864  12.504
 8886W        W12954   2.305  13.951  13.498
 8887W        W12955   3.176  12.742  11.920
 8888W        W12956   2.078  11.400  11.936
 8889W        W12957   0.735  14.094  11.619
 8890W        W12958   0.106  11.593  12.218
 8891W        W12959   2.892  12.200  12.692
 8892W        W12960   0.350  13.817  12.607
 8893W        W12961   1.691  14.167  11.477
 8894W        W12962   3.083  12.193  10.941
 8895W        W12963   0.106  13.951  13.105
 8896W        W12964   0.897  13.523  13.585
 8897W        W12965   1.270  12.883  12.204
 8898W        W12966   1.292  11.288  13.297
 8899W        W12967   3.521  11.050  12.594
 8900W        W12968   0.740  12.922  11.062
 8901W        W12969   0.395  11.955  11.241
 8902W        W12970   0.457  13.911  12.035
 8903W        W12971   1.588  13.394  12.283
 8904W        W12972   2.920  14.253  13.997
 8905W        W12973   1.846  11.895  11.681
 8906W        W12974   3.229  14.293  12.453
 8907W        W12975   2.906  12.146  14.051
 8908W        W12976   3.619  13.802  12.185
 8909W        W12977   2.246  13.094  13.669
 8910W        W12978   0.012  12.645  11.875
 8911W        W12979   1.123  13.060  13.448
 8912W        W12980   2.327  12.324  11.826
 8913W        W12981   2.204  12.814  11.930
 8914W        W12982   0.547  12.234  13.404
 8915W        W12983   0.532  12.110  14.326
 8916W        W12984   0.422  11.027  12.485
 8917W        W12985   2.190  11.374  13.046
 8918W        W12986   1.838  11.559  14.209
 8919W        W12987   2.193  11.708  11.387
 8920W        W12988   3.376  14.101  14.141
 8921W        W12989   2.343  11.182  14.180
 8922W        W12990   3.362  13.483  14.302
 8923W        W12991   2.792  11.650  13.898
 8924W        W12992   2.592  11.588  12.168
 8925W        W12993   2.985  12.722  14.572
 8926W        W12994   0.725  14.298  12.558
 8927W        W12995   1.383  12.015  11.544
 8928W        W12996   0.952  11.299  14.208
 8929W        W12997   3.004  11.783  11.889
 8930W        W12998   3.371  12.265  11.834
 8931W        W12999   1.114  14.482  14.305
 8932W        W13000   1.040  11.018  11.540
 8933W        W13001   3.361  11.552  12.575
 8934W        W13002   3.511  13.801  11.020
 8935W        W13003   0.418  13.004  12.722
 8936W        W13004   2.335  11.591  10.952
 8937W        W13005   3.469  13.923  12.672
 8938W        W13006   3.508  11.117  13.422
 8939W        W13007   1.953  12.329  13.976
 8940W        W13008   2.046  13.668  11.679
 8941W        W13009   2.446  12.962  14.419
 8942W        W13010   2.120  10.939  12.728
 8943W        W13011   0.732  11.842  12.791
 8944W        W13012   0.286  13.042  13.565
 8945W        W13013   2.145  14.235  12.271
 8946W        W13014   3.339  11.832  13.143
 8947W        W13015   1.976  14.179  13.910
 8948W        W13016   3.319  13.238  11.115
 8949W        W13017   1.754  12.721  12.176
 8950W        W13018   3.606  11.232  13.917
 8951W        W13019   1.755  13.067  13.511
 8952W        W13020   1.972  11.953  12.956
 8953W        W13021   2.824  12.251  11.794
 8954W        W13022   3.111  11.984  11.436
 8955W        W13023   2.920  14.024  11.825
 8956W        W13024   2.754  13.627  12.621
 8957W        W13025   2.650  12.706  11.599
 8958W        W13026   2.083  12.916  12.585
 8959W        W13027   2.964  12.704  12.652
 8960W        W13028   0.339  11.719  13.076
 8961W        W13029   3.117  12.771  13.903
 8962W        W13030   3.468  14.389  13.049
 8963W        W13031   1.398  13.833  12.451
 8964W        W13032   2.405  14.366  13.775
 8965W        W13033   2.399  11.696  13.539
 8966W        W13034   1.606  14.404  13.600
 8967W        W13035   3.303  11.358  12.066
 8968W        W13036   3.094  12.677  13.367
 8969W        W13037   0.077  11.998  13.405
 8970W        W13038   2.937  11.793  12.423
 8971W        W13039   3.348  11.944  14.200
 8972W        W13040   2.233  13.643  12.418
 8973W        W13041   1.489  14.234  12.031
 8974W        W13042   0.604  11.414  11.289
 8975W        W13043   1.708  11.068  13.099
 8976W        W13044   0.736  14.188  10.947
 8977W        W13045   1.110  12.654  11.698
 8978W        W13046   1.764  13.283  14.011
 8979W        W13047   1.594  11.641  12.001
 8980W        W13048   2.950  11.238  12.429
 8981W        W13049   2.670  14.520  12.757
 8982W        W13050   2.082  14.168  13.097
 8983W        W13051   1.478  13.205  13.058
 8984W        W13052   3.248  13.928  13.184
 8985W        W13053   0.942  11.431  11.953
 8986W        W13054   1.464  13.728  12.913
 8987W        W13055   0.947  11.659  10.978
 8988W        W13056   1.748  12.268  13.372
 8989W        W13057   2.596  11.134  13.242
 8990W        W13058   0.016  12.977  13.127
 8991W        W13059   1.720  12.795  11.285
 8992W        W13060   0.988  11.110  11.055
 8993W        W13061   1.726  12.191  12.106
 8994W        W13062   2.696  11.167  13.805
 8995W        W13063   1.284  13.179  13.914
 8996W        W13064   2.088  12.961  14.131
 8997W        W13065   2.705  12.991  14.024
 8998W        W13066   1.989  11.131  14.529
 8999W        W13067   1.211  11.747  12.922
 9000W        W13068   0.637  11.703  12.320
 9001W        W13069   0.423  14.415  11.996
 9002W        W13070   1.755  13.745  14.121
 9003W        W13071   0.790  13.230  11.480
 9004W        W13072   2.470  12.615  12.701
 9005W        W13073   2.750  12.414  13.100
 9006W        W13074   1.955  13.088  13.034
 9007W        W13075   2.425  13.462  11.166
 9008W        W13076   2.097  11.483  12.494
 9009W        W13077   3.576  11.761  11.762
 9010W        W13078   0.070  14.350  13.793
 9011W        W13079   0.487  13.576  13.325
 9012W        W13080   0.054  14.422  11.557
 9013W        W13081   1.953  11.692  13.363
 9014W        W13082   1.316  13.715  11.212
 9015W        W13083   3.221  14.097  11.398
 9016W        W13084   2.196  12.750  11.412
 9017W        W13085   1.039  11.941  11.929
 9018W        W13086   1.871  11.851  10.981
 9019W        W13087   2.455  13.416  14.159
 9020W        W13088   2.808  11.322  11.776
 9021W        W13089   0.138  11.170  11.224
 9022W        W13090   1.424  13.489  13.514
 9023W        W13091   1.223  13.405  12.606
 9024W        W13092   0.965  13.357  11.004
 9025W        W13093   0.206  13.598  11.772
 9026W        W13094   0.710  12.668  14.214
 9027W        W13095   1.414  11.228  14.400
 9028W        W13096   2.123  11.370  13.756
 9029W        W13097   1.318  11.138  12.037
 9030W        W13098   2.377  11.215  11.542
 9031W        W13099   0.322  11.147  13.119
 9032W        W13100   0.370  12.110  12.489
 9033W        W13101   3.059  11.218  12.895
 9034W        W13102   0.481  11.716  11.709
 9035W        W13103   3.052  11.404  13.325
 9036W        W13104   3.448  12.607  11.010
 9037W        W13105   0.740  11.365  12.829
 9038W        W13106   1.854  11.937  13.769
 9039W        W13107   0.002  11.627  11.247
 9040W        W13108   0.788  13.016  13.808
 9041W        W13109   2.146  12.414  12.987
 9042W        W13110   2.013  14.493  11.283
 9043W        W13111   0.159  13.000  10.980
 9044W        W13112   0.894  13.411  14.106
 9045W        W13113   0.415  12.578  13.737
 9046W        W13114   1.406  12.683  13.531
 9047W        W13115   3.174  11.042  13.793
 9048W        W13116   3.572  12.652  13.784
 9049W        W13117   3.560  12.852  11.470
 9050W        W13118   2.423  13.184  11.569
 9051W        W13119   2.897  14.484  11.264
 9052W        W13120   2.074  12.474  14.406
 9053W        W13121   0.404  13.441  14.446
 9054W        W13122   3.610  11.363  14.398
 9055W        W13123   3.328  12.291  13.019
 9056W        W13124   1.636  14.421  14.496
 9057W        W13125   1.491  11.050  11.223
 9058W        W13126   3.030  13.649  11.166
 9059W        W13127   0.799  11.742  14.052
 9060W        W13128   1.233  13.736  13.914
 9061W        W13129   3.359  11.727  13.712
 9062W        W13130   2.570  14.386  11.680
 9063W        W13131   2.809  13.005  13.047
 9064W        W13132   1.059  11.421  13.714
 9065W        W13133   1.528  12.490  14.471
 9066W        W13134   1.031  13.669  11.665
 9067W        W13135   2.786  13.167  11.929
 9068W        W13136   0.554  11.793  13.653
 9069W        W13137   1.883  13.855  12.117
 9070W        W13138   3.633  12.415  12.298
 9071W        W13139   1.855  11.048  14.017
 9072W        W13140   2.635  13.753  13.096
 9073W        W13141   2.938  14.097  12.804
 9074W        W13142   2.157  13.899  11.232
 9075W        W13143   0.167  13.791  14.074
 9076W        W13144   0.910  11.783  13.312
 9077W        W13145   0.880  11.131  12.422
 9078W        W13146   2.501  11.973  13.114
 9079W        W13147   1.299  13.144  11.314
 9080W        W13148   3.297  13.086  12.813
 9081W        W13149   0.624  13.844  14.236
 9082W        W13150   3.011  14.526  12.033
 9083W        W13151   1.110  11.546  12.478
 9084W        W13152   0.879  13.039  12.568
 9085W        W13153   1.192  14.450  13.318
 9086W        W13154   3.259  14.546  14.350
 9087W        W13155   2.418  12.734  13.283
 9088W        W13156   0.267  12.532  11.198
 9089W        W13157   3.401  14.190  11.895
 9090W        W13158   3.238  11.514  11.514
 9091W        W13159   1.377  11.033  13.917
 9092W        W13160   3.083  13.835  12.375
 9093W        W13161   3.112  12.391  12.280
 9094W        W13162   1.229  12.064  12.496
 9095W        W13163   1.474  12.326  13.820
 9096W        W13164   2.585  13.479  13.683
 9097W        W13165   1.235  11.933  13.795
 9098W        W13166   1.214  14.399  12.411
 9099W        W13167   0.531  14.358  14.045
 9100W        W13168   0.643  13.719  11.175
 9101W        W13169   3.160  13.477  11.985
 9102W        W13170   0.764  12.269  13.871
 9103W        W13171   3.537  12.199  11.352
 9104W        W13172   1.282  13.256  11.823
 9105W        W13173   2.381  12.638  13.904
 9106W        W13174   2.272  12.266  13.448
 9107W        W13175   0.832  12.638  13.477
 9108W        W13176   3.042  14.526  13.306
 9109W        W13177   2.833  11.160  14.300
 9110W        W13178   0.497  11.310  13.887
 9111W        W13179   0.836  12.333  12.940
 9112W        W13180   1.205  12.147  11.062
 9113W        W13181   0.008  13.906  13.607
 9114W        W13182   1.593  12.615  13.050
 9115W        W13183   1.416  11.640  11.155
 9116W        W13184   0.551  12.456  11.936
 9117W        W13185   0.322  14.308  13.373
 9118W        W13186   3.117  12.534  11.481
 9119W        W13187   3.212  11.450  14.167
 9120W        W13188   2.648  13.659  12.130
 9121W        W13189   0.246  12.583  14.307
 9122W        W13190   3.212  11.047  11.603
 9123W        W13191   2.732  13.522  11.614
 9124W        W13192   1.634  12.580  11.699
 9125W        W13193   2.821  11.384  11.222
 9126W        W13194   2.886  11.991  13.408
 9127W        W13195   0.595  12.584  12.615
 9128W        W13196   0.889  13.523  12.264
 9129W        W13197   2.652  12.143  12.229
 9130W        W13198   1.675  11.522  12.925
 9131W        W13199   3.637  13.433  13.436
 9132W        W13200   3.555  11.420  12.997
 9133W        W13201   0.094  14.250  12.373
 9134W        W13202   0.603  13.437  11.909
 9135W        W13203   0.518  11.054  14.462
 9136W        W13204   1.637  13.907  14.564
 9137W        W13205   3.392  12.875  12.354
 9138W        W13206   2.746  13.052  11.234
 9139W        W13207   2.041  14.573  13.446
 9140W        W13208   2.898  13.295  14.483
 9141W        W13209   1.713  11.005  11.763
 9142W        W13210   2.426  11.874  12.622
 9143W        W13211   0.112  13.461  12.954
 9144W        W13212   1.365  11.423  11.595
 9145W        W13213   1.169  12.907  14.444
 9146W        W13214   2.163  11.888  12.158
 9147W        W13215   2.368  13.298  13.280
 9148W        W13216   0.522  13.903  13.715
 9149W        W13217   1.113  13.886  14.438
 9150W        W13218   0.964  11.683  11.452
 9151W        W13219   2.481  11.825  11.777
 9152W        W13220   2.439  13.933  14.014
 9153W        W13221   1.124  12.525  12.613
 9154W        W13222   0.779  14.223  13.478
 9155W        W13223   3.524  14.340  11.079
 9156W        W13224   0.387  13.012  14.075
 9157W        W13225   2.382  13.274  12.763
 9158W        W13226   0.818  12.923  12.005
 9159W        W13227   1.189  13.930  13.400
 9160W        W13228   1.567  11.349  12.441
 9161W        W13229   0.178  13.333  11.371
 9162W        W13230   1.697  12.284  11.241
 9163W        W13231   0.343  12.833  12.260
 9164W        W13232   1.633  11.475  13.724
 9165W        W13233   3.305  11.184  11.151
 9166W        W13234   3.398  12.930  14.250
 9167W        W13235   2.052  14.187  14.402
 9168W        W13236   3.610  13.281  13.924
 9169W        W13237   3.018  14.079  14.535
 9170W        W13238   0.757  14.535  13.013
 9171W        W13239   3.616  13.157  11.887
 9172W        W13240   2.146  12.424  12.400
 9173W        W13241   1.913  11.036  12.290
 9174W        W13242   0.972  14.020  12.127
 9175W        W13243   1.471  11.761  13.352
 9176W        W13244   1.171  11.130  12.821
 9177W        W13245   0.234  13.952  11.369
 9178W        W13246   2.050  13.316  12.087
 9179W        W13247   0.925  14.111  13.966
 9180W        W13248   0.402  12.934  11.662
 9181W        W13249   0.287  11.477  12.661
 9182W        W13250   1.835  13.442  12.718
 9183W        W13251   0.087  11.296  11.738
 9184W        W13252   2.751  12.502  13.665
 9185W        W13253   2.628  11.888  11.237
 9186W        W13254   3.145  13.560  12.885
 9187W        W13255   1.806  14.044  12.716
 9188W        W13256   1.218  14.148  11.627
 9189W        W13257   2.500  11.051  11.057
 9190W        W13258   0.300  14.311  12.798
 9191W        W13259   2.497  12.069  14.433
 9192W        W13260   0.480  11.599  14.432
 9193W        W13261   0.211  12.199  11.765
 9194W        W13262   0.902  12.188  11.490
 9195W        W13263   2.665  12.515  14.307
 9196W        W13264   1.008  12.796  13.016
 9197W        W13265   2.482  11.082  12.136
 9198W        W13266   1.613  14.513  12.639
 9199W        W13267   2.827  13.975  13.576
 9200W        W13268   2.411  14.124  12.687
 9201W        W13269   2.430  13.104  12.281
 9202W        W13270   1.892  11.329  11.352
 9203W        W13271   3.573  10.957  12.074
 9204W        W13272   1.261  12.592  11.237
 9205W        W13273   3.427  11.929  12.227
 9206W        W13274   2.119  13.099  11.104
 9207W        W13275   3.055  13.299  13.852
 9208W        W13276   2.709  14.000  11.319
 9209W        W13277   1.324  11.675  14.225
 9210W        W13278   1.144  12.259  13.466
 9211W        W13279   3.236  13.754  13.743
 9212W        W13280   2.336  11.704  14.120
 9213W        W13281   0.180  12.175  13.897
 9214W        W13282   1.940  12.652  13.623
 9215W        W13283   0.297  13.410  12.280
 9216W        W13284   0.444  12.707  13.170
 9217W        W13285   2.761  12.993  13.520
 9218W        W13286   2.533  14.373  14.331
 9219W        W13287   2.429  12.112  13.884
 9220W        W13288   2.706  14.166  12.289
 9221W        W13289   1.708  13.886  13.612
 9222W        W13290   1.193  14.241  12.881
 9223W        W13291   2.998  13.412  13.300
 9224W        W13292   2.048  13.484  14.437
 9225W        W13293   0.653  13.437  12.776
 9226W        W13294   2.999  13.196  12.421
 9227W        W13295   2.640  14.262  13.172
 9228W        W13296   0.618  13.991  13.042
 9229W        W13297   1.639  12.043  14.252
 9230W        W13298   2.090  14.209  11.763
 9231W        W13299   1.398  13.464  14.401
 9232W        W13300   1.524  13.702  11.778
 9233W        W13301   0.745  12.442  11.037
 9234W        W13302   0.084  14.528  17.936
 9235W        W13303   0.460  13.421  17.459
 9236W        W13304   3.165  13.151  15.229
 9237W        W13305   3.295  14.236  17.256
 9238W        W13306   1.213  14.227  14.782
 9239W        W13307   1.296  12.379  15.765
 9240W        W13308   0.811  12.227  15.929
 9241W        W13309   1.802  13.042  15.363
 9242W        W13310   1.477  14.134  17.718
 9243W        W13311   0.126  11.695  17.681
 9244W        W13312   0.888  10.975  17.483
 9245W        W13313   2.582  11.363  16.370
 9246W        W13314   2.231  12.234  14.940
 9247W        W13315   2.801  11.668  18.031
 9248W        W13316   0.167  11.460  17.156
 9249W        W13317   0.266  14.079  18.177
 9250W        W13318   1.788  13.469  14.909
 9251W        W13319   0.220  12.252  16.602
 9252W        W13320   1.113  12.143  17.839
 9253W        W13321   3.572  12.002  16.338
 9254W        W13322   3.336  13.045  17.197
 9255W        W13323   1.644  12.378  16.224
 9256W        W13324   2.190  13.717  16.593
 9257W        W13325   0.690  13.151  16.825
 9258W        W13326   0.049  12.679  16.396
 9259W        W13327   1.085  12.651  17.588
 9260W        W13328   3.356  12.434  17.842
 9261W        W13329   0.972  13.878  16.287
 9262W        W13330   2.093  13.567  17.421
 9263W        W13331   1.313  12.207  16.646
 9264W        W13332   1.605  12.991  16.289
 9265W        W13333   2.602  13.764  18.137
 9266W        W13334   1.681  13.084  18.147
 9267W        W13335   1.662  12.800  17.625
 9268W        W13336   0.071  12.191  18.147
 9269W        W13337   2.903  13.726  17.746
 9270W        W13338   0.484  11.308  15.744
 9271W        W13339   1.011  13.566  16.743
 9272W        W13340   3.474  13.349  16.033
 9273W        W13341   2.887  11.749  16.600
 9274W        W13342   3.172  11.702  14.695
 9275W        W13343   3.637  12.503  17.001
 9276W        W13344   1.604  14.210  16.754
 9277W        W13345   3.378  13.676  15.192
 9278W        W13346   0.507  14.462  14.946
 9279W        W13347   0.900  14.508  15.622
 9280W        W13348   0.697  11.262  17.048
 9281W        W13349   3.320  12.280  17.323
 9282W        W13350   2.725  12.702  15.782
 9283W        W13351   2.691  12.390  14.809
 9284W        W13352   1.899  13.534  16.949
 9285W        W13353   1.705  11.864  16.148
 9286W        W13354   2.305  13.951  17.142
 9287W        W13355   3.176  12.742  15.564
 9288W        W13356   2.078  11.400  15.580
 9289W        W13357   0.735  14.094  15.263
 9290W        W13358   0.106  11.593  15.862
 9291W        W13359   2.892  12.200  16.336
 9292W        W13360   0.350  13.817  16.251
 9293W        W13361   1.691  14.167  15.121
 9294W        W13362   3.083  12.193  14.585
 9295W        W13363   0.106  13.951  16.749
 9296W        W13364   0.897  13.523  17.229
 9297W        W13365   1.270  12.883  15.848
 9298W        W13366   1.292  11.288  16.941
 9299W        W13367   3.521  11.050  16.238
 9300W        W13368   0.740  12.922  14.706
 9301W        W13369   0.395  11.955  14.885
 9302W        W13370   0.457  13.911  15.679
 9303W        W13371   1.588  13.394  15.927
 9304W        W13372   2.920  14.253  17.641
 9305W        W13373   1.846  11.895  15.325
 9306W        W13374   3.229  14.293  16.097
 9307W        W13375   2.906  12.146  17.695
 9308W        W13376   3.619  13.802  15.829
 9309W        W13377   2.246  13.094  17.313
 9310W        W13378   0.012  12.645  15.519
 9311W        W13379   1.123  13.060  17.092
 9312W        W13380   2.327  12.324  15.470
 9313W        W13381   2.204  12.814  15.574
 9314W        W13382   0.547  12.234  17.048
 9315W        W13383   0.532  12.110  17.970
 9316W        W13384   0.422  11.027  16.129
 9317W        W13385   2.190  11.374  16.690
 9318W        W13386   1.838  11.559  17.853
 9319W        W13387   2.193  11.708  15.031
 9320W        W13388   3.376  14.101  17.785
 9321W        W13389   2.343  11.182  17.824
 9322W        W13390   3.362  13.483  17.946
 9323W        W13391   2.792  11.650  17.542
 9324W        W13392   2.592  11.588  15.812
 9325W        W13393   2.985  12.722  18.216
 9326W        W13394   0.725  14.298  16.202
 9327W        W13395   1.383  12.015  15.188
 9328W        W13396   0.952  11.299  17.852
 9329W        W13397   3.004  11.783  15.533
 9330W        W13398   3.371  12.265  15.478
 9331W        W13399   1.114  14.482  17.949
 9332W        W13400   1.040  11.018  15.184
 9333W        W13401   3.361  11.552  16.219
 9334W        W13402   3.511  13.801  14.664
 9335W        W13403   0.418  13.004  16.366
 9336W        W13404   2.335  11.591  14.596
 9337W        W13405   3.469  13.923  16.316
 9338W        W13406   1.953  12.329  17.620
 9339W        W13407   2.046  13.668  15.323
 9340W        W13408   2.446  12.962  18.063
 9341W        W13409   2.120  10.939  16.372
 9342W        W13410   0.732  11.842  16.435
 9343W        W13411   0.286  13.042  17.209
 9344W        W13412   2.145  14.235  15.915
 9345W        W13413   3.339  11.832  16.787
 9346W        W13414   1.976  14.179  17.554
 9347W        W13415   3.319  13.238  14.759
 9348W        W13416   1.754  12.721  15.820
 9349W        W13417   3.606  11.232  17.561
 9350W        W13418   1.755  13.067  17.155
 9351W        W13419   1.972  11.953  16.600
 9352W        W13420   2.824  12.251  15.438
 9353W        W13421   3.111  11.984  15.080
 9354W        W13422   2.920  14.024  15.469
 9355W        W13423   2.754  13.627  16.265
 9356W        W13424   2.650  12.706  15.243
 9357W        W13425   2.083  12.916  16.229
 9358W        W13426   2.964  12.704  16.296
 9359W        W13427   0.339  11.719  16.720
 9360W        W13428   3.117  12.771  17.547
 9361W        W13429   3.468  14.389  16.693
 9362W        W13430   1.398  13.833  16.095
 9363W        W13431   2.405  14.366  17.419
 9364W        W13432   2.399  11.696  17.183
 9365W        W13433   1.606  14.404  17.244
 9366W        W13434   3.303  11.358  15.710
 9367W        W13435   3.094  12.677  17.011
 9368W        W13436   0.077  11.998  17.049
 9369W        W13437   2.937  11.793  16.067
 9370W        W13438   3.348  11.944  17.844
 9371W        W13439   2.233  13.643  16.062
 9372W        W13440   1.489  14.234  15.675
 9373W        W13441   0.604  11.414  14.933
 9374W        W13442   1.708  11.068  16.743
 9375W        W13443   0.736  14.188  14.591
 9376W        W13444   1.110  12.654  15.342
 9377W        W13445   1.764  13.283  17.655
 9378W        W13446   1.594  11.641  15.645
 9379W        W13447   2.950  11.238  16.073
 9380W        W13448   2.670  14.520  16.401
 9381W        W13449   2.082  14.168  16.741
 9382W        W13450   1.478  13.205  16.702
 9383W        W13451   3.248  13.928  16.828
 9384W        W13452   0.942  11.431  15.597
 9385W        W13453   1.464  13.728  16.557
 9386W        W13454   0.947  11.659  14.622
 9387W        W13455   1.748  12.268  17.016
 9388W        W13456   2.596  11.134  16.886
 9389W        W13457   0.016  12.977  16.771
 9390W        W13458   1.720  12.795  14.929
 9391W        W13459   0.988  11.110  14.699
 9392W        W13460   1.726  12.191  15.750
 9393W        W13461   2.696  11.167  17.449
 9394W        W13462   1.284  13.179  17.558
 9395W        W13463   2.088  12.961  17.775
 9396W        W13464   2.705  12.991  17.668
 9397W        W13465   1.989  11.131  18.173
 9398W        W13466   1.211  11.747  16.566
 9399W        W13467   0.637  11.703  15.964
 9400W        W13468   0.423  14.415  15.640
 9401W        W13469   1.755  13.745  17.765
 9402W        W13470   0.790  13.230  15.124
 9403W        W13471   2.470  12.615  16.345
 9404W        W13472   2.750  12.414  16.744
 9405W        W13473   1.955  13.088  16.678
 9406W        W13474   2.425  13.462  14.810
 9407W        W13475   2.097  11.483  16.138
 9408W        W13476   3.576  11.761  15.406
 9409W        W13477   0.070  14.350  17.437
 9410W        W13478   0.487  13.576  16.969
 9411W        W13479   0.054  14.422  15.201
 9412W        W13480   1.953  11.692  17.007
 9413W        W13481   1.316  13.715  14.856
 9414W        W13482   3.221  14.097  15.042
 9415W        W13483   2.196  12.750  15.056
 9416W        W13484   1.039  11.941  15.573
 9417W        W13485   1.871  11.851  14.625
 9418W        W13486   2.455  13.416  17.803
 9419W        W13487   2.808  11.322  15.420
 9420W        W13488   0.138  11.170  14.868
 9421W        W13489   1.424  13.489  17.158
 9422W        W13490   1.223  13.405  16.250
 9423W        W13491   0.965  13.357  14.648
 9424W        W13492   0.206  13.598  15.416
 9425W        W13493   0.710  12.668  17.858
 9426W        W13494   1.414  11.228  18.044
 9427W        W13495   2.123  11.370  17.400
 9428W        W13496   1.318  11.138  15.681
 9429W        W13497   2.377  11.215  15.186
 9430W        W13498   0.322  11.147  16.763
 9431W        W13499   0.370  12.110  16.133
 9432W        W13500   3.059  11.218  16.539
 9433W        W13501   0.481  11.716  15.353
 9434W        W13502   3.052  11.404  16.969
 9435W        W13503   3.448  12.607  14.654
 9436W        W13504   0.740  11.365  16.473
 9437W        W13505   1.854  11.937  17.413
 9438W        W13506   0.002  11.627  14.891
 9439W        W13507   0.788  13.016  17.452
 9440W        W13508   2.146  12.414  16.631
 9441W        W13509   2.013  14.493  14.927
 9442W        W13510   0.159  13.000  14.624
 9443W        W13511   0.894  13.411  17.750
 9444W        W13512   0.415  12.578  17.381
 9445W        W13513   1.406  12.683  17.175
 9446W        W13514   3.174  11.042  17.437
 9447W        W13515   3.572  12.652  17.428
 9448W        W13516   3.560  12.852  15.114
 9449W        W13517   2.423  13.184  15.213
 9450W        W13518   2.897  14.484  14.908
 9451W        W13519   2.074  12.474  18.050
 9452W        W13520   0.404  13.441  18.090
 9453W        W13521   3.610  11.363  18.042
 9454W        W13522   3.328  12.291  16.663
 9455W        W13523   1.636  14.421  18.140
 9456W        W13524   1.491  11.050  14.867
 9457W        W13525   3.030  13.649  14.810
 9458W        W13526   0.799  11.742  17.696
 9459W        W13527   1.233  13.736  17.558
 9460W        W13528   3.359  11.727  17.356
 9461W        W13529   2.570  14.386  15.324
 9462W        W13530   2.809  13.005  16.691
 9463W        W13531   1.059  11.421  17.358
 9464W        W13532   1.528  12.490  18.115
 9465W        W13533   1.031  13.669  15.309
 9466W        W13534   2.786  13.167  15.573
 9467W        W13535   0.554  11.793  17.297
 9468W        W13536   1.883  13.855  15.761
 9469W        W13537   3.633  12.415  15.942
 9470W        W13538   1.855  11.048  17.661
 9471W        W13539   2.635  13.753  16.740
 9472W        W13540   2.938  14.097  16.448
 9473W        W13541   2.157  13.899  14.876
 9474W        W13542   0.167  13.791  17.718
 9475W        W13543   0.910  11.783  16.956
 9476W        W13544   0.880  11.131  16.066
 9477W        W13545   2.501  11.973  16.758
 9478W        W13546   1.299  13.144  14.958
 9479W        W13547   3.297  13.086  16.457
 9480W        W13548   0.624  13.844  17.880
 9481W        W13549   3.011  14.526  15.677
 9482W        W13550   1.110  11.546  16.122
 9483W        W13551   0.879  13.039  16.212
 9484W        W13552   1.192  14.450  16.962
 9485W        W13553   3.259  14.546  17.994
 9486W        W13554   2.418  12.734  16.927
 9487W        W13555   0.267  12.532  14.842
 9488W        W13556   3.401  14.190  15.539
 9489W        W13557   3.238  11.514  15.158
 9490W        W13558   1.377  11.033  17.561
 9491W        W13559   3.083  13.835  16.019
 9492W        W13560   3.112  12.391  15.924
 9493W        W13561   1.229  12.064  16.140
 9494W        W13562   1.474  12.326  17.464
 9495W        W13563   2.585  13.479  17.327
 9496W        W13564   1.235  11.933  17.439
 9497W        W13565   1.214  14.399  16.055
 9498W        W13566   0.531  14.358  17.689
 9499W        W13567   0.643  13.719  14.819
 9500W        W13568   3.160  13.477  15.629
 9501W        W13569   0.764  12.269  17.515
 9502W        W13570   3.537  12.199  14.996
 9503W        W13571   1.282  13.256  15.467
 9504W        W13572   2.381  12.638  17.548
 9505W        W13573   2.272  12.266  17.092
 9506W        W13574   0.832  12.638  17.121
 9507W        W13575   3.042  14.526  16.950
 9508W        W13576   2.833  11.160  17.944
 9509W        W13577   0.497  11.310  17.531
 9510W        W13578   0.836  12.333  16.584
 9511W        W13579   1.205  12.147  14.706
 9512W        W13580   0.008  13.906  17.251
 9513W        W13581   1.593  12.615  16.694
 9514W        W13582   1.416  11.640  14.799
 9515W        W13583   0.551  12.456  15.580
 9516W        W13584   0.322  14.308  17.017
 9517W        W13585   3.117  12.534  15.125
 9518W        W13586   3.212  11.450  17.811
 9519W        W13587   2.648  13.659  15.774
 9520W        W13588   0.246  12.583  17.951
 9521W        W13589   3.212  11.047  15.247
 9522W        W13590   2.732  13.522  15.258
 9523W        W13591   1.634  12.580  15.343
 9524W        W13592   2.821  11.384  14.866
 9525W        W13593   2.886  11.991  17.052
 9526W        W13594   0.595  12.584  16.259
 9527W        W13595   0.889  13.523  15.908
 9528W        W13596   2.652  12.143  15.873
 9529W        W13597   1.675  11.522  16.569
 9530W        W13598   3.637  13.433  17.080
 9531W        W13599   3.555  11.420  16.641
 9532W        W13600   0.094  14.250  16.017
 9533W        W13601   0.603  13.437  15.553
 9534W        W13602   0.518  11.054  18.106
 9535W        W13603   1.637  13.907  18.208
 9536W        W13604   3.392  12.875  15.998
 9537W        W13605   2.746  13.052  14.878
 9538W        W13606   2.041  14.573  17.090
 9539W        W13607   2.898  13.295  18.127
 9540W        W13608   1.713  11.005  15.407
 9541W        W13609   2.426  11.874  16.266
 9542W        W13610   0.112  13.461  16.598
 9543W        W13611   1.365  11.423  15.239
 9544W        W13612   1.169  12.907  18.088
 9545W        W13613   2.163  11.888  15.802
 9546W        W13614   2.368  13.298  16.924
 9547W        W13615   0.522  13.903  17.359
 9548W        W13616   1.113  13.886  18.082
 9549W        W13617   0.964  11.683  15.096
 9550W        W13618   2.481  11.825  15.421
 9551W        W13619   2.439  13.933  17.658
 9552W        W13620   1.124  12.525  16.257
 9553W        W13621   0.779  14.223  17.122
 9554W        W13622   3.524  14.340  14.723
 9555W        W13623   0.387  13.012  17.719
 9556W        W13624   2.382  13.274  16.407
 9557W        W13625   0.818  12.923  15.649
 9558W        W13626   1.189  13.930  17.044
 9559W        W13627   1.567  11.349  16.085
 9560W        W13628   0.178  13.333  15.015
 9561W        W13629   1.697  12.284  14.885
 9562W        W13630   0.343  12.833  15.904
 9563W        W13631   1.633  11.475  17.368
 9564W        W13632   3.305  11.184  14.795
 9565W        W13633   3.398  12.930  17.894
 9566W        W13634   2.052  14.187  18.046
 9567W        W13635   3.610  13.281  17.568
 9568W        W13636   3.018  14.079  18.179
 9569W        W13637   0.757  14.535  16.657
 9570W        W13638   3.616  13.157  15.531
 9571W        W13639   2.146  12.424  16.044
 9572W        W13640   1.913  11.036  15.934
 9573W        W13641   0.972  14.020  15.771
 9574W        W13642   1.471  11.761  16.996
 9575W        W13643   1.171  11.130  16.465
 9576W        W13644   0.234  13.952  15.013
 9577W        W13645   2.050  13.316  15.731
 9578W        W13646   0.925  14.111  17.610
 9579W        W13647   0.402  12.934  15.306
 9580W        W13648   0.287  11.477  16.305
 9581W        W13649   1.835  13.442  16.362
 9582W        W13650   0.087  11.296  15.382
 9583W        W13651   2.751  12.502  17.309
 9584W        W13652   2.628  11.888  14.881
 9585W        W13653   3.145  13.560  16.529
 9586W        W13654   1.806  14.044  16.360
 9587W        W13655   1.218  14.148  15.271
 9588W        W13656   2.500  11.051  14.701
 9589W        W13657   0.300  14.311  16.442
 9590W        W13658   2.497  12.069  18.077
 9591W        W13659   0.480  11.599  18.076
 9592W        W13660   0.211  12.199  15.409
 9593W        W13661   0.902  12.188  15.134
 9594W        W13662   2.665  12.515  17.951
 9595W        W13663   1.008  12.796  16.660
 9596W        W13664   2.482  11.082  15.780
 9597W        W13665   1.613  14.513  16.283
 9598W        W13666   2.827  13.975  17.220
 9599W        W13667   2.411  14.124  16.331
 9600W        W13668   2.430  13.104  15.925
 9601W        W13669   1.892  11.329  14.996
 9602W        W13670   3.573  10.957  15.718
 9603W        W13671   1.261  12.592  14.881
 9604W        W13672   3.427  11.929  15.871
 9605W        W13673   2.119  13.099  14.748
 9606W        W13674   3.055  13.299  17.496
 9607W        W13675   2.709  14.000  14.963
 9608W        W13676   1.324  11.675  17.869
 9609W        W13677   1.144  12.259  17.110
 9610W        W13678   3.236  13.754  17.387
 9611W        W13679   2.336  11.704  17.764
 9612W        W13680   0.180  12.175  17.541
 9613W        W13681   1.940  12.652  17.267
 9614W        W13682   0.297  13.410  15.924
 9615W        W13683   0.444  12.707  16.814
 9616W        W13684   2.761  12.993  17.164
 9617W        W13685   2.533  14.373  17.975
 9618W        W13686   2.429  12.112  17.528
 9619W        W13687   2.706  14.166  15.933
 9620W        W13688   1.708  13.886  17.256
 9621W        W13689   1.193  14.241  16.525
 9622W        W13690   2.998  13.412  16.944
 9623W        W13691   2.048  13.484  18.081
 9624W        W13692   0.653  13.437  16.420
 9625W        W13693   2.999  13.196  16.065
 9626W        W13694   2.640  14.262  16.816
 9627W        W13695   0.618  13.991  16.686
 9628W        W13696   1.639  12.043  17.896
 9629W        W13697   2.090  14.209  15.407
 9630W        W13698   1.398  13.464  18.045
 9631W        W13699   1.524  13.702  15.422
 9632W        W13700   0.745  12.442  14.681
 9633W        W13701   0.084  14.528  21.580
 9634W        W13702   0.460  13.421  21.103
 9635W        W13703   3.165  13.151  18.873
 9636W        W13704   3.295  14.236  20.900
 9637W        W13705   1.213  14.227  18.426
 9638W        W13706   1.296  12.379  19.409
 9639W        W13707   0.811  12.227  19.573
 9640W        W13708   1.802  13.042  19.007
 9641W        W13709   1.477  14.134  21.362
 9642W        W13710   0.126  11.695  21.325
 9643W        W13711   0.888  10.975  21.127
 9644W        W13712   2.582  11.363  20.014
 9645W        W13713   2.231  12.234  18.584
 9646W        W13714   2.801  11.668  21.675
 9647W        W13715   0.167  11.460  20.800
 9648W        W13716   0.266  14.079  21.821
 9649W        W13717   1.788  13.469  18.553
 9650W        W13718   0.220  12.252  20.246
 9651W        W13719   1.113  12.143  21.483
 9652W        W13720   3.572  12.002  19.982
 9653W        W13721   3.336  13.045  20.841
 9654W        W13722   1.644  12.378  19.868
 9655W        W13723   2.190  13.717  20.237
 9656W        W13724   0.690  13.151  20.469
 9657W        W13725   0.049  12.679  20.040
 9658W        W13726   1.085  12.651  21.232
 9659W        W13727   3.356  12.434  21.486
 9660W        W13728   0.972  13.878  19.931
 9661W        W13729   2.093  13.567  21.065
 9662W        W13730   1.313  12.207  20.290
 9663W        W13731   1.605  12.991  19.933
 9664W        W13732   2.602  13.764  21.781
 9665W        W13733   1.681  13.084  21.791
 9666W        W13734   1.662  12.800  21.269
 9667W        W13735   0.071  12.191  21.791
 9668W        W13736   2.903  13.726  21.390
 9669W        W13737   0.484  11.308  19.388
 9670W        W13738   1.011  13.566  20.387
 9671W        W13739   3.474  13.349  19.677
 9672W        W13740   2.887  11.749  20.244
 9673W        W13741   3.172  11.702  18.339
 9674W        W13742   3.637  12.503  20.645
 9675W        W13743   1.604  14.210  20.398
 9676W        W13744   3.378  13.676  18.836
 9677W        W13745   0.507  14.462  18.590
 9678W        W13746   0.900  14.508  19.266
 9679W        W13747   0.697  11.262  20.692
 9680W        W13748   3.320  12.280  20.967
 9681W        W13749   2.725  12.702  19.426
 9682W        W13750   2.691  12.390  18.453
 9683W        W13751   1.899  13.534  20.593
 9684W        W13752   1.705  11.864  19.792
 9685W        W13753   2.305  13.951  20.786
 9686W        W13754   3.176  12.742  19.208
 9687W        W13755   2.078  11.400  19.224
 9688W        W13756   0.735  14.094  18.907
 9689W        W13757   0.106  11.593  19.506
 9690W        W13758   2.892  12.200  19.980
 9691W        W13759   0.350  13.817  19.895
 9692W        W13760   1.691  14.167  18.765
 9693W        W13761   3.083  12.193  18.229
 9694W        W13762   0.106  13.951  20.393
 9695W        W13763   0.897  13.523  20.873
 9696W        W13764   1.270  12.883  19.492
 9697W        W13765   1.292  11.288  20.585
 9698W        W13766   3.521  11.050  19.882
 9699W        W13767   0.740  12.922  18.350
 9700W        W13768   0.395  11.955  18.529
 9701W        W13769   0.457  13.911  19.323
 9702W        W13770   1.588  13.394  19.571
 9703W        W13771   2.920  14.253  21.285
 9704W        W13772   1.846  11.895  18.969
 9705W        W13773   3.229  14.293  19.741
 9706W        W13774   2.906  12.146  21.339
 9707W        W13775   3.619  13.802  19.473
 9708W        W13776   2.246  13.094  20.957
 9709W        W13777   0.012  12.645  19.163
 9710W        W13778   1.123  13.060  20.736
 9711W        W13779   2.327  12.324  19.114
 9712W        W13780   2.204  12.814  19.218
 9713W        W13781   0.547  12.234  20.692
 9714W        W13782   0.532  12.110  21.614
 9715W        W13783   0.422  11.027  19.773
 9716W        W13784   2.190  11.374  20.334
 9717W        W13785   1.838  11.559  21.497
 9718W        W13786   2.193  11.708  18.675
 9719W        W13787   3.376  14.101  21.429
 9720W        W13788   2.343  11.182  21.468
 9721W        W13789   3.362  13.483  21.590
 9722W        W13790   2.792  11.650  21.186
 9723W        W13791   2.592  11.588  19.456
 9724W        W13792   2.985  12.722  21.860
 9725W        W13793   0.725  14.298  19.846
 9726W        W13794   1.383  12.015  18.832
 9727W        W13795   0.952  11.299  21.496
 9728W        W13796   3.004  11.783  19.177
 9729W        W13797   3.371  12.265  19.122
 9730W        W13798   1.114  14.482  21.593
 9731W        W13799   1.040  11.018  18.828
 9732W        W13800   3.361  11.552  19.863
 9733W        W13801   3.511  13.801  18.308
 9734W        W13802   0.418  13.004  20.010
 9735W        W13803   2.335  11.591  18.240
 9736W        W13804   3.469  13.923  19.960
 9737W        W13805   3.508  11.117  20.710
 9738W        W13806   1.953  12.329  21.264
 9739W        W13807   2.046  13.668  18.967
 9740W        W13808   2.446  12.962  21.707
 9741W        W13809   2.120  10.939  20.016
 9742W        W13810   0.732  11.842  20.079
 9743W        W13811   0.286  13.042  20.853
 9744W        W13812   2.145  14.235  19.559
 9745W        W13813   3.339  11.832  20.431
 9746W        W13814   1.976  14.179  21.198
 9747W        W13815   3.319  13.238  18.403
 9748W        W13816   1.754  12.721  19.464
 9749W        W13817   3.606  11.232  21.205
 9750W        W13818   1.755  13.067  20.799
 9751W        W13819   1.972  11.953  20.244
 9752W        W13820   2.824  12.251  19.082
 9753W        W13821   3.111  11.984  18.724
 9754W        W13822   2.920  14.024  19.113
 9755W        W13823   2.754  13.627  19.909
 9756W        W13824   2.650  12.706  18.887
 9757W        W13825   2.083  12.916  19.873
 9758W        W13826   2.964  12.704  19.940
 9759W        W13827   0.339  11.719  20.364
 9760W        W13828   3.117  12.771  21.191
 9761W        W13829   3.468  14.389  20.337
 9762W        W13830   1.398  13.833  19.739
 9763W        W13831   2.405  14.366  21.063
 9764W        W13832   2.399  11.696  20.827
 9765W        W13833   1.606  14.404  20.888
 9766W        W13834   3.303  11.358  19.354
 9767W        W13835   3.094  12.677  20.655
 9768W        W13836   0.077  11.998  20.693
 9769W        W13837   2.937  11.793  19.711
 9770W        W13838   3.348  11.944  21.488
 9771W        W13839   2.233  13.643  19.706
 9772W        W13840   1.489  14.234  19.319
 9773W        W13841   0.604  11.414  18.577
 9774W        W13842   1.708  11.068  20.387
 9775W        W13843   0.736  14.188  18.235
 9776W        W13844   1.110  12.654  18.986
 9777W        W13845   1.764  13.283  21.299
 9778W        W13846   1.594  11.641  19.289
 9779W        W13847   2.950  11.238  19.717
 9780W        W13848   2.670  14.520  20.045
 9781W        W13849   2.082  14.168  20.385
 9782W        W13850   1.478  13.205  20.346
 9783W        W13851   3.248  13.928  20.472
 9784W        W13852   0.942  11.431  19.241
 9785W        W13853   1.464  13.728  20.201
 9786W        W13854   0.947  11.659  18.266
 9787W        W13855   1.748  12.268  20.660
 9788W        W13856   2.596  11.134  20.530
 9789W        W13857   0.016  12.977  20.415
 9790W        W13858   1.720  12.795  18.573
 9791W        W13859   0.988  11.110  18.343
 9792W        W13860   1.726  12.191  19.394
 9793W        W13861   2.696  11.167  21.093
 9794W        W13862   1.284  13.179  21.202
 9795W        W13863   2.088  12.961  21.419
 9796W        W13864   2.705  12.991  21.312
 9797W        W13865   1.989  11.131  21.817
 9798W        W13866   1.211  11.747  20.210
 9799W        W13867   0.637  11.703  19.608
 9800W        W13868   0.423  14.415  19.284
 9801W        W13869   1.755  13.745  21.409
 9802W        W13870   0.790  13.230  18.768
 9803W        W13871   2.470  12.615  19.989
 9804W        W13872   2.750  12.414  20.388
 9805W        W13873   1.955  13.088  20.322
 9806W        W13874   2.425  13.462  18.454
 9807W        W13875   2.097  11.483  19.782
 9808W        W13876   3.576  11.761  19.050
 9809W        W13877   0.070  14.350  21.081
 9810W        W13878   0.487  13.576  20.613
 9811W        W13879   0.054  14.422  18.845
 9812W        W13880   1.953  11.692  20.651
 9813W        W13881   1.316  13.715  18.500
 9814W        W13882   3.221  14.097  18.686
 9815W        W13883   2.196  12.750  18.700
 9816W        W13884   1.039  11.941  19.217
 9817W        W13885   1.871  11.851  18.269
 9818W        W13886   2.455  13.416  21.447
 9819W        W13887   2.808  11.322  19.064
 9820W        W13888   0.138  11.170  18.512
 9821W        W13889   1.424  13.489  20.802
 9822W        W13890   1.223  13.405  19.894
 9823W        W13891   0.965  13.357  18.292
 9824W        W13892   0.206  13.598  19.060
 9825W        W13893   0.710  12.668  21.502
 9826W        W13894   1.414  11.228  21.688
 9827W        W13895   2.123  11.370  21.044
 9828W        W13896   1.318  11.138  19.325
 9829W        W13897   2.377  11.215  18.830
 9830W        W13898   0.322  11.147  20.407
 9831W        W13899   0.370  12.110  19.777
 9832W        W13900   3.059  11.218  20.183
 9833W        W13901   0.481  11.716  18.997
 9834W        W13902   3.052  11.404  20.613
 9835W        W13903   3.448  12.607  18.298
 9836W        W13904   0.740  11.365  20.117
 9837W        W13905   1.854  11.937  21.057
 9838W        W13906   0.002  11.627  18.535
 9839W        W13907   0.788  13.016  21.096
 9840W        W13908   2.146  12.414  20.275
 9841W        W13909   2.013  14.493  18.571
 9842W        W13910   0.159  13.000  18.268
 9843W        W13911   0.894  13.411  21.394
 9844W        W13912   0.415  12.578  21.025
 9845W        W13913   1.406  12.683  20.819
 9846W        W13914   3.174  11.042  21.081
 9847W        W13915   3.572  12.652  21.072
 9848W        W13916   3.560  12.852  18.758
 9849W        W13917   2.423  13.184  18.857
 9850W        W13918   2.897  14.484  18.552
 9851W        W13919   2.074  12.474  21.694
 9852W        W13920   0.404  13.441  21.734
 9853W        W13921   3.610  11.363  21.686
 9854W        W13922   3.328  12.291  20.307
 9855W        W13923   1.636  14.421  21.784
 9856W        W13924   1.491  11.050  18.511
 9857W        W13925   3.030  13.649  18.454
 9858W        W13926   0.799  11.742  21.340
 9859W        W13927   1.233  13.736  21.202
 9860W        W13928   3.359  11.727  21.000
 9861W        W13929   2.570  14.386  18.968
 9862W        W13930   2.809  13.005  20.335
 9863W        W13931   1.059  11.421  21.002
 9864W        W13932   1.528  12.490  21.759
 9865W        W13933   1.031  13.669  18.953
 9866W        W13934   2.786  13.167  19.217
 9867W        W13935   0.554  11.793  20.941
 9868W        W13936   1.883  13.855  19.405
 9869W        W13937   3.633  12.415  19.586
 9870W        W13938   1.855  11.048  21.305
 9871W        W13939   2.635  13.753  20.384
 9872W        W13940   2.938  14.097  20.092
 9873W        W13941   2.157  13.899  18.520
 9874W        W13942   0.167  13.791  21.362
 9875W        W13943   0.910  11.783  20.600
 9876W        W13944   0.880  11.131  19.710
 9877W        W13945   2.501  11.973  20.402
 9878W        W13946   1.299  13.144  18.602
 9879W        W13947   3.297  13.086  20.101
 9880W        W13948   0.624  13.844  21.524
 9881W        W13949   3.011  14.526  19.321
 9882W        W13950   1.110  11.546  19.766
 9883W        W13951   0.879  13.039  19.856
 9884W        W13952   1.192  14.450  20.606
 9885W        W13953   3.259  14.546  21.638
 9886W        W13954   2.418  12.734  20.571
 9887W        W13955   0.267  12.532  18.486
 9888W        W13956   3.401  14.190  19.183
 9889W        W13957   3.238  11.514  18.802
 9890W        W13958   1.377  11.033  21.205
 9891W        W13959   3.083  13.835  19.663
 9892W        W13960   3.112  12.391  19.568
 9893W        W13961   1.229  12.064  19.784
 9894W        W13962   1.474  12.326  21.108
 9895W        W13963   2.585  13.479  20.971
 9896W        W13964   1.235  11.933  21.083
 9897W        W13965   1.214  14.399  19.699
 9898W        W13966   0.531  14.358  21.333
 9899W        W13967   0.643  13.719  18.463
 9900W        W13968   3.160  13.477  19.273
 9901W        W13969   0.764  12.269  21.159
 9902W        W13970   3.537  12.199  18.640
 9903W        W13971   1.282  13.256  19.111
 9904W        W13972   2.381  12.638  21.192
 9905W        W13973   2.272  12.266  20.736
 9906W        W13974   0.832  12.638  20.765
 9907W        W13975   3.042  14.526  20.594
 9908W        W13976   2.833  11.160  21.588
 9909W        W13977   0.497  11.310  21.175
 9910W        W13978   0.836  12.333  20.228
 9911W        W13979   1.205  12.147  18.350
 9912W        W13980   0.008  13.906  20.895
 9913W        W13981   1.593  12.615  20.338
 9914W        W13982   1.416  11.640  18.443
 9915W        W13983   0.551  12.456  19.224
 9916W        W13984   0.322  14.308  20.661
 9917W        W13985   3.117  12.534  18.769
 9918W        W13986   3.212  11.450  21.455
 9919W        W13987   2.648  13.659  19.418
 9920W        W13988   0.246  12.583  21.595
 9921W        W13989   3.212  11.047  18.891
 9922W        W13990   2.732  13.522  18.902
 9923W        W13991   1.634  12.580  18.987
 9924W        W13992   2.821  11.384  18.510
 9925W        W13993   2.886  11.991  20.696
 9926W        W13994   0.595  12.584  19.903
 9927W        W13995   0.889  13.523  19.552
 9928W        W13996   2.652  12.143  19.517
 9929W        W13997   1.675  11.522  20.213
 9930W        W13998   3.637  13.433  20.724
 9931W        W13999   3.555  11.420  20.285
 9932W        W14000   0.094  14.250  19.661
 9933W        W14001   0.603  13.437  19.197
 9934W        W14002   0.518  11.054  21.750
 9935W        W14003   1.637  13.907  21.852
 9936W        W14004   3.392  12.875  19.642
 9937W        W14005   2.746  13.052  18.522
 9938W        W14006   2.041  14.573  20.734
 9939W        W14007   2.898  13.295  21.771
 9940W        W14008   1.713  11.005  19.051
 9941W        W14009   2.426  11.874  19.910
 9942W        W14010   0.112  13.461  20.242
 9943W        W14011   1.365  11.423  18.883
 9944W        W14012   1.169  12.907  21.732
 9945W        W14013   2.163  11.888  19.446
 9946W        W14014   2.368  13.298  20.568
 9947W        W14015   0.522  13.903  21.003
 9948W        W14016   1.113  13.886  21.726
 9949W        W14017   0.964  11.683  18.740
 9950W        W14018   2.481  11.825  19.065
 9951W        W14019   2.439  13.933  21.302
 9952W        W14020   1.124  12.525  19.901
 9953W        W14021   0.779  14.223  20.766
 9954W        W14022   3.524  14.340  18.367
 9955W        W14023   0.387  13.012  21.363
 9956W        W14024   2.382  13.274  20.051
 9957W        W14025   0.818  12.923  19.293
 9958W        W14026   1.189  13.930  20.688
 9959W        W14027   1.567  11.349  19.729
 9960W        W14028   0.178  13.333  18.659
 9961W        W14029   1.697  12.284  18.529
 9962W        W14030   0.343  12.833  19.548
 9963W        W14031   1.633  11.475  21.012
 9964W        W14032   3.305  11.184  18.439
 9965W        W14033   3.398  12.930  21.538
 9966W        W14034   2.052  14.187  21.690
 9967W        W14035   3.610  13.281  21.212
 9968W        W14036   3.018  14.079  21.823
 9969W        W14037   0.757  14.535  20.301
 9970W        W14038   3.616  13.157  19.175
 9971W        W14039   2.146  12.424  19.688
 9972W        W14040   1.913  11.036  19.578
 9973W        W14041   0.972  14.020  19.415
 9974W        W14042   1.471  11.761  20.640
 9975W        W14043   1.171  11.130  20.109
 9976W        W14044   0.234  13.952  18.657
 9977W        W14045   2.050  13.316  19.375
 9978W        W14046   0.925  14.111  21.254
 9979W        W14047   0.402  12.934  18.950
 9980W        W14048   0.287  11.477  19.949
 9981W        W14049   1.835  13.442  20.006
 9982W        W14050   0.087  11.296  19.026
 9983W        W14051   2.751  12.502  20.953
 9984W        W14052   2.628  11.888  18.525
 9985W        W14053   3.145  13.560  20.173
 9986W        W14054   1.806  14.044  20.004
 9987W        W14055   1.218  14.148  18.915
 9988W        W14056   2.500  11.051  18.345
 9989W        W14057   0.300  14.311  20.086
 9990W        W14058   2.497  12.069  21.721
 9991W        W14059   0.480  11.599  21.720
 9992W        W14060   0.211  12.199  19.053
 9993W        W14061   0.902  12.188  18.778
 9994W        W14062   2.665  12.515  21.595
 9995W        W14063   1.008  12.796  20.304
 9996W        W14064   2.482  11.082  19.424
 9997W        W14065   1.613  14.513  19.927
 9998W        W14066   2.827  13.975  20.864
 9999W        W14067   2.411  14.124  19.975
10000W        W14068   2.430  13.104  19.569
10001W        W14069   1.892  11.329  18.640
10002W        W14070   3.573  10.957  19.362
10003W        W14071   1.261  12.592  18.525
10004W        W14072   3.427  11.929  19.515
10005W        W14073   2.119  13.099  18.392
10006W        W14074   3.055  13.299  21.140
10007W        W14075   2.709  14.000  18.607
10008W        W14076   1.324  11.675  21.513
10009W        W14077   1.144  12.259  20.754
10010W        W14078   3.236  13.754  21.031
10011W        W14079   2.336  11.704  21.408
10012W        W14080   0.180  12.175  21.185
10013W        W14081   1.940  12.652  20.911
10014W        W14082   0.297  13.410  19.568
10015W        W14083   0.444  12.707  20.458
10016W        W14084   2.761  12.993  20.808
10017W        W14085   2.533  14.373  21.619
10018W        W14086   2.429  12.112  21.172
10019W        W14087   2.706  14.166  19.577
10020W        W14088   1.708  13.886  20.900
10021W        W14089   1.193  14.241  20.169
10022W        W14090   2.998  13.412  20.588
10023W        W14091   2.048  13.484  21.725
10024W        W14092   0.653  13.437  20.064
10025W        W14093   2.999  13.196  19.709
10026W        W14094   2.640  14.262  20.460
10027W        W14095   0.618  13.991  20.330
10028W        W14096   1.639  12.043  21.540
10029W        W14097   2.090  14.209  19.051
10030W        W14098   1.398  13.464  21.689
10031W        W14099   1.524  13.702  19.066
10032W        W14100   0.745  12.442  18.325
10033W        W14101   3.165  13.151  22.518
10034W        W14102   1.213  14.227  22.071
10035W        W14103   1.296  12.379  23.054
10036W        W14104   0.811  12.227  23.218
10037W        W14105   1.802  13.042  22.652
10038W        W14106   2.231  12.234  22.229
10039W        W14107   1.788  13.469  22.198
10040W        W14108   0.484  11.308  23.033
10041W        W14109   3.172  11.702  21.984
10042W        W14110   3.378  13.676  22.481
10043W        W14111   0.507  14.462  22.235
10044W        W14112   0.900  14.508  22.911
10045W        W14113   2.725  12.702  23.071
10046W        W14114   2.691  12.390  22.098
10047W        W14115   3.176  12.742  22.853
10048W        W14116   2.078  11.400  22.869
10049W        W14117   0.735  14.094  22.552
10050W        W14118   1.691  14.167  22.410
10051W        W14119   3.083  12.193  21.874
10052W        W14120   1.270  12.883  23.137
10053W        W14121   0.740  12.922  21.995
10054W        W14122   0.395  11.955  22.174
10055W        W14123   0.457  13.911  22.968
10056W        W14124   1.588  13.394  23.216
10057W        W14125   1.846  11.895  22.614
10058W        W14126   0.012  12.645  22.808
10059W        W14127   2.327  12.324  22.759
10060W        W14128   2.204  12.814  22.863
10061W        W14129   2.193  11.708  22.320
10062W        W14130   2.592  11.588  23.101
10063W        W14131   1.383  12.015  22.477
10064W        W14132   3.004  11.783  22.822
10065W        W14133   3.371  12.265  22.767
10066W        W14134   1.040  11.018  22.473
10067W        W14135   3.511  13.801  21.953
10068W        W14136   2.335  11.591  21.885
10069W        W14137   2.046  13.668  22.612
10070W        W14138   2.145  14.235  23.204
10071W        W14139   3.319  13.238  22.048
10072W        W14140   1.754  12.721  23.109
10073W        W14141   2.824  12.251  22.727
10074W        W14142   3.111  11.984  22.369
10075W        W14143   2.920  14.024  22.758
10076W        W14144   2.650  12.706  22.532
10077W        W14145   3.303  11.358  22.999
10078W        W14146   1.489  14.234  22.964
10079W        W14147   0.604  11.414  22.222
10080W        W14148   0.736  14.188  21.880
10081W        W14149   1.110  12.654  22.631
10082W        W14150   1.594  11.641  22.934
10083W        W14151   0.942  11.431  22.886
10084W        W14152   0.947  11.659  21.911
10085W        W14153   1.720  12.795  22.218
10086W        W14154   0.988  11.110  21.988
10087W        W14155   1.726  12.191  23.039
10088W        W14156   0.637  11.703  23.253
10089W        W14157   0.423  14.415  22.929
10090W        W14158   0.790  13.230  22.413
10091W        W14159   2.425  13.462  22.099
10092W        W14160   3.576  11.761  22.695
10093W        W14161   0.054  14.422  22.490
10094W        W14162   1.316  13.715  22.145
10095W        W14163   3.221  14.097  22.331
10096W        W14164   2.196  12.750  22.345
10097W        W14165   1.039  11.941  22.862
10098W        W14166   1.871  11.851  21.914
10099W        W14167   2.808  11.322  22.709
10100W        W14168   0.138  11.170  22.157
10101W        W14169   0.965  13.357  21.937
10102W        W14170   0.206  13.598  22.705
10103W        W14171   1.318  11.138  22.970
10104W        W14172   2.377  11.215  22.475
10105W        W14173   0.481  11.716  22.642
10106W        W14174   3.448  12.607  21.943
10107W        W14175   0.002  11.627  22.180
10108W        W14176   2.013  14.493  22.216
10109W        W14177   0.159  13.000  21.913
10110W        W14178   3.560  12.852  22.403
10111W        W14179   2.423  13.184  22.502
10112W        W14180   2.897  14.484  22.197
10113W        W14181   1.491  11.050  22.156
10114W        W14182   3.030  13.649  22.099
10115W        W14183   2.570  14.386  22.613
10116W        W14184   1.031  13.669  22.598
10117W        W14185   2.786  13.167  22.862
10118W        W14186   1.883  13.855  23.050
10119W        W14187   3.633  12.415  23.231
10120W        W14188   2.157  13.899  22.165
10121W        W14189   1.299  13.144  22.247
10122W        W14190   3.011  14.526  22.966
10123W        W14191   0.267  12.532  22.131
10124W        W14192   3.401  14.190  22.828
10125W        W14193   3.238  11.514  22.447
10126W        W14194   3.112  12.391  23.213
10127W        W14195   0.643  13.719  22.108
10128W        W14196   3.160  13.477  22.918
10129W        W14197   3.537  12.199  22.285
10130W        W14198   1.282  13.256  22.756
10131W        W14199   1.205  12.147  21.995
10132W        W14200   1.416  11.640  22.088
10133W        W14201   0.551  12.456  22.869
10134W        W14202   3.117  12.534  22.414
10135W        W14203   2.648  13.659  23.063
10136W        W14204   3.212  11.047  22.536
10137W        W14205   2.732  13.522  22.547
10138W        W14206   1.634  12.580  22.632
10139W        W14207   2.821  11.384  22.155
10140W        W14208   0.889  13.523  23.197
10141W        W14209   2.652  12.143  23.162
10142W        W14210   0.094  14.250  23.306
10143W        W14211   0.603  13.437  22.842
10144W        W14212   3.392  12.875  23.287
10145W        W14213   2.746  13.052  22.167
10146W        W14214   1.713  11.005  22.696
10147W        W14215   1.365  11.423  22.528
10148W        W14216   2.163  11.888  23.091
10149W        W14217   0.964  11.683  22.385
10150W        W14218   2.481  11.825  22.710
10151W        W14219   3.524  14.340  22.012
10152W        W14220   0.178  13.333  22.304
10153W        W14221   1.697  12.284  22.174
10154W        W14222   0.343  12.833  23.193
10155W        W14223   3.305  11.184  22.084
10156W        W14224   3.616  13.157  22.820
10157W        W14225   1.913  11.036  23.223
10158W        W14226   0.972  14.020  23.060
10159W        W14227   0.234  13.952  22.302
10160W        W14228   2.050  13.316  23.020
10161W        W14229   0.402  12.934  22.595
10162W        W14230   0.087  11.296  22.671
10163W        W14231   2.628  11.888  22.170
10164W        W14232   1.218  14.148  22.560
10165W        W14233   2.500  11.051  21.990
10166W        W14234   0.211  12.199  22.698
10167W        W14235   0.902  12.188  22.423
10168W        W14236   2.430  13.104  23.214
10169W        W14237   1.892  11.329  22.285
10170W        W14238   3.573  10.957  23.007
10171W        W14239   1.261  12.592  22.170
10172W        W14240   3.427  11.929  23.160
10173W        W14241   2.119  13.099  22.037
10174W        W14242   2.709  14.000  22.252
10175W        W14243   0.297  13.410  23.213
10176W        W14244   2.706  14.166  23.222
10177W        W14245   2.090  14.209  22.696
10178W        W14246   1.524  13.702  22.711
10179W        W14247   0.745  12.442  21.970
10180W        W14248   0.084  18.172   3.359
10181W        W14249   0.460  17.065   2.882
10182W        W14250   3.165  16.795   0.652
10183W        W14251   3.295  17.880   2.679
10184W        W14252   1.213  17.871   0.205
10185W        W14253   1.296  16.023   1.188
10186W        W14254   0.811  15.871   1.352
10187W        W14255   1.802  16.686   0.786
10188W        W14256   1.477  17.778   3.141
10189W        W14257   0.126  15.339   3.104
10190W        W14258   0.888  14.619   2.906
10191W        W14259   2.582  15.007   1.793
10192W        W14260   2.231  15.878   0.363
10193W        W14261   2.801  15.312   3.454
10194W        W14262   0.167  15.104   2.579
10195W        W14263   0.266  17.723   3.600
10196W        W14264   1.788  17.113   0.332
10197W        W14265   0.220  15.896   2.025
10198W        W14266   1.113  15.787   3.262
10199W        W14267   3.572  15.646   1.761
10200W        W14268   3.336  16.689   2.620
10201W        W14269   1.644  16.022   1.647
10202W        W14270   2.190  17.361   2.016
10203W        W14271   0.690  16.795   2.248
10204W        W14272   0.049  16.323   1.819
10205W        W14273   1.085  16.295   3.011
10206W        W14274   3.356  16.078   3.265
10207W        W14275   0.972  17.522   1.710
10208W        W14276   2.093  17.211   2.844
10209W        W14277   1.313  15.851   2.069
10210W        W14278   1.605  16.635   1.712
10211W        W14279   2.602  17.408   3.560
10212W        W14280   1.681  16.728   3.570
10213W        W14281   1.662  16.444   3.048
10214W        W14282   0.071  15.835   3.570
10215W        W14283   2.903  17.370   3.169
10216W        W14284   0.484  14.952   1.167
10217W        W14285   1.011  17.210   2.166
10218W        W14286   3.474  16.993   1.456
10219W        W14287   2.887  15.393   2.023
10220W        W14288   3.172  15.346   0.118
10221W        W14289   3.637  16.147   2.424
10222W        W14290   1.604  17.854   2.177
10223W        W14291   3.378  17.320   0.615
10224W        W14292   0.507  18.106   0.369
10225W        W14293   0.900  18.152   1.045
10226W        W14294   0.697  14.906   2.471
10227W        W14295   3.320  15.924   2.746
10228W        W14296   2.725  16.346   1.205
10229W        W14297   2.691  16.034   0.232
10230W        W14298   1.899  17.178   2.372
10231W        W14299   1.705  15.508   1.571
10232W        W14300   2.305  17.595   2.565
10233W        W14301   3.176  16.386   0.987
10234W        W14302   2.078  15.044   1.003
10235W        W14303   0.735  17.738   0.686
10236W        W14304   0.106  15.237   1.285
10237W        W14305   2.892  15.844   1.759
10238W        W14306   0.350  17.461   1.674
10239W        W14307   1.691  17.811   0.544
10240W        W14308   3.083  15.837   0.008
10241W        W14309   0.106  17.595   2.172
10242W        W14310   0.897  17.167   2.652
10243W        W14311   1.270  16.527   1.271
10244W        W14312   1.292  14.932   2.364
10245W        W14313   3.521  14.694   1.661
10246W        W14314   0.740  16.566   0.129
10247W        W14315   0.395  15.599   0.308
10248W        W14316   0.457  17.555   1.102
10249W        W14317   1.588  17.038   1.350
10250W        W14318   2.920  17.897   3.064
10251W        W14319   1.846  15.539   0.748
10252W        W14320   3.229  17.937   1.520
10253W        W14321   2.906  15.790   3.118
10254W        W14322   3.619  17.446   1.252
10255W        W14323   2.246  16.738   2.736
10256W        W14324   0.012  16.289   0.942
10257W        W14325   1.123  16.704   2.515
10258W        W14326   2.327  15.968   0.893
10259W        W14327   2.204  16.458   0.997
10260W        W14328   0.547  15.878   2.471
10261W        W14329   0.532  15.754   3.393
10262W        W14330   0.422  14.671   1.552
10263W        W14331   2.190  15.018   2.113
10264W        W14332   1.838  15.203   3.276
10265W        W14333   2.193  15.352   0.454
10266W        W14334   3.376  17.745   3.208
10267W        W14335   2.343  14.826   3.247
10268W        W14336   3.362  17.127   3.369
10269W        W14337   2.792  15.294   2.965
10270W        W14338   2.592  15.232   1.235
10271W        W14339   2.985  16.366   3.639
10272W        W14340   0.725  17.942   1.625
10273W        W14341   1.383  15.659   0.611
10274W        W14342   0.952  14.943   3.275
10275W        W14343   3.004  15.427   0.956
10276W        W14344   3.371  15.909   0.901
10277W        W14345   1.114  18.126   3.372
10278W        W14346   1.040  14.662   0.607
10279W        W14347   3.361  15.196   1.642
10280W        W14348   3.511  17.445   0.087
10281W        W14349   0.418  16.648   1.789
10282W        W14350   2.335  15.235   0.019
10283W        W14351   3.469  17.567   1.739
10284W        W14352   3.508  14.761   2.489
10285W        W14353   1.953  15.973   3.043
10286W        W14354   2.046  17.312   0.746
10287W        W14355   2.446  16.606   3.486
10288W        W14356   2.120  14.583   1.795
10289W        W14357   0.732  15.486   1.858
10290W        W14358   0.286  16.686   2.632
10291W        W14359   2.145  17.879   1.338
10292W        W14360   3.339  15.476   2.210
10293W        W14361   1.976  17.823   2.977
10294W        W14362   3.319  16.882   0.182
10295W        W14363   1.754  16.365   1.243
10296W        W14364   3.606  14.876   2.984
10297W        W14365   1.755  16.711   2.578
10298W        W14366   1.972  15.597   2.023
10299W        W14367   2.824  15.895   0.861
10300W        W14368   3.111  15.628   0.503
10301W        W14369   2.920  17.668   0.892
10302W        W14370   2.754  17.271   1.688
10303W        W14371   2.650  16.350   0.666
10304W        W14372   2.083  16.560   1.652
10305W        W14373   2.964  16.348   1.719
10306W        W14374   0.339  15.363   2.143
10307W        W14375   3.117  16.415   2.970
10308W        W14376   3.468  18.033   2.116
10309W        W14377   1.398  17.477   1.518
10310W        W14378   2.405  18.010   2.842
10311W        W14379   2.399  15.340   2.606
10312W        W14380   1.606  18.048   2.667
10313W        W14381   3.303  15.002   1.133
10314W        W14382   3.094  16.321   2.434
10315W        W14383   0.077  15.642   2.472
10316W        W14384   2.937  15.437   1.490
10317W        W14385   3.348  15.588   3.267
10318W        W14386   2.233  17.287   1.485
10319W        W14387   1.489  17.878   1.098
10320W        W14388   0.604  15.058   0.356
10321W        W14389   1.708  14.712   2.166
10322W        W14390   0.736  17.832   0.014
10323W        W14391   1.110  16.298   0.765
10324W        W14392   1.764  16.927   3.078
10325W        W14393   1.594  15.285   1.068
10326W        W14394   2.950  14.882   1.496
10327W        W14395   2.670  18.164   1.824
10328W        W14396   2.082  17.812   2.164
10329W        W14397   1.478  16.849   2.125
10330W        W14398   3.248  17.572   2.251
10331W        W14399   0.942  15.075   1.020
10332W        W14400   1.464  17.372   1.980
10333W        W14401   0.947  15.303   0.045
10334W        W14402   1.748  15.912   2.439
10335W        W14403   2.596  14.778   2.309
10336W        W14404   0.016  16.621   2.194
10337W        W14405   1.720  16.439   0.352
10338W        W14406   0.988  14.754   0.122
10339W        W14407   1.726  15.835   1.173
10340W        W14408   2.696  14.811   2.872
10341W        W14409   1.284  16.823   2.981
10342W        W14410   2.088  16.605   3.198
10343W        W14411   2.705  16.635   3.091
10344W        W14412   1.989  14.775   3.596
10345W        W14413   1.211  15.391   1.989
10346W        W14414   0.637  15.347   1.387
10347W        W14415   0.423  18.059   1.063
10348W        W14416   1.755  17.389   3.188
10349W        W14417   0.790  16.874   0.547
10350W        W14418   2.470  16.259   1.768
10351W        W14419   2.750  16.058   2.167
10352W        W14420   1.955  16.732   2.101
10353W        W14421   2.425  17.106   0.233
10354W        W14422   2.097  15.127   1.561
10355W        W14423   3.576  15.405   0.829
10356W        W14424   0.070  17.994   2.860
10357W        W14425   0.487  17.220   2.392
10358W        W14426   0.054  18.066   0.624
10359W        W14427   1.953  15.336   2.430
10360W        W14428   1.316  17.359   0.279
10361W        W14429   3.221  17.741   0.465
10362W        W14430   2.196  16.394   0.479
10363W        W14431   1.039  15.585   0.996
10364W        W14432   1.871  15.495   0.048
10365W        W14433   2.455  17.060   3.226
10366W        W14434   2.808  14.966   0.843
10367W        W14435   0.138  14.814   0.291
10368W        W14436   1.424  17.133   2.581
10369W        W14437   1.223  17.049   1.673
10370W        W14438   0.965  17.001   0.071
10371W        W14439   0.206  17.242   0.839
10372W        W14440   0.710  16.312   3.281
10373W        W14441   1.414  14.872   3.467
10374W        W14442   2.123  15.014   2.823
10375W        W14443   1.318  14.782   1.104
10376W        W14444   2.377  14.859   0.609
10377W        W14445   0.322  14.791   2.186
10378W        W14446   0.370  15.754   1.556
10379W        W14447   3.059  14.862   1.962
10380W        W14448   0.481  15.360   0.776
10381W        W14449   3.052  15.048   2.392
10382W        W14450   3.448  16.251   0.077
10383W        W14451   0.740  15.009   1.896
10384W        W14452   1.854  15.581   2.836
10385W        W14453   0.002  15.271   0.314
10386W        W14454   0.788  16.660   2.875
10387W        W14455   2.146  16.058   2.054
10388W        W14456   2.013  18.137   0.350
10389W        W14457   0.159  16.644   0.047
10390W        W14458   0.894  17.055   3.173
10391W        W14459   0.415  16.222   2.804
10392W        W14460   1.406  16.327   2.598
10393W        W14461   3.174  14.686   2.860
10394W        W14462   3.572  16.296   2.851
10395W        W14463   3.560  16.496   0.537
10396W        W14464   2.423  16.828   0.636
10397W        W14465   2.897  18.128   0.331
10398W        W14466   2.074  16.118   3.473
10399W        W14467   0.404  17.085   3.513
10400W        W14468   3.610  15.007   3.465
10401W        W14469   3.328  15.935   2.086
10402W        W14470   1.636  18.065   3.563
10403W        W14471   1.491  14.694   0.290
10404W        W14472   3.030  17.293   0.233
10405W        W14473   0.799  15.386   3.119
10406W        W14474   1.233  17.380   2.981
10407W        W14475   3.359  15.371   2.779
10408W        W14476   2.570  18.030   0.747
10409W        W14477   2.809  16.649   2.114
10410W        W14478   1.059  15.065   2.781
10411W        W14479   1.528  16.134   3.538
10412W        W14480   1.031  17.313   0.732
10413W        W14481   2.786  16.811   0.996
10414W        W14482   0.554  15.437   2.720
10415W        W14483   1.883  17.499   1.184
10416W        W14484   3.633  16.059   1.365
10417W        W14485   1.855  14.692   3.084
10418W        W14486   2.635  17.397   2.163
10419W        W14487   2.938  17.741   1.871
10420W        W14488   2.157  17.543   0.299
10421W        W14489   0.167  17.435   3.141
10422W        W14490   0.910  15.427   2.379
10423W        W14491   0.880  14.775   1.489
10424W        W14492   2.501  15.617   2.181
10425W        W14493   1.299  16.788   0.381
10426W        W14494   3.297  16.730   1.880
10427W        W14495   0.624  17.488   3.303
10428W        W14496   3.011  18.170   1.100
10429W        W14497   1.110  15.190   1.545
10430W        W14498   0.879  16.683   1.635
10431W        W14499   1.192  18.094   2.385
10432W        W14500   3.259  18.190   3.417
10433W        W14501   2.418  16.378   2.350
10434W        W14502   0.267  16.176   0.265
10435W        W14503   3.401  17.834   0.962
10436W        W14504   3.238  15.158   0.581
10437W        W14505   1.377  14.677   2.984
10438W        W14506   3.083  17.479   1.442
10439W        W14507   3.112  16.035   1.347
10440W        W14508   1.229  15.708   1.563
10441W        W14509   1.474  15.970   2.887
10442W        W14510   2.585  17.123   2.750
10443W        W14511   1.235  15.577   2.862
10444W        W14512   1.214  18.043   1.478
10445W        W14513   0.531  18.002   3.112
10446W        W14514   0.643  17.363   0.242
10447W        W14515   3.160  17.121   1.052
10448W        W14516   0.764  15.913   2.938
10449W        W14517   3.537  15.843   0.419
10450W        W14518   1.282  16.900   0.890
10451W        W14519   2.381  16.282   2.971
10452W        W14520   2.272  15.910   2.515
10453W        W14521   0.832  16.282   2.544
10454W        W14522   3.042  18.170   2.373
10455W        W14523   2.833  14.804   3.367
10456W        W14524   0.497  14.954   2.954
10457W        W14525   0.836  15.977   2.007
10458W        W14526   1.205  15.791   0.129
10459W        W14527   0.008  17.550   2.674
10460W        W14528   1.593  16.259   2.117
10461W        W14529   1.416  15.284   0.222
10462W        W14530   0.551  16.100   1.003
10463W        W14531   0.322  17.952   2.440
10464W        W14532   3.117  16.178   0.548
10465W        W14533   3.212  15.094   3.234
10466W        W14534   2.648  17.303   1.197
10467W        W14535   0.246  16.227   3.374
10468W        W14536   3.212  14.691   0.670
10469W        W14537   2.732  17.166   0.681
10470W        W14538   1.634  16.224   0.766
10471W        W14539   2.821  15.028   0.289
10472W        W14540   2.886  15.635   2.475
10473W        W14541   0.595  16.228   1.682
10474W        W14542   0.889  17.167   1.331
10475W        W14543   2.652  15.787   1.296
10476W        W14544   1.675  15.166   1.992
10477W        W14545   3.637  17.077   2.503
10478W        W14546   3.555  15.064   2.064
10479W        W14547   0.094  17.894   1.440
10480W        W14548   0.603  17.081   0.976
10481W        W14549   0.518  14.698   3.529
10482W        W14550   1.637  17.551   3.631
10483W        W14551   3.392  16.519   1.421
10484W        W14552   2.746  16.696   0.301
10485W        W14553   2.041  18.217   2.513
10486W        W14554   2.898  16.939   3.550
10487W        W14555   1.713  14.649   0.830
10488W        W14556   2.426  15.518   1.689
10489W        W14557   0.112  17.105   2.021
10490W        W14558   1.365  15.067   0.662
10491W        W14559   1.169  16.551   3.511
10492W        W14560   2.163  15.532   1.225
10493W        W14561   2.368  16.942   2.347
10494W        W14562   0.522  17.547   2.782
10495W        W14563   1.113  17.530   3.505
10496W        W14564   0.964  15.327   0.519
10497W        W14565   2.481  15.469   0.844
10498W        W14566   2.439  17.577   3.081
10499W        W14567   1.124  16.169   1.680
10500W        W14568   0.779  17.867   2.545
10501W        W14569   3.524  17.984   0.146
10502W        W14570   0.387  16.656   3.142
10503W        W14571   2.382  16.918   1.830
10504W        W14572   0.818  16.567   1.072
10505W        W14573   1.189  17.574   2.467
10506W        W14574   1.567  14.993   1.508
10507W        W14575   0.178  16.977   0.438
10508W        W14576   1.697  15.928   0.308
10509W        W14577   0.343  16.477   1.327
10510W        W14578   1.633  15.119   2.791
10511W        W14579   3.305  14.828   0.218
10512W        W14580   3.398  16.574   3.317
10513W        W14581   2.052  17.831   3.469
10514W        W14582   3.610  16.925   2.991
10515W        W14583   3.018  17.723   3.602
10516W        W14584   0.757  18.179   2.080
10517W        W14585   3.616  16.801   0.954
10518W        W14586   2.146  16.068   1.467
10519W        W14587   1.913  14.680   1.357
10520W        W14588   0.972  17.664   1.194
10521W        W14589   1.471  15.405   2.419
10522W        W14590   1.171  14.774   1.888
10523W        W14591   0.234  17.596   0.436
10524W        W14592   2.050  16.960   1.154
10525W        W14593   0.925  17.755   3.033
10526W        W14594   0.402  16.578   0.729
10527W        W14595   0.287  15.121   1.728
10528W        W14596   1.835  17.086   1.785
10529W        W14597   0.087  14.940   0.805
10530W        W14598   2.751  16.146   2.732
10531W        W14599   2.628  15.532   0.304
10532W        W14600   3.145  17.204   1.952
10533W        W14601   1.806  17.688   1.783
10534W        W14602   1.218  17.792   0.694
10535W        W14603   2.500  14.695   0.124
10536W        W14604   0.300  17.955   1.865
10537W        W14605   2.497  15.713   3.500
10538W        W14606   0.480  15.243   3.499
10539W        W14607   0.211  15.843   0.832
10540W        W14608   0.902  15.832   0.557
10541W        W14609   2.665  16.159   3.374
10542W        W14610   1.008  16.440   2.083
10543W        W14611   2.482  14.726   1.203
10544W        W14612   1.613  18.157   1.706
10545W        W14613   2.827  17.619   2.643
10546W        W14614   2.411  17.768   1.754
10547W        W14615   2.430  16.748   1.348
10548W        W14616   1.892  14.973   0.419
10549W        W14617   3.573  14.601   1.141
10550W        W14618   1.261  16.236   0.304
10551W        W14619   3.427  15.573   1.294
10552W        W14620   2.119  16.743   0.171
10553W        W14621   3.055  16.943   2.919
10554W        W14622   2.709  17.644   0.386
10555W        W14623   1.324  15.319   3.292
10556W        W14624   1.144  15.903   2.533
10557W        W14625   3.236  17.398   2.810
10558W        W14626   2.336  15.348   3.187
10559W        W14627   0.180  15.819   2.964
10560W        W14628   1.940  16.296   2.690
10561W        W14629   0.297  17.054   1.347
10562W        W14630   0.444  16.351   2.237
10563W        W14631   2.761  16.637   2.587
10564W        W14632   2.533  18.017   3.398
10565W        W14633   2.429  15.756   2.951
10566W        W14634   2.706  17.810   1.356
10567W        W14635   1.708  17.530   2.679
10568W        W14636   1.193  17.885   1.948
10569W        W14637   2.998  17.056   2.367
10570W        W14638   2.048  17.128   3.504
10571W        W14639   0.653  17.081   1.843
10572W        W14640   2.999  16.840   1.488
10573W        W14641   2.640  17.906   2.239
10574W        W14642   0.618  17.635   2.109
10575W        W14643   1.639  15.687   3.319
10576W        W14644   2.090  17.853   0.830
10577W        W14645   1.398  17.108   3.468
10578W        W14646   1.524  17.346   0.845
10579W        W14647   0.745  16.086   0.104
10580W        W14648   0.084  18.172   7.003
10581W        W14649   0.460  17.065   6.526
10582W        W14650   3.165  16.795   4.296
10583W        W14651   3.295  17.880   6.323
10584W        W14652   1.213  17.871   3.849
10585W        W14653   1.296  16.023   4.832
10586W        W14654   0.811  15.871   4.996
10587W        W14655   1.802  16.686   4.430
10588W        W14656   1.477  17.778   6.785
10589W        W14657   0.126  15.339   6.748
10590W        W14658   0.888  14.619   6.550
10591W        W14659   2.582  15.007   5.437
10592W        W14660   2.231  15.878   4.007
10593W        W14661   2.801  15.312   7.098
10594W        W14662   0.167  15.104   6.223
10595W        W14663   0.266  17.723   7.244
10596W        W14664   1.788  17.113   3.976
10597W        W14665   0.220  15.896   5.669
10598W        W14666   1.113  15.787   6.906
10599W        W14667   3.572  15.646   5.405
10600W        W14668   3.336  16.689   6.264
10601W        W14669   1.644  16.022   5.291
10602W        W14670   2.190  17.361   5.660
10603W        W14671   0.690  16.795   5.892
10604W        W14672   0.049  16.323   5.463
10605W        W14673   1.085  16.295   6.655
10606W        W14674   3.356  16.078   6.909
10607W        W14675   0.972  17.522   5.354
10608W        W14676   2.093  17.211   6.488
10609W        W14677   1.313  15.851   5.713
10610W        W14678   1.605  16.635   5.356
10611W        W14679   2.602  17.408   7.204
10612W        W14680   1.681  16.728   7.214
10613W        W14681   1.662  16.444   6.692
10614W        W14682   0.071  15.835   7.214
10615W        W14683   2.903  17.370   6.813
10616W        W14684   0.484  14.952   4.811
10617W        W14685   1.011  17.210   5.810
10618W        W14686   3.474  16.993   5.100
10619W        W14687   2.887  15.393   5.667
10620W        W14688   3.172  15.346   3.762
10621W        W14689   3.637  16.147   6.068
10622W        W14690   1.604  17.854   5.821
10623W        W14691   3.378  17.320   4.259
10624W        W14692   0.507  18.106   4.013
10625W        W14693   0.900  18.152   4.689
10626W        W14694   0.697  14.906   6.115
10627W        W14695   3.320  15.924   6.390
10628W        W14696   2.725  16.346   4.849
10629W        W14697   2.691  16.034   3.876
10630W        W14698   1.899  17.178   6.016
10631W        W14699   1.705  15.508   5.215
10632W        W14700   2.305  17.595   6.209
10633W        W14701   3.176  16.386   4.631
10634W        W14702   2.078  15.044   4.647
10635W        W14703   0.735  17.738   4.330
10636W        W14704   0.106  15.237   4.929
10637W        W14705   2.892  15.844   5.403
10638W        W14706   0.350  17.461   5.318
10639W        W14707   1.691  17.811   4.188
10640W        W14708   3.083  15.837   3.652
10641W        W14709   0.106  17.595   5.816
10642W        W14710   0.897  17.167   6.296
10643W        W14711   1.270  16.527   4.915
10644W        W14712   1.292  14.932   6.008
10645W        W14713   3.521  14.694   5.305
10646W        W14714   0.740  16.566   3.773
10647W        W14715   0.395  15.599   3.952
10648W        W14716   0.457  17.555   4.746
10649W        W14717   1.588  17.038   4.994
10650W        W14718   2.920  17.897   6.708
10651W        W14719   1.846  15.539   4.392
10652W        W14720   3.229  17.937   5.164
10653W        W14721   2.906  15.790   6.762
10654W        W14722   3.619  17.446   4.896
10655W        W14723   2.246  16.738   6.380
10656W        W14724   0.012  16.289   4.586
10657W        W14725   1.123  16.704   6.159
10658W        W14726   2.327  15.968   4.537
10659W        W14727   2.204  16.458   4.641
10660W        W14728   0.547  15.878   6.115
10661W        W14729   0.532  15.754   7.037
10662W        W14730   0.422  14.671   5.196
10663W        W14731   2.190  15.018   5.757
10664W        W14732   1.838  15.203   6.920
10665W        W14733   2.193  15.352   4.098
10666W        W14734   3.376  17.745   6.852
10667W        W14735   2.343  14.826   6.891
10668W        W14736   3.362  17.127   7.013
10669W        W14737   2.792  15.294   6.609
10670W        W14738   2.592  15.232   4.879
10671W        W14739   2.985  16.366   7.283
10672W        W14740   0.725  17.942   5.269
10673W        W14741   1.383  15.659   4.255
10674W        W14742   0.952  14.943   6.919
10675W        W14743   3.004  15.427   4.600
10676W        W14744   3.371  15.909   4.545
10677W        W14745   1.114  18.126   7.016
10678W        W14746   1.040  14.662   4.251
10679W        W14747   3.361  15.196   5.286
10680W        W14748   3.511  17.445   3.731
10681W        W14749   0.418  16.648   5.433
10682W        W14750   2.335  15.235   3.663
10683W        W14751   3.469  17.567   5.383
10684W        W14752   3.508  14.761   6.133
10685W        W14753   1.953  15.973   6.687
10686W        W14754   2.046  17.312   4.390
10687W        W14755   2.446  16.606   7.130
10688W        W14756   2.120  14.583   5.439
10689W        W14757   0.732  15.486   5.502
10690W        W14758   0.286  16.686   6.276
10691W        W14759   2.145  17.879   4.982
10692W        W14760   3.339  15.476   5.854
10693W        W14761   1.976  17.823   6.621
10694W        W14762   3.319  16.882   3.826
10695W        W14763   1.754  16.365   4.887
10696W        W14764   3.606  14.876   6.628
10697W        W14765   1.755  16.711   6.222
10698W        W14766   1.972  15.597   5.667
10699W        W14767   2.824  15.895   4.505
10700W        W14768   3.111  15.628   4.147
10701W        W14769   2.920  17.668   4.536
10702W        W14770   2.754  17.271   5.332
10703W        W14771   2.650  16.350   4.310
10704W        W14772   2.083  16.560   5.296
10705W        W14773   2.964  16.348   5.363
10706W        W14774   0.339  15.363   5.787
10707W        W14775   3.117  16.415   6.614
10708W        W14776   3.468  18.033   5.760
10709W        W14777   1.398  17.477   5.162
10710W        W14778   2.405  18.010   6.486
10711W        W14779   2.399  15.340   6.250
10712W        W14780   1.606  18.048   6.311
10713W        W14781   3.303  15.002   4.777
10714W        W14782   3.094  16.321   6.078
10715W        W14783   0.077  15.642   6.116
10716W        W14784   2.937  15.437   5.134
10717W        W14785   3.348  15.588   6.911
10718W        W14786   2.233  17.287   5.129
10719W        W14787   1.489  17.878   4.742
10720W        W14788   0.604  15.058   4.000
10721W        W14789   1.708  14.712   5.810
10722W        W14790   0.736  17.832   3.658
10723W        W14791   1.110  16.298   4.409
10724W        W14792   1.764  16.927   6.722
10725W        W14793   1.594  15.285   4.712
10726W        W14794   2.950  14.882   5.140
10727W        W14795   2.670  18.164   5.468
10728W        W14796   2.082  17.812   5.808
10729W        W14797   1.478  16.849   5.769
10730W        W14798   3.248  17.572   5.895
10731W        W14799   0.942  15.075   4.664
10732W        W14800   1.464  17.372   5.624
10733W        W14801   0.947  15.303   3.689
10734W        W14802   1.748  15.912   6.083
10735W        W14803   2.596  14.778   5.953
10736W        W14804   0.016  16.621   5.838
10737W        W14805   1.720  16.439   3.996
10738W        W14806   0.988  14.754   3.766
10739W        W14807   1.726  15.835   4.817
10740W        W14808   2.696  14.811   6.516
10741W        W14809   1.284  16.823   6.625
10742W        W14810   2.088  16.605   6.842
10743W        W14811   2.705  16.635   6.735
10744W        W14812   1.989  14.775   7.240
10745W        W14813   1.211  15.391   5.633
10746W        W14814   0.637  15.347   5.031
10747W        W14815   0.423  18.059   4.707
10748W        W14816   1.755  17.389   6.832
10749W        W14817   0.790  16.874   4.191
10750W        W14818   2.470  16.259   5.412
10751W        W14819   2.750  16.058   5.811
10752W        W14820   1.955  16.732   5.745
10753W        W14821   2.425  17.106   3.877
10754W        W14822   2.097  15.127   5.205
10755W        W14823   3.576  15.405   4.473
10756W        W14824   0.070  17.994   6.504
10757W        W14825   0.487  17.220   6.036
10758W        W14826   0.054  18.066   4.268
10759W        W14827   1.953  15.336   6.074
10760W        W14828   1.316  17.359   3.923
10761W        W14829   3.221  17.741   4.109
10762W        W14830   2.196  16.394   4.123
10763W        W14831   1.039  15.585   4.640
10764W        W14832   1.871  15.495   3.692
10765W        W14833   2.455  17.060   6.870
10766W        W14834   2.808  14.966   4.487
10767W        W14835   0.138  14.814   3.935
10768W        W14836   1.424  17.133   6.225
10769W        W14837   1.223  17.049   5.317
10770W        W14838   0.965  17.001   3.715
10771W        W14839   0.206  17.242   4.483
10772W        W14840   0.710  16.312   6.925
10773W        W14841   1.414  14.872   7.111
10774W        W14842   2.123  15.014   6.467
10775W        W14843   1.318  14.782   4.748
10776W        W14844   2.377  14.859   4.253
10777W        W14845   0.322  14.791   5.830
10778W        W14846   0.370  15.754   5.200
10779W        W14847   3.059  14.862   5.606
10780W        W14848   0.481  15.360   4.420
10781W        W14849   3.052  15.048   6.036
10782W        W14850   3.448  16.251   3.721
10783W        W14851   0.740  15.009   5.540
10784W        W14852   1.854  15.581   6.480
10785W        W14853   0.002  15.271   3.958
10786W        W14854   0.788  16.660   6.519
10787W        W14855   2.146  16.058   5.698
10788W        W14856   2.013  18.137   3.994
10789W        W14857   0.159  16.644   3.691
10790W        W14858   0.894  17.055   6.817
10791W        W14859   0.415  16.222   6.448
10792W        W14860   1.406  16.327   6.242
10793W        W14861   3.174  14.686   6.504
10794W        W14862   3.572  16.296   6.495
10795W        W14863   3.560  16.496   4.181
10796W        W14864   2.423  16.828   4.280
10797W        W14865   2.897  18.128   3.975
10798W        W14866   2.074  16.118   7.117
10799W        W14867   0.404  17.085   7.157
10800W        W14868   3.610  15.007   7.109
10801W        W14869   3.328  15.935   5.730
10802W        W14870   1.636  18.065   7.207
10803W        W14871   1.491  14.694   3.934
10804W        W14872   3.030  17.293   3.877
10805W        W14873   0.799  15.386   6.763
10806W        W14874   1.233  17.380   6.625
10807W        W14875   3.359  15.371   6.423
10808W        W14876   2.570  18.030   4.391
10809W        W14877   2.809  16.649   5.758
10810W        W14878   1.059  15.065   6.425
10811W        W14879   1.528  16.134   7.182
10812W        W14880   1.031  17.313   4.376
10813W        W14881   2.786  16.811   4.640
10814W        W14882   0.554  15.437   6.364
10815W        W14883   1.883  17.499   4.828
10816W        W14884   3.633  16.059   5.009
10817W        W14885   1.855  14.692   6.728
10818W        W14886   2.635  17.397   5.807
10819W        W14887   2.938  17.741   5.515
10820W        W14888   2.157  17.543   3.943
10821W        W14889   0.167  17.435   6.785
10822W        W14890   0.910  15.427   6.023
10823W        W14891   0.880  14.775   5.133
10824W        W14892   2.501  15.617   5.825
10825W        W14893   1.299  16.788   4.025
10826W        W14894   3.297  16.730   5.524
10827W        W14895   0.624  17.488   6.947
10828W        W14896   3.011  18.170   4.744
10829W        W14897   1.110  15.190   5.189
10830W        W14898   0.879  16.683   5.279
10831W        W14899   1.192  18.094   6.029
10832W        W14900   3.259  18.190   7.061
10833W        W14901   2.418  16.378   5.994
10834W        W14902   0.267  16.176   3.909
10835W        W14903   3.401  17.834   4.606
10836W        W14904   3.238  15.158   4.225
10837W        W14905   1.377  14.677   6.628
10838W        W14906   3.083  17.479   5.086
10839W        W14907   3.112  16.035   4.991
10840W        W14908   1.229  15.708   5.207
10841W        W14909   1.474  15.970   6.531
10842W        W14910   2.585  17.123   6.394
10843W        W14911   1.235  15.577   6.506
10844W        W14912   1.214  18.043   5.122
10845W        W14913   0.531  18.002   6.756
10846W        W14914   0.643  17.363   3.886
10847W        W14915   3.160  17.121   4.696
10848W        W14916   0.764  15.913   6.582
10849W        W14917   3.537  15.843   4.063
10850W        W14918   1.282  16.900   4.534
10851W        W14919   2.381  16.282   6.615
10852W        W14920   2.272  15.910   6.159
10853W        W14921   0.832  16.282   6.188
10854W        W14922   3.042  18.170   6.017
10855W        W14923   2.833  14.804   7.011
10856W        W14924   0.497  14.954   6.598
10857W        W14925   0.836  15.977   5.651
10858W        W14926   1.205  15.791   3.773
10859W        W14927   0.008  17.550   6.318
10860W        W14928   1.593  16.259   5.761
10861W        W14929   1.416  15.284   3.866
10862W        W14930   0.551  16.100   4.647
10863W        W14931   0.322  17.952   6.084
10864W        W14932   3.117  16.178   4.192
10865W        W14933   3.212  15.094   6.878
10866W        W14934   2.648  17.303   4.841
10867W        W14935   0.246  16.227   7.018
10868W        W14936   3.212  14.691   4.314
10869W        W14937   2.732  17.166   4.325
10870W        W14938   1.634  16.224   4.410
10871W        W14939   2.821  15.028   3.933
10872W        W14940   2.886  15.635   6.119
10873W        W14941   0.595  16.228   5.326
10874W        W14942   0.889  17.167   4.975
10875W        W14943   2.652  15.787   4.940
10876W        W14944   1.675  15.166   5.636
10877W        W14945   3.637  17.077   6.147
10878W        W14946   3.555  15.064   5.708
10879W        W14947   0.094  17.894   5.084
10880W        W14948   0.603  17.081   4.620
10881W        W14949   0.518  14.698   7.173
10882W        W14950   1.637  17.551   7.275
10883W        W14951   3.392  16.519   5.065
10884W        W14952   2.746  16.696   3.945
10885W        W14953   2.041  18.217   6.157
10886W        W14954   2.898  16.939   7.194
10887W        W14955   1.713  14.649   4.474
10888W        W14956   2.426  15.518   5.333
10889W        W14957   0.112  17.105   5.665
10890W        W14958   1.365  15.067   4.306
10891W        W14959   1.169  16.551   7.155
10892W        W14960   2.163  15.532   4.869
10893W        W14961   2.368  16.942   5.991
10894W        W14962   0.522  17.547   6.426
10895W        W14963   1.113  17.530   7.149
10896W        W14964   0.964  15.327   4.163
10897W        W14965   2.481  15.469   4.488
10898W        W14966   2.439  17.577   6.725
10899W        W14967   1.124  16.169   5.324
10900W        W14968   0.779  17.867   6.189
10901W        W14969   3.524  17.984   3.790
10902W        W14970   0.387  16.656   6.786
10903W        W14971   2.382  16.918   5.474
10904W        W14972   0.818  16.567   4.716
10905W        W14973   1.189  17.574   6.111
10906W        W14974   1.567  14.993   5.152
10907W        W14975   0.178  16.977   4.082
10908W        W14976   1.697  15.928   3.952
10909W        W14977   0.343  16.477   4.971
10910W        W14978   1.633  15.119   6.435
10911W        W14979   3.305  14.828   3.862
10912W        W14980   3.398  16.574   6.961
10913W        W14981   2.052  17.831   7.113
10914W        W14982   3.610  16.925   6.635
10915W        W14983   3.018  17.723   7.246
10916W        W14984   0.757  18.179   5.724
10917W        W14985   3.616  16.801   4.598
10918W        W14986   2.146  16.068   5.111
10919W        W14987   1.913  14.680   5.001
10920W        W14988   0.972  17.664   4.838
10921W        W14989   1.471  15.405   6.063
10922W        W14990   1.171  14.774   5.532
10923W        W14991   0.234  17.596   4.080
10924W        W14992   2.050  16.960   4.798
10925W        W14993   0.925  17.755   6.677
10926W        W14994   0.402  16.578   4.373
10927W        W14995   0.287  15.121   5.372
10928W        W14996   1.835  17.086   5.429
10929W        W14997   0.087  14.940   4.449
10930W        W14998   2.751  16.146   6.376
10931W        W14999   2.628  15.532   3.948
10932W        W15000   3.145  17.204   5.596
10933W        W15001   1.806  17.688   5.427
10934W        W15002   1.218  17.792   4.338
10935W        W15003   2.500  14.695   3.768
10936W        W15004   0.300  17.955   5.509
10937W        W15005   2.497  15.713   7.144
10938W        W15006   0.480  15.243   7.143
10939W        W15007   0.211  15.843   4.476
10940W        W15008   0.902  15.832   4.201
10941W        W15009   2.665  16.159   7.018
10942W        W15010   1.008  16.440   5.727
10943W        W15011   2.482  14.726   4.847
10944W        W15012   1.613  18.157   5.350
10945W        W15013   2.827  17.619   6.287
10946W        W15014   2.411  17.768   5.398
10947W        W15015   2.430  16.748   4.992
10948W        W15016   1.892  14.973   4.063
10949W        W15017   3.573  14.601   4.785
10950W        W15018   1.261  16.236   3.948
10951W        W15019   3.427  15.573   4.938
10952W        W15020   2.119  16.743   3.815
10953W        W15021   3.055  16.943   6.563
10954W        W15022   2.709  17.644   4.030
10955W        W15023   1.324  15.319   6.936
10956W        W15024   1.144  15.903   6.177
10957W        W15025   3.236  17.398   6.454
10958W        W15026   2.336  15.348   6.831
10959W        W15027   0.180  15.819   6.608
10960W        W15028   1.940  16.296   6.334
10961W        W15029   0.297  17.054   4.991
10962W        W15030   0.444  16.351   5.881
10963W        W15031   2.761  16.637   6.231
10964W        W15032   2.533  18.017   7.042
10965W        W15033   2.429  15.756   6.595
10966W        W15034   2.706  17.810   5.000
10967W        W15035   1.708  17.530   6.323
10968W        W15036   1.193  17.885   5.592
10969W        W15037   2.998  17.056   6.011
10970W        W15038   2.048  17.128   7.148
10971W        W15039   0.653  17.081   5.487
10972W        W15040   2.999  16.840   5.132
10973W        W15041   2.640  17.906   5.883
10974W        W15042   0.618  17.635   5.753
10975W        W15043   1.639  15.687   6.963
10976W        W15044   2.090  17.853   4.474
10977W        W15045   1.398  17.108   7.112
10978W        W15046   1.524  17.346   4.489
10979W        W15047   0.745  16.086   3.748
10980W        W15048   0.084  18.172  10.648
10981W        W15049   0.460  17.065  10.171
10982W        W15050   3.165  16.795   7.941
10983W        W15051   3.295  17.880   9.968
10984W        W15052   1.213  17.871   7.494
10985W        W15053   1.296  16.023   8.477
10986W        W15054   0.811  15.871   8.641
10987W        W15055   1.802  16.686   8.075
10988W        W15056   1.477  17.778  10.430
10989W        W15057   0.126  15.339  10.393
10990W        W15058   0.888  14.619  10.195
10991W        W15059   2.582  15.007   9.082
10992W        W15060   2.231  15.878   7.652
10993W        W15061   2.801  15.312  10.743
10994W        W15062   0.167  15.104   9.868
10995W        W15063   0.266  17.723  10.889
10996W        W15064   1.788  17.113   7.621
10997W        W15065   0.220  15.896   9.314
10998W        W15066   1.113  15.787  10.551
10999W        W15067   3.572  15.646   9.050
11000W        W15068   3.336  16.689   9.909
11001W        W15069   1.644  16.022   8.936
11002W        W15070   2.190  17.361   9.305
11003W        W15071   0.690  16.795   9.537
11004W        W15072   0.049  16.323   9.108
11005W        W15073   1.085  16.295  10.300
11006W        W15074   3.356  16.078  10.554
11007W        W15075   0.972  17.522   8.999
11008W        W15076   2.093  17.211  10.133
11009W        W15077   1.313  15.851   9.358
11010W        W15078   1.605  16.635   9.001
11011W        W15079   2.602  17.408  10.849
11012W        W15080   1.681  16.728  10.859
11013W        W15081   1.662  16.444  10.337
11014W        W15082   0.071  15.835  10.859
11015W        W15083   2.903  17.370  10.458
11016W        W15084   0.484  14.952   8.456
11017W        W15085   1.011  17.210   9.455
11018W        W15086   3.474  16.993   8.745
11019W        W15087   2.887  15.393   9.312
11020W        W15088   3.172  15.346   7.407
11021W        W15089   3.637  16.147   9.713
11022W        W15090   1.604  17.854   9.466
11023W        W15091   3.378  17.320   7.904
11024W        W15092   0.507  18.106   7.658
11025W        W15093   0.900  18.152   8.334
11026W        W15094   0.697  14.906   9.760
11027W        W15095   3.320  15.924  10.035
11028W        W15096   2.725  16.346   8.494
11029W        W15097   2.691  16.034   7.521
11030W        W15098   1.899  17.178   9.661
11031W        W15099   1.705  15.508   8.860
11032W        W15100   2.305  17.595   9.854
11033W        W15101   3.176  16.386   8.276
11034W        W15102   2.078  15.044   8.292
11035W        W15103   0.735  17.738   7.975
11036W        W15104   0.106  15.237   8.574
11037W        W15105   2.892  15.844   9.048
11038W        W15106   0.350  17.461   8.963
11039W        W15107   1.691  17.811   7.833
11040W        W15108   3.083  15.837   7.297
11041W        W15109   0.106  17.595   9.461
11042W        W15110   0.897  17.167   9.941
11043W        W15111   1.270  16.527   8.560
11044W        W15112   1.292  14.932   9.653
11045W        W15113   3.521  14.694   8.950
11046W        W15114   0.740  16.566   7.418
11047W        W15115   0.395  15.599   7.597
11048W        W15116   0.457  17.555   8.391
11049W        W15117   1.588  17.038   8.639
11050W        W15118   2.920  17.897  10.353
11051W        W15119   1.846  15.539   8.037
11052W        W15120   3.229  17.937   8.809
11053W        W15121   2.906  15.790  10.407
11054W        W15122   3.619  17.446   8.541
11055W        W15123   2.246  16.738  10.025
11056W        W15124   0.012  16.289   8.231
11057W        W15125   1.123  16.704   9.804
11058W        W15126   2.327  15.968   8.182
11059W        W15127   2.204  16.458   8.286
11060W        W15128   0.547  15.878   9.760
11061W        W15129   0.532  15.754  10.682
11062W        W15130   0.422  14.671   8.841
11063W        W15131   2.190  15.018   9.402
11064W        W15132   1.838  15.203  10.565
11065W        W15133   2.193  15.352   7.743
11066W        W15134   3.376  17.745  10.497
11067W        W15135   2.343  14.826  10.536
11068W        W15136   3.362  17.127  10.658
11069W        W15137   2.792  15.294  10.254
11070W        W15138   2.592  15.232   8.524
11071W        W15139   2.985  16.366  10.928
11072W        W15140   0.725  17.942   8.914
11073W        W15141   1.383  15.659   7.900
11074W        W15142   0.952  14.943  10.564
11075W        W15143   3.004  15.427   8.245
11076W        W15144   3.371  15.909   8.190
11077W        W15145   1.114  18.126  10.661
11078W        W15146   1.040  14.662   7.896
11079W        W15147   3.361  15.196   8.931
11080W        W15148   3.511  17.445   7.376
11081W        W15149   0.418  16.648   9.078
11082W        W15150   2.335  15.235   7.308
11083W        W15151   3.469  17.567   9.028
11084W        W15152   3.508  14.761   9.778
11085W        W15153   1.953  15.973  10.332
11086W        W15154   2.046  17.312   8.035
11087W        W15155   2.446  16.606  10.775
11088W        W15156   2.120  14.583   9.084
11089W        W15157   0.732  15.486   9.147
11090W        W15158   0.286  16.686   9.921
11091W        W15159   2.145  17.879   8.627
11092W        W15160   3.339  15.476   9.499
11093W        W15161   1.976  17.823  10.266
11094W        W15162   3.319  16.882   7.471
11095W        W15163   1.754  16.365   8.532
11096W        W15164   3.606  14.876  10.273
11097W        W15165   1.755  16.711   9.867
11098W        W15166   1.972  15.597   9.312
11099W        W15167   2.824  15.895   8.150
11100W        W15168   3.111  15.628   7.792
11101W        W15169   2.920  17.668   8.181
11102W        W15170   2.754  17.271   8.977
11103W        W15171   2.650  16.350   7.955
11104W        W15172   2.083  16.560   8.941
11105W        W15173   2.964  16.348   9.008
11106W        W15174   0.339  15.363   9.432
11107W        W15175   3.117  16.415  10.259
11108W        W15176   3.468  18.033   9.405
11109W        W15177   1.398  17.477   8.807
11110W        W15178   2.405  18.010  10.131
11111W        W15179   2.399  15.340   9.895
11112W        W15180   1.606  18.048   9.956
11113W        W15181   3.303  15.002   8.422
11114W        W15182   3.094  16.321   9.723
11115W        W15183   0.077  15.642   9.761
11116W        W15184   2.937  15.437   8.779
11117W        W15185   3.348  15.588  10.556
11118W        W15186   2.233  17.287   8.774
11119W        W15187   1.489  17.878   8.387
11120W        W15188   0.604  15.058   7.645
11121W        W15189   1.708  14.712   9.455
11122W        W15190   0.736  17.832   7.303
11123W        W15191   1.110  16.298   8.054
11124W        W15192   1.764  16.927  10.367
11125W        W15193   1.594  15.285   8.357
11126W        W15194   2.950  14.882   8.785
11127W        W15195   2.670  18.164   9.113
11128W        W15196   2.082  17.812   9.453
11129W        W15197   1.478  16.849   9.414
11130W        W15198   3.248  17.572   9.540
11131W        W15199   0.942  15.075   8.309
11132W        W15200   1.464  17.372   9.269
11133W        W15201   0.947  15.303   7.334
11134W        W15202   1.748  15.912   9.728
11135W        W15203   2.596  14.778   9.598
11136W        W15204   0.016  16.621   9.483
11137W        W15205   1.720  16.439   7.641
11138W        W15206   0.988  14.754   7.411
11139W        W15207   1.726  15.835   8.462
11140W        W15208   2.696  14.811  10.161
11141W        W15209   1.284  16.823  10.270
11142W        W15210   2.088  16.605  10.487
11143W        W15211   2.705  16.635  10.380
11144W        W15212   1.989  14.775  10.885
11145W        W15213   1.211  15.391   9.278
11146W        W15214   0.637  15.347   8.676
11147W        W15215   0.423  18.059   8.352
11148W        W15216   1.755  17.389  10.477
11149W        W15217   0.790  16.874   7.836
11150W        W15218   2.470  16.259   9.057
11151W        W15219   2.750  16.058   9.456
11152W        W15220   1.955  16.732   9.390
11153W        W15221   2.425  17.106   7.522
11154W        W15222   2.097  15.127   8.850
11155W        W15223   3.576  15.405   8.118
11156W        W15224   0.070  17.994  10.149
11157W        W15225   0.487  17.220   9.681
11158W        W15226   0.054  18.066   7.913
11159W        W15227   1.953  15.336   9.719
11160W        W15228   1.316  17.359   7.568
11161W        W15229   3.221  17.741   7.754
11162W        W15230   2.196  16.394   7.768
11163W        W15231   1.039  15.585   8.285
11164W        W15232   1.871  15.495   7.337
11165W        W15233   2.455  17.060  10.515
11166W        W15234   2.808  14.966   8.132
11167W        W15235   0.138  14.814   7.580
11168W        W15236   1.424  17.133   9.870
11169W        W15237   1.223  17.049   8.962
11170W        W15238   0.965  17.001   7.360
11171W        W15239   0.206  17.242   8.128
11172W        W15240   0.710  16.312  10.570
11173W        W15241   1.414  14.872  10.756
11174W        W15242   2.123  15.014  10.112
11175W        W15243   1.318  14.782   8.393
11176W        W15244   2.377  14.859   7.898
11177W        W15245   0.322  14.791   9.475
11178W        W15246   0.370  15.754   8.845
11179W        W15247   3.059  14.862   9.251
11180W        W15248   0.481  15.360   8.065
11181W        W15249   3.052  15.048   9.681
11182W        W15250   3.448  16.251   7.366
11183W        W15251   0.740  15.009   9.185
11184W        W15252   1.854  15.581  10.125
11185W        W15253   0.002  15.271   7.603
11186W        W15254   0.788  16.660  10.164
11187W        W15255   2.146  16.058   9.343
11188W        W15256   2.013  18.137   7.639
11189W        W15257   0.159  16.644   7.336
11190W        W15258   0.894  17.055  10.462
11191W        W15259   0.415  16.222  10.093
11192W        W15260   1.406  16.327   9.887
11193W        W15261   3.174  14.686  10.149
11194W        W15262   3.572  16.296  10.140
11195W        W15263   3.560  16.496   7.826
11196W        W15264   2.423  16.828   7.925
11197W        W15265   2.897  18.128   7.620
11198W        W15266   2.074  16.118  10.762
11199W        W15267   0.404  17.085  10.802
11200W        W15268   3.610  15.007  10.754
11201W        W15269   3.328  15.935   9.375
11202W        W15270   1.636  18.065  10.852
11203W        W15271   1.491  14.694   7.579
11204W        W15272   3.030  17.293   7.522
11205W        W15273   0.799  15.386  10.408
11206W        W15274   1.233  17.380  10.270
11207W        W15275   3.359  15.371  10.068
11208W        W15276   2.570  18.030   8.036
11209W        W15277   2.809  16.649   9.403
11210W        W15278   1.059  15.065  10.070
11211W        W15279   1.528  16.134  10.827
11212W        W15280   1.031  17.313   8.021
11213W        W15281   2.786  16.811   8.285
11214W        W15282   0.554  15.437  10.009
11215W        W15283   1.883  17.499   8.473
11216W        W15284   3.633  16.059   8.654
11217W        W15285   1.855  14.692  10.373
11218W        W15286   2.635  17.397   9.452
11219W        W15287   2.938  17.741   9.160
11220W        W15288   2.157  17.543   7.588
11221W        W15289   0.167  17.435  10.430
11222W        W15290   0.910  15.427   9.668
11223W        W15291   0.880  14.775   8.778
11224W        W15292   2.501  15.617   9.470
11225W        W15293   1.299  16.788   7.670
11226W        W15294   3.297  16.730   9.169
11227W        W15295   0.624  17.488  10.592
11228W        W15296   3.011  18.170   8.389
11229W        W15297   1.110  15.190   8.834
11230W        W15298   0.879  16.683   8.924
11231W        W15299   1.192  18.094   9.674
11232W        W15300   3.259  18.190  10.706
11233W        W15301   2.418  16.378   9.639
11234W        W15302   0.267  16.176   7.554
11235W        W15303   3.401  17.834   8.251
11236W        W15304   3.238  15.158   7.870
11237W        W15305   1.377  14.677  10.273
11238W        W15306   3.083  17.479   8.731
11239W        W15307   3.112  16.035   8.636
11240W        W15308   1.229  15.708   8.852
11241W        W15309   1.474  15.970  10.176
11242W        W15310   2.585  17.123  10.039
11243W        W15311   1.235  15.577  10.151
11244W        W15312   1.214  18.043   8.767
11245W        W15313   0.531  18.002  10.401
11246W        W15314   0.643  17.363   7.531
11247W        W15315   3.160  17.121   8.341
11248W        W15316   0.764  15.913  10.227
11249W        W15317   3.537  15.843   7.708
11250W        W15318   1.282  16.900   8.179
11251W        W15319   2.381  16.282  10.260
11252W        W15320   2.272  15.910   9.804
11253W        W15321   0.832  16.282   9.833
11254W        W15322   3.042  18.170   9.662
11255W        W15323   2.833  14.804  10.656
11256W        W15324   0.497  14.954  10.243
11257W        W15325   0.836  15.977   9.296
11258W        W15326   1.205  15.791   7.418
11259W        W15327   0.008  17.550   9.963
11260W        W15328   1.593  16.259   9.406
11261W        W15329   1.416  15.284   7.511
11262W        W15330   0.551  16.100   8.292
11263W        W15331   0.322  17.952   9.729
11264W        W15332   3.117  16.178   7.837
11265W        W15333   3.212  15.094  10.523
11266W        W15334   2.648  17.303   8.486
11267W        W15335   0.246  16.227  10.663
11268W        W15336   3.212  14.691   7.959
11269W        W15337   2.732  17.166   7.970
11270W        W15338   1.634  16.224   8.055
11271W        W15339   2.821  15.028   7.578
11272W        W15340   2.886  15.635   9.764
11273W        W15341   0.595  16.228   8.971
11274W        W15342   0.889  17.167   8.620
11275W        W15343   2.652  15.787   8.585
11276W        W15344   1.675  15.166   9.281
11277W        W15345   3.637  17.077   9.792
11278W        W15346   3.555  15.064   9.353
11279W        W15347   0.094  17.894   8.729
11280W        W15348   0.603  17.081   8.265
11281W        W15349   0.518  14.698  10.818
11282W        W15350   1.637  17.551  10.920
11283W        W15351   3.392  16.519   8.710
11284W        W15352   2.746  16.696   7.590
11285W        W15353   2.041  18.217   9.802
11286W        W15354   2.898  16.939  10.839
11287W        W15355   1.713  14.649   8.119
11288W        W15356   2.426  15.518   8.978
11289W        W15357   0.112  17.105   9.310
11290W        W15358   1.365  15.067   7.951
11291W        W15359   1.169  16.551  10.800
11292W        W15360   2.163  15.532   8.514
11293W        W15361   2.368  16.942   9.636
11294W        W15362   0.522  17.547  10.071
11295W        W15363   1.113  17.530  10.794
11296W        W15364   0.964  15.327   7.808
11297W        W15365   2.481  15.469   8.133
11298W        W15366   2.439  17.577  10.370
11299W        W15367   1.124  16.169   8.969
11300W        W15368   0.779  17.867   9.834
11301W        W15369   3.524  17.984   7.435
11302W        W15370   0.387  16.656  10.431
11303W        W15371   2.382  16.918   9.119
11304W        W15372   0.818  16.567   8.361
11305W        W15373   1.189  17.574   9.756
11306W        W15374   1.567  14.993   8.797
11307W        W15375   0.178  16.977   7.727
11308W        W15376   1.697  15.928   7.597
11309W        W15377   0.343  16.477   8.616
11310W        W15378   1.633  15.119  10.080
11311W        W15379   3.305  14.828   7.507
11312W        W15380   3.398  16.574  10.606
11313W        W15381   2.052  17.831  10.758
11314W        W15382   3.610  16.925  10.280
11315W        W15383   3.018  17.723  10.891
11316W        W15384   0.757  18.179   9.369
11317W        W15385   3.616  16.801   8.243
11318W        W15386   2.146  16.068   8.756
11319W        W15387   1.913  14.680   8.646
11320W        W15388   0.972  17.664   8.483
11321W        W15389   1.471  15.405   9.708
11322W        W15390   1.171  14.774   9.177
11323W        W15391   0.234  17.596   7.725
11324W        W15392   2.050  16.960   8.443
11325W        W15393   0.925  17.755  10.322
11326W        W15394   0.402  16.578   8.018
11327W        W15395   0.287  15.121   9.017
11328W        W15396   1.835  17.086   9.074
11329W        W15397   0.087  14.940   8.094
11330W        W15398   2.751  16.146  10.021
11331W        W15399   2.628  15.532   7.593
11332W        W15400   3.145  17.204   9.241
11333W        W15401   1.806  17.688   9.072
11334W        W15402   1.218  17.792   7.983
11335W        W15403   2.500  14.695   7.413
11336W        W15404   0.300  17.955   9.154
11337W        W15405   2.497  15.713  10.789
11338W        W15406   0.480  15.243  10.788
11339W        W15407   0.211  15.843   8.121
11340W        W15408   0.902  15.832   7.846
11341W        W15409   2.665  16.159  10.663
11342W        W15410   1.008  16.440   9.372
11343W        W15411   2.482  14.726   8.492
11344W        W15412   1.613  18.157   8.995
11345W        W15413   2.827  17.619   9.932
11346W        W15414   2.411  17.768   9.043
11347W        W15415   2.430  16.748   8.637
11348W        W15416   1.892  14.973   7.708
11349W        W15417   3.573  14.601   8.430
11350W        W15418   1.261  16.236   7.593
11351W        W15419   3.427  15.573   8.583
11352W        W15420   2.119  16.743   7.460
11353W        W15421   3.055  16.943  10.208
11354W        W15422   2.709  17.644   7.675
11355W        W15423   1.324  15.319  10.581
11356W        W15424   1.144  15.903   9.822
11357W        W15425   3.236  17.398  10.099
11358W        W15426   2.336  15.348  10.476
11359W        W15427   0.180  15.819  10.253
11360W        W15428   1.940  16.296   9.979
11361W        W15429   0.297  17.054   8.636
11362W        W15430   0.444  16.351   9.526
11363W        W15431   2.761  16.637   9.876
11364W        W15432   2.533  18.017  10.687
11365W        W15433   2.429  15.756  10.240
11366W        W15434   2.706  17.810   8.645
11367W        W15435   1.708  17.530   9.968
11368W        W15436   1.193  17.885   9.237
11369W        W15437   2.998  17.056   9.656
11370W        W15438   2.048  17.128  10.793
11371W        W15439   0.653  17.081   9.132
11372W        W15440   2.999  16.840   8.777
11373W        W15441   2.640  17.906   9.528
11374W        W15442   0.618  17.635   9.398
11375W        W15443   1.639  15.687  10.608
11376W        W15444   2.090  17.853   8.119
11377W        W15445   1.398  17.108  10.757
11378W        W15446   1.524  17.346   8.134
11379W        W15447   0.745  16.086   7.393
11380W        W15448   0.084  18.172  14.292
11381W        W15449   0.460  17.065  13.815
11382W        W15450   3.165  16.795  11.585
11383W        W15451   3.295  17.880  13.612
11384W        W15452   1.213  17.871  11.138
11385W        W15453   1.296  16.023  12.121
11386W        W15454   0.811  15.871  12.285
11387W        W15455   1.802  16.686  11.719
11388W        W15456   1.477  17.778  14.074
11389W        W15457   0.126  15.339  14.037
11390W        W15458   0.888  14.619  13.839
11391W        W15459   2.582  15.007  12.726
11392W        W15460   2.231  15.878  11.296
11393W        W15461   2.801  15.312  14.387
11394W        W15462   0.167  15.104  13.512
11395W        W15463   0.266  17.723  14.533
11396W        W15464   1.788  17.113  11.265
11397W        W15465   0.220  15.896  12.958
11398W        W15466   1.113  15.787  14.195
11399W        W15467   3.572  15.646  12.694
11400W        W15468   3.336  16.689  13.553
11401W        W15469   1.644  16.022  12.580
11402W        W15470   2.190  17.361  12.949
11403W        W15471   0.690  16.795  13.181
11404W        W15472   0.049  16.323  12.752
11405W        W15473   1.085  16.295  13.944
11406W        W15474   3.356  16.078  14.198
11407W        W15475   0.972  17.522  12.643
11408W        W15476   2.093  17.211  13.777
11409W        W15477   1.313  15.851  13.002
11410W        W15478   1.605  16.635  12.645
11411W        W15479   2.602  17.408  14.493
11412W        W15480   1.681  16.728  14.503
11413W        W15481   1.662  16.444  13.981
11414W        W15482   0.071  15.835  14.503
11415W        W15483   2.903  17.370  14.102
11416W        W15484   0.484  14.952  12.100
11417W        W15485   1.011  17.210  13.099
11418W        W15486   3.474  16.993  12.389
11419W        W15487   2.887  15.393  12.956
11420W        W15488   3.172  15.346  11.051
11421W        W15489   3.637  16.147  13.357
11422W        W15490   1.604  17.854  13.110
11423W        W15491   3.378  17.320  11.548
11424W        W15492   0.507  18.106  11.302
11425W        W15493   0.900  18.152  11.978
11426W        W15494   0.697  14.906  13.404
11427W        W15495   3.320  15.924  13.679
11428W        W15496   2.725  16.346  12.138
11429W        W15497   2.691  16.034  11.165
11430W        W15498   1.899  17.178  13.305
11431W        W15499   1.705  15.508  12.504
11432W        W15500   2.305  17.595  13.498
11433W        W15501   3.176  16.386  11.920
11434W        W15502   2.078  15.044  11.936
11435W        W15503   0.735  17.738  11.619
11436W        W15504   0.106  15.237  12.218
11437W        W15505   2.892  15.844  12.692
11438W        W15506   0.350  17.461  12.607
11439W        W15507   1.691  17.811  11.477
11440W        W15508   3.083  15.837  10.941
11441W        W15509   0.106  17.595  13.105
11442W        W15510   0.897  17.167  13.585
11443W        W15511   1.270  16.527  12.204
11444W        W15512   1.292  14.932  13.297
11445W        W15513   3.521  14.694  12.594
11446W        W15514   0.740  16.566  11.062
11447W        W15515   0.395  15.599  11.241
11448W        W15516   0.457  17.555  12.035
11449W        W15517   1.588  17.038  12.283
11450W        W15518   2.920  17.897  13.997
11451W        W15519   1.846  15.539  11.681
11452W        W15520   3.229  17.937  12.453
11453W        W15521   2.906  15.790  14.051
11454W        W15522   3.619  17.446  12.185
11455W        W15523   2.246  16.738  13.669
11456W        W15524   0.012  16.289  11.875
11457W        W15525   1.123  16.704  13.448
11458W        W15526   2.327  15.968  11.826
11459W        W15527   2.204  16.458  11.930
11460W        W15528   0.547  15.878  13.404
11461W        W15529   0.532  15.754  14.326
11462W        W15530   0.422  14.671  12.485
11463W        W15531   2.190  15.018  13.046
11464W        W15532   1.838  15.203  14.209
11465W        W15533   2.193  15.352  11.387
11466W        W15534   3.376  17.745  14.141
11467W        W15535   2.343  14.826  14.180
11468W        W15536   3.362  17.127  14.302
11469W        W15537   2.792  15.294  13.898
11470W        W15538   2.592  15.232  12.168
11471W        W15539   2.985  16.366  14.572
11472W        W15540   0.725  17.942  12.558
11473W        W15541   1.383  15.659  11.544
11474W        W15542   0.952  14.943  14.208
11475W        W15543   3.004  15.427  11.889
11476W        W15544   3.371  15.909  11.834
11477W        W15545   1.114  18.126  14.305
11478W        W15546   1.040  14.662  11.540
11479W        W15547   3.361  15.196  12.575
11480W        W15548   3.511  17.445  11.020
11481W        W15549   0.418  16.648  12.722
11482W        W15550   2.335  15.235  10.952
11483W        W15551   3.469  17.567  12.672
11484W        W15552   3.508  14.761  13.422
11485W        W15553   1.953  15.973  13.976
11486W        W15554   2.046  17.312  11.679
11487W        W15555   2.446  16.606  14.419
11488W        W15556   2.120  14.583  12.728
11489W        W15557   0.732  15.486  12.791
11490W        W15558   0.286  16.686  13.565
11491W        W15559   2.145  17.879  12.271
11492W        W15560   3.339  15.476  13.143
11493W        W15561   1.976  17.823  13.910
11494W        W15562   3.319  16.882  11.115
11495W        W15563   1.754  16.365  12.176
11496W        W15564   3.606  14.876  13.917
11497W        W15565   1.755  16.711  13.511
11498W        W15566   1.972  15.597  12.956
11499W        W15567   2.824  15.895  11.794
11500W        W15568   3.111  15.628  11.436
11501W        W15569   2.920  17.668  11.825
11502W        W15570   2.754  17.271  12.621
11503W        W15571   2.650  16.350  11.599
11504W        W15572   2.083  16.560  12.585
11505W        W15573   2.964  16.348  12.652
11506W        W15574   0.339  15.363  13.076
11507W        W15575   3.117  16.415  13.903
11508W        W15576   3.468  18.033  13.049
11509W        W15577   1.398  17.477  12.451
11510W        W15578   2.405  18.010  13.775
11511W        W15579   2.399  15.340  13.539
11512W        W15580   1.606  18.048  13.600
11513W        W15581   3.303  15.002  12.066
11514W        W15582   3.094  16.321  13.367
11515W        W15583   0.077  15.642  13.405
11516W        W15584   2.937  15.437  12.423
11517W        W15585   3.348  15.588  14.200
11518W        W15586   2.233  17.287  12.418
11519W        W15587   1.489  17.878  12.031
11520W        W15588   0.604  15.058  11.289
11521W        W15589   1.708  14.712  13.099
11522W        W15590   0.736  17.832  10.947
11523W        W15591   1.110  16.298  11.698
11524W        W15592   1.764  16.927  14.011
11525W        W15593   1.594  15.285  12.001
11526W        W15594   2.950  14.882  12.429
11527W        W15595   2.670  18.164  12.757
11528W        W15596   2.082  17.812  13.097
11529W        W15597   1.478  16.849  13.058
11530W        W15598   3.248  17.572  13.184
11531W        W15599   0.942  15.075  11.953
11532W        W15600   1.464  17.372  12.913
11533W        W15601   0.947  15.303  10.978
11534W        W15602   1.748  15.912  13.372
11535W        W15603   2.596  14.778  13.242
11536W        W15604   0.016  16.621  13.127
11537W        W15605   1.720  16.439  11.285
11538W        W15606   0.988  14.754  11.055
11539W        W15607   1.726  15.835  12.106
11540W        W15608   2.696  14.811  13.805
11541W        W15609   1.284  16.823  13.914
11542W        W15610   2.088  16.605  14.131
11543W        W15611   2.705  16.635  14.024
11544W        W15612   1.989  14.775  14.529
11545W        W15613   1.211  15.391  12.922
11546W        W15614   0.637  15.347  12.320
11547W        W15615   0.423  18.059  11.996
11548W        W15616   1.755  17.389  14.121
11549W        W15617   0.790  16.874  11.480
11550W        W15618   2.470  16.259  12.701
11551W        W15619   2.750  16.058  13.100
11552W        W15620   1.955  16.732  13.034
11553W        W15621   2.425  17.106  11.166
11554W        W15622   2.097  15.127  12.494
11555W        W15623   3.576  15.405  11.762
11556W        W15624   0.070  17.994  13.793
11557W        W15625   0.487  17.220  13.325
11558W        W15626   0.054  18.066  11.557
11559W        W15627   1.953  15.336  13.363
11560W        W15628   1.316  17.359  11.212
11561W        W15629   3.221  17.741  11.398
11562W        W15630   2.196  16.394  11.412
11563W        W15631   1.039  15.585  11.929
11564W        W15632   1.871  15.495  10.981
11565W        W15633   2.455  17.060  14.159
11566W        W15634   2.808  14.966  11.776
11567W        W15635   0.138  14.814  11.224
11568W        W15636   1.424  17.133  13.514
11569W        W15637   1.223  17.049  12.606
11570W        W15638   0.965  17.001  11.004
11571W        W15639   0.206  17.242  11.772
11572W        W15640   0.710  16.312  14.214
11573W        W15641   1.414  14.872  14.400
11574W        W15642   2.123  15.014  13.756
11575W        W15643   1.318  14.782  12.037
11576W        W15644   2.377  14.859  11.542
11577W        W15645   0.322  14.791  13.119
11578W        W15646   0.370  15.754  12.489
11579W        W15647   3.059  14.862  12.895
11580W        W15648   0.481  15.360  11.709
11581W        W15649   3.052  15.048  13.325
11582W        W15650   3.448  16.251  11.010
11583W        W15651   0.740  15.009  12.829
11584W        W15652   1.854  15.581  13.769
11585W        W15653   0.002  15.271  11.247
11586W        W15654   0.788  16.660  13.808
11587W        W15655   2.146  16.058  12.987
11588W        W15656   2.013  18.137  11.283
11589W        W15657   0.159  16.644  10.980
11590W        W15658   0.894  17.055  14.106
11591W        W15659   0.415  16.222  13.737
11592W        W15660   1.406  16.327  13.531
11593W        W15661   3.174  14.686  13.793
11594W        W15662   3.572  16.296  13.784
11595W        W15663   3.560  16.496  11.470
11596W        W15664   2.423  16.828  11.569
11597W        W15665   2.897  18.128  11.264
11598W        W15666   2.074  16.118  14.406
11599W        W15667   0.404  17.085  14.446
11600W        W15668   3.610  15.007  14.398
11601W        W15669   3.328  15.935  13.019
11602W        W15670   1.636  18.065  14.496
11603W        W15671   1.491  14.694  11.223
11604W        W15672   3.030  17.293  11.166
11605W        W15673   0.799  15.386  14.052
11606W        W15674   1.233  17.380  13.914
11607W        W15675   3.359  15.371  13.712
11608W        W15676   2.570  18.030  11.680
11609W        W15677   2.809  16.649  13.047
11610W        W15678   1.059  15.065  13.714
11611W        W15679   1.528  16.134  14.471
11612W        W15680   1.031  17.313  11.665
11613W        W15681   2.786  16.811  11.929
11614W        W15682   0.554  15.437  13.653
11615W        W15683   1.883  17.499  12.117
11616W        W15684   3.633  16.059  12.298
11617W        W15685   1.855  14.692  14.017
11618W        W15686   2.635  17.397  13.096
11619W        W15687   2.938  17.741  12.804
11620W        W15688   2.157  17.543  11.232
11621W        W15689   0.167  17.435  14.074
11622W        W15690   0.910  15.427  13.312
11623W        W15691   0.880  14.775  12.422
11624W        W15692   2.501  15.617  13.114
11625W        W15693   1.299  16.788  11.314
11626W        W15694   3.297  16.730  12.813
11627W        W15695   0.624  17.488  14.236
11628W        W15696   3.011  18.170  12.033
11629W        W15697   1.110  15.190  12.478
11630W        W15698   0.879  16.683  12.568
11631W        W15699   1.192  18.094  13.318
11632W        W15700   3.259  18.190  14.350
11633W        W15701   2.418  16.378  13.283
11634W        W15702   0.267  16.176  11.198
11635W        W15703   3.401  17.834  11.895
11636W        W15704   3.238  15.158  11.514
11637W        W15705   1.377  14.677  13.917
11638W        W15706   3.083  17.479  12.375
11639W        W15707   3.112  16.035  12.280
11640W        W15708   1.229  15.708  12.496
11641W        W15709   1.474  15.970  13.820
11642W        W15710   2.585  17.123  13.683
11643W        W15711   1.235  15.577  13.795
11644W        W15712   1.214  18.043  12.411
11645W        W15713   0.531  18.002  14.045
11646W        W15714   0.643  17.363  11.175
11647W        W15715   3.160  17.121  11.985
11648W        W15716   0.764  15.913  13.871
11649W        W15717   3.537  15.843  11.352
11650W        W15718   1.282  16.900  11.823
11651W        W15719   2.381  16.282  13.904
11652W        W15720   2.272  15.910  13.448
11653W        W15721   0.832  16.282  13.477
11654W        W15722   3.042  18.170  13.306
11655W        W15723   2.833  14.804  14.300
11656W        W15724   0.497  14.954  13.887
11657W        W15725   0.836  15.977  12.940
11658W        W15726   1.205  15.791  11.062
11659W        W15727   0.008  17.550  13.607
11660W        W15728   1.593  16.259  13.050
11661W        W15729   1.416  15.284  11.155
11662W        W15730   0.551  16.100  11.936
11663W        W15731   0.322  17.952  13.373
11664W        W15732   3.117  16.178  11.481
11665W        W15733   3.212  15.094  14.167
11666W        W15734   2.648  17.303  12.130
11667W        W15735   0.246  16.227  14.307
11668W        W15736   3.212  14.691  11.603
11669W        W15737   2.732  17.166  11.614
11670W        W15738   1.634  16.224  11.699
11671W        W15739   2.821  15.028  11.222
11672W        W15740   2.886  15.635  13.408
11673W        W15741   0.595  16.228  12.615
11674W        W15742   0.889  17.167  12.264
11675W        W15743   2.652  15.787  12.229
11676W        W15744   1.675  15.166  12.925
11677W        W15745   3.637  17.077  13.436
11678W        W15746   3.555  15.064  12.997
11679W        W15747   0.094  17.894  12.373
11680W        W15748   0.603  17.081  11.909
11681W        W15749   0.518  14.698  14.462
11682W        W15750   1.637  17.551  14.564
11683W        W15751   3.392  16.519  12.354
11684W        W15752   2.746  16.696  11.234
11685W        W15753   2.041  18.217  13.446
11686W        W15754   2.898  16.939  14.483
11687W        W15755   1.713  14.649  11.763
11688W        W15756   2.426  15.518  12.622
11689W        W15757   0.112  17.105  12.954
11690W        W15758   1.365  15.067  11.595
11691W        W15759   1.169  16.551  14.444
11692W        W15760   2.163  15.532  12.158
11693W        W15761   2.368  16.942  13.280
11694W        W15762   0.522  17.547  13.715
11695W        W15763   1.113  17.530  14.438
11696W        W15764   0.964  15.327  11.452
11697W        W15765   2.481  15.469  11.777
11698W        W15766   2.439  17.577  14.014
11699W        W15767   1.124  16.169  12.613
11700W        W15768   0.779  17.867  13.478
11701W        W15769   3.524  17.984  11.079
11702W        W15770   0.387  16.656  14.075
11703W        W15771   2.382  16.918  12.763
11704W        W15772   0.818  16.567  12.005
11705W        W15773   1.189  17.574  13.400
11706W        W15774   1.567  14.993  12.441
11707W        W15775   0.178  16.977  11.371
11708W        W15776   1.697  15.928  11.241
11709W        W15777   0.343  16.477  12.260
11710W        W15778   1.633  15.119  13.724
11711W        W15779   3.305  14.828  11.151
11712W        W15780   3.398  16.574  14.250
11713W        W15781   2.052  17.831  14.402
11714W        W15782   3.610  16.925  13.924
11715W        W15783   3.018  17.723  14.535
11716W        W15784   0.757  18.179  13.013
11717W        W15785   3.616  16.801  11.887
11718W        W15786   2.146  16.068  12.400
11719W        W15787   1.913  14.680  12.290
11720W        W15788   0.972  17.664  12.127
11721W        W15789   1.471  15.405  13.352
11722W        W15790   1.171  14.774  12.821
11723W        W15791   0.234  17.596  11.369
11724W        W15792   2.050  16.960  12.087
11725W        W15793   0.925  17.755  13.966
11726W        W15794   0.402  16.578  11.662
11727W        W15795   0.287  15.121  12.661
11728W        W15796   1.835  17.086  12.718
11729W        W15797   0.087  14.940  11.738
11730W        W15798   2.751  16.146  13.665
11731W        W15799   2.628  15.532  11.237
11732W        W15800   3.145  17.204  12.885
11733W        W15801   1.806  17.688  12.716
11734W        W15802   1.218  17.792  11.627
11735W        W15803   2.500  14.695  11.057
11736W        W15804   0.300  17.955  12.798
11737W        W15805   2.497  15.713  14.433
11738W        W15806   0.480  15.243  14.432
11739W        W15807   0.211  15.843  11.765
11740W        W15808   0.902  15.832  11.490
11741W        W15809   2.665  16.159  14.307
11742W        W15810   1.008  16.440  13.016
11743W        W15811   2.482  14.726  12.136
11744W        W15812   1.613  18.157  12.639
11745W        W15813   2.827  17.619  13.576
11746W        W15814   2.411  17.768  12.687
11747W        W15815   2.430  16.748  12.281
11748W        W15816   1.892  14.973  11.352
11749W        W15817   3.573  14.601  12.074
11750W        W15818   1.261  16.236  11.237
11751W        W15819   3.427  15.573  12.227
11752W        W15820   2.119  16.743  11.104
11753W        W15821   3.055  16.943  13.852
11754W        W15822   2.709  17.644  11.319
11755W        W15823   1.324  15.319  14.225
11756W        W15824   1.144  15.903  13.466
11757W        W15825   3.236  17.398  13.743
11758W        W15826   2.336  15.348  14.120
11759W        W15827   0.180  15.819  13.897
11760W        W15828   1.940  16.296  13.623
11761W        W15829   0.297  17.054  12.280
11762W        W15830   0.444  16.351  13.170
11763W        W15831   2.761  16.637  13.520
11764W        W15832   2.533  18.017  14.331
11765W        W15833   2.429  15.756  13.884
11766W        W15834   2.706  17.810  12.289
11767W        W15835   1.708  17.530  13.612
11768W        W15836   1.193  17.885  12.881
11769W        W15837   2.998  17.056  13.300
11770W        W15838   2.048  17.128  14.437
11771W        W15839   0.653  17.081  12.776
11772W        W15840   2.999  16.840  12.421
11773W        W15841   2.640  17.906  13.172
11774W        W15842   0.618  17.635  13.042
11775W        W15843   1.639  15.687  14.252
11776W        W15844   2.090  17.853  11.763
11777W        W15845   1.398  17.108  14.401
11778W        W15846   1.524  17.346  11.778
11779W        W15847   0.745  16.086  11.037
11780W        W15848   0.084  18.172  17.936
11781W        W15849   0.460  17.065  17.459
11782W        W15850   3.165  16.795  15.229
11783W        W15851   3.295  17.880  17.256
11784W        W15852   1.213  17.871  14.782
11785W        W15853   1.296  16.023  15.765
11786W        W15854   0.811  15.871  15.929
11787W        W15855   1.802  16.686  15.363
11788W        W15856   1.477  17.778  17.718
11789W        W15857   0.126  15.339  17.681
11790W        W15858   0.888  14.619  17.483
11791W        W15859   2.582  15.007  16.370
11792W        W15860   2.231  15.878  14.940
11793W        W15861   2.801  15.312  18.031
11794W        W15862   0.167  15.104  17.156
11795W        W15863   0.266  17.723  18.177
11796W        W15864   1.788  17.113  14.909
11797W        W15865   0.220  15.896  16.602
11798W        W15866   1.113  15.787  17.839
11799W        W15867   3.572  15.646  16.338
11800W        W15868   3.336  16.689  17.197
11801W        W15869   1.644  16.022  16.224
11802W        W15870   2.190  17.361  16.593
11803W        W15871   0.690  16.795  16.825
11804W        W15872   0.049  16.323  16.396
11805W        W15873   1.085  16.295  17.588
11806W        W15874   3.356  16.078  17.842
11807W        W15875   0.972  17.522  16.287
11808W        W15876   2.093  17.211  17.421
11809W        W15877   1.313  15.851  16.646
11810W        W15878   1.605  16.635  16.289
11811W        W15879   2.602  17.408  18.137
11812W        W15880   1.681  16.728  18.147
11813W        W15881   1.662  16.444  17.625
11814W        W15882   0.071  15.835  18.147
11815W        W15883   2.903  17.370  17.746
11816W        W15884   0.484  14.952  15.744
11817W        W15885   1.011  17.210  16.743
11818W        W15886   3.474  16.993  16.033
11819W        W15887   2.887  15.393  16.600
11820W        W15888   3.172  15.346  14.695
11821W        W15889   3.637  16.147  17.001
11822W        W15890   1.604  17.854  16.754
11823W        W15891   3.378  17.320  15.192
11824W        W15892   0.507  18.106  14.946
11825W        W15893   0.900  18.152  15.622
11826W        W15894   0.697  14.906  17.048
11827W        W15895   3.320  15.924  17.323
11828W        W15896   2.725  16.346  15.782
11829W        W15897   2.691  16.034  14.809
11830W        W15898   1.899  17.178  16.949
11831W        W15899   1.705  15.508  16.148
11832W        W15900   2.305  17.595  17.142
11833W        W15901   3.176  16.386  15.564
11834W        W15902   2.078  15.044  15.580
11835W        W15903   0.735  17.738  15.263
11836W        W15904   0.106  15.237  15.862
11837W        W15905   2.892  15.844  16.336
11838W        W15906   0.350  17.461  16.251
11839W        W15907   1.691  17.811  15.121
11840W        W15908   3.083  15.837  14.585
11841W        W15909   0.106  17.595  16.749
11842W        W15910   0.897  17.167  17.229
11843W        W15911   1.270  16.527  15.848
11844W        W15912   1.292  14.932  16.941
11845W        W15913   3.521  14.694  16.238
11846W        W15914   0.740  16.566  14.706
11847W        W15915   0.395  15.599  14.885
11848W        W15916   0.457  17.555  15.679
11849W        W15917   1.588  17.038  15.927
11850W        W15918   2.920  17.897  17.641
11851W        W15919   1.846  15.539  15.325
11852W        W15920   3.229  17.937  16.097
11853W        W15921   2.906  15.790  17.695
11854W        W15922   3.619  17.446  15.829
11855W        W15923   2.246  16.738  17.313
11856W        W15924   0.012  16.289  15.519
11857W        W15925   1.123  16.704  17.092
11858W        W15926   2.327  15.968  15.470
11859W        W15927   2.204  16.458  15.574
11860W        W15928   0.547  15.878  17.048
11861W        W15929   0.532  15.754  17.970
11862W        W15930   0.422  14.671  16.129
11863W        W15931   2.190  15.018  16.690
11864W        W15932   1.838  15.203  17.853
11865W        W15933   2.193  15.352  15.031
11866W        W15934   3.376  17.745  17.785
11867W        W15935   2.343  14.826  17.824
11868W        W15936   3.362  17.127  17.946
11869W        W15937   2.792  15.294  17.542
11870W        W15938   2.592  15.232  15.812
11871W        W15939   2.985  16.366  18.216
11872W        W15940   0.725  17.942  16.202
11873W        W15941   1.383  15.659  15.188
11874W        W15942   0.952  14.943  17.852
11875W        W15943   3.004  15.427  15.533
11876W        W15944   3.371  15.909  15.478
11877W        W15945   1.114  18.126  17.949
11878W        W15946   1.040  14.662  15.184
11879W        W15947   3.361  15.196  16.219
11880W        W15948   3.511  17.445  14.664
11881W        W15949   0.418  16.648  16.366
11882W        W15950   2.335  15.235  14.596
11883W        W15951   3.469  17.567  16.316
11884W        W15952   3.508  14.761  17.066
11885W        W15953   1.953  15.973  17.620
11886W        W15954   2.046  17.312  15.323
11887W        W15955   2.446  16.606  18.063
11888W        W15956   2.120  14.583  16.372
11889W        W15957   0.732  15.486  16.435
11890W        W15958   0.286  16.686  17.209
11891W        W15959   2.145  17.879  15.915
11892W        W15960   3.339  15.476  16.787
11893W        W15961   1.976  17.823  17.554
11894W        W15962   3.319  16.882  14.759
11895W        W15963   1.754  16.365  15.820
11896W        W15964   3.606  14.876  17.561
11897W        W15965   1.755  16.711  17.155
11898W        W15966   1.972  15.597  16.600
11899W        W15967   2.824  15.895  15.438
11900W        W15968   3.111  15.628  15.080
11901W        W15969   2.920  17.668  15.469
11902W        W15970   2.754  17.271  16.265
11903W        W15971   2.650  16.350  15.243
11904W        W15972   2.083  16.560  16.229
11905W        W15973   2.964  16.348  16.296
11906W        W15974   0.339  15.363  16.720
11907W        W15975   3.117  16.415  17.547
11908W        W15976   3.468  18.033  16.693
11909W        W15977   1.398  17.477  16.095
11910W        W15978   2.405  18.010  17.419
11911W        W15979   2.399  15.340  17.183
11912W        W15980   1.606  18.048  17.244
11913W        W15981   3.303  15.002  15.710
11914W        W15982   3.094  16.321  17.011
11915W        W15983   0.077  15.642  17.049
11916W        W15984   2.937  15.437  16.067
11917W        W15985   3.348  15.588  17.844
11918W        W15986   2.233  17.287  16.062
11919W        W15987   1.489  17.878  15.675
11920W        W15988   0.604  15.058  14.933
11921W        W15989   1.708  14.712  16.743
11922W        W15990   0.736  17.832  14.591
11923W        W15991   1.110  16.298  15.342
11924W        W15992   1.764  16.927  17.655
11925W        W15993   1.594  15.285  15.645
11926W        W15994   2.950  14.882  16.073
11927W        W15995   2.670  18.164  16.401
11928W        W15996   2.082  17.812  16.741
11929W        W15997   1.478  16.849  16.702
11930W        W15998   3.248  17.572  16.828
11931W        W15999   0.942  15.075  15.597
11932W        W16000   1.464  17.372  16.557
11933W        W16001   0.947  15.303  14.622
11934W        W16002   1.748  15.912  17.016
11935W        W16003   2.596  14.778  16.886
11936W        W16004   0.016  16.621  16.771
11937W        W16005   1.720  16.439  14.929
11938W        W16006   0.988  14.754  14.699
11939W        W16007   1.726  15.835  15.750
11940W        W16008   2.696  14.811  17.449
11941W        W16009   1.284  16.823  17.558
11942W        W16010   2.088  16.605  17.775
11943W        W16011   2.705  16.635  17.668
11944W        W16012   1.989  14.775  18.173
11945W        W16013   1.211  15.391  16.566
11946W        W16014   0.637  15.347  15.964
11947W        W16015   0.423  18.059  15.640
11948W        W16016   1.755  17.389  17.765
11949W        W16017   0.790  16.874  15.124
11950W        W16018   2.470  16.259  16.345
11951W        W16019   2.750  16.058  16.744
11952W        W16020   1.955  16.732  16.678
11953W        W16021   2.425  17.106  14.810
11954W        W16022   2.097  15.127  16.138
11955W        W16023   3.576  15.405  15.406
11956W        W16024   0.070  17.994  17.437
11957W        W16025   0.487  17.220  16.969
11958W        W16026   0.054  18.066  15.201
11959W        W16027   1.953  15.336  17.007
11960W        W16028   1.316  17.359  14.856
11961W        W16029   3.221  17.741  15.042
11962W        W16030   2.196  16.394  15.056
11963W        W16031   1.039  15.585  15.573
11964W        W16032   1.871  15.495  14.625
11965W        W16033   2.455  17.060  17.803
11966W        W16034   2.808  14.966  15.420
11967W        W16035   0.138  14.814  14.868
11968W        W16036   1.424  17.133  17.158
11969W        W16037   1.223  17.049  16.250
11970W        W16038   0.965  17.001  14.648
11971W        W16039   0.206  17.242  15.416
11972W        W16040   0.710  16.312  17.858
11973W        W16041   1.414  14.872  18.044
11974W        W16042   2.123  15.014  17.400
11975W        W16043   1.318  14.782  15.681
11976W        W16044   2.377  14.859  15.186
11977W        W16045   0.322  14.791  16.763
11978W        W16046   0.370  15.754  16.133
11979W        W16047   3.059  14.862  16.539
11980W        W16048   0.481  15.360  15.353
11981W        W16049   3.052  15.048  16.969
11982W        W16050   3.448  16.251  14.654
11983W        W16051   0.740  15.009  16.473
11984W        W16052   1.854  15.581  17.413
11985W        W16053   0.002  15.271  14.891
11986W        W16054   0.788  16.660  17.452
11987W        W16055   2.146  16.058  16.631
11988W        W16056   2.013  18.137  14.927
11989W        W16057   0.159  16.644  14.624
11990W        W16058   0.894  17.055  17.750
11991W        W16059   0.415  16.222  17.381
11992W        W16060   1.406  16.327  17.175
11993W        W16061   3.174  14.686  17.437
11994W        W16062   3.572  16.296  17.428
11995W        W16063   3.560  16.496  15.114
11996W        W16064   2.423  16.828  15.213
11997W        W16065   2.897  18.128  14.908
11998W        W16066   2.074  16.118  18.050
11999W        W16067   0.404  17.085  18.090
12000W        W16068   3.610  15.007  18.042
12001W        W16069   3.328  15.935  16.663
12002W        W16070   1.636  18.065  18.140
12003W        W16071   1.491  14.694  14.867
12004W        W16072   3.030  17.293  14.810
12005W        W16073   0.799  15.386  17.696
12006W        W16074   1.233  17.380  17.558
12007W        W16075   3.359  15.371  17.356
12008W        W16076   2.570  18.030  15.324
12009W        W16077   2.809  16.649  16.691
12010W        W16078   1.059  15.065  17.358
12011W        W16079   1.528  16.134  18.115
12012W        W16080   1.031  17.313  15.309
12013W        W16081   2.786  16.811  15.573
12014W        W16082   0.554  15.437  17.297
12015W        W16083   1.883  17.499  15.761
12016W        W16084   3.633  16.059  15.942
12017W        W16085   1.855  14.692  17.661
12018W        W16086   2.635  17.397  16.740
12019W        W16087   2.938  17.741  16.448
12020W        W16088   2.157  17.543  14.876
12021W        W16089   0.167  17.435  17.718
12022W        W16090   0.910  15.427  16.956
12023W        W16091   0.880  14.775  16.066
12024W        W16092   2.501  15.617  16.758
12025W        W16093   1.299  16.788  14.958
12026W        W16094   3.297  16.730  16.457
12027W        W16095   0.624  17.488  17.880
12028W        W16096   3.011  18.170  15.677
12029W        W16097   1.110  15.190  16.122
12030W        W16098   0.879  16.683  16.212
12031W        W16099   1.192  18.094  16.962
12032W        W16100   3.259  18.190  17.994
12033W        W16101   2.418  16.378  16.927
12034W        W16102   0.267  16.176  14.842
12035W        W16103   3.401  17.834  15.539
12036W        W16104   3.238  15.158  15.158
12037W        W16105   1.377  14.677  17.561
12038W        W16106   3.083  17.479  16.019
12039W        W16107   3.112  16.035  15.924
12040W        W16108   1.229  15.708  16.140
12041W        W16109   1.474  15.970  17.464
12042W        W16110   2.585  17.123  17.327
12043W        W16111   1.235  15.577  17.439
12044W        W16112   1.214  18.043  16.055
12045W        W16113   0.531  18.002  17.689
12046W        W16114   0.643  17.363  14.819
12047W        W16115   3.160  17.121  15.629
12048W        W16116   0.764  15.913  17.515
12049W        W16117   3.537  15.843  14.996
12050W        W16118   1.282  16.900  15.467
12051W        W16119   2.381  16.282  17.548
12052W        W16120   2.272  15.910  17.092
12053W        W16121   0.832  16.282  17.121
12054W        W16122   3.042  18.170  16.950
12055W        W16123   2.833  14.804  17.944
12056W        W16124   0.497  14.954  17.531
12057W        W16125   0.836  15.977  16.584
12058W        W16126   1.205  15.791  14.706
12059W        W16127   0.008  17.550  17.251
12060W        W16128   1.593  16.259  16.694
12061W        W16129   1.416  15.284  14.799
12062W        W16130   0.551  16.100  15.580
12063W        W16131   0.322  17.952  17.017
12064W        W16132   3.117  16.178  15.125
12065W        W16133   3.212  15.094  17.811
12066W        W16134   2.648  17.303  15.774
12067W        W16135   0.246  16.227  17.951
12068W        W16136   3.212  14.691  15.247
12069W        W16137   2.732  17.166  15.258
12070W        W16138   1.634  16.224  15.343
12071W        W16139   2.821  15.028  14.866
12072W        W16140   2.886  15.635  17.052
12073W        W16141   0.595  16.228  16.259
12074W        W16142   0.889  17.167  15.908
12075W        W16143   2.652  15.787  15.873
12076W        W16144   1.675  15.166  16.569
12077W        W16145   3.637  17.077  17.080
12078W        W16146   3.555  15.064  16.641
12079W        W16147   0.094  17.894  16.017
12080W        W16148   0.603  17.081  15.553
12081W        W16149   0.518  14.698  18.106
12082W        W16150   1.637  17.551  18.208
12083W        W16151   3.392  16.519  15.998
12084W        W16152   2.746  16.696  14.878
12085W        W16153   2.041  18.217  17.090
12086W        W16154   2.898  16.939  18.127
12087W        W16155   1.713  14.649  15.407
12088W        W16156   2.426  15.518  16.266
12089W        W16157   0.112  17.105  16.598
12090W        W16158   1.365  15.067  15.239
12091W        W16159   1.169  16.551  18.088
12092W        W16160   2.163  15.532  15.802
12093W        W16161   2.368  16.942  16.924
12094W        W16162   0.522  17.547  17.359
12095W        W16163   1.113  17.530  18.082
12096W        W16164   0.964  15.327  15.096
12097W        W16165   2.481  15.469  15.421
12098W        W16166   2.439  17.577  17.658
12099W        W16167   1.124  16.169  16.257
12100W        W16168   0.779  17.867  17.122
12101W        W16169   3.524  17.984  14.723
12102W        W16170   0.387  16.656  17.719
12103W        W16171   2.382  16.918  16.407
12104W        W16172   0.818  16.567  15.649
12105W        W16173   1.189  17.574  17.044
12106W        W16174   1.567  14.993  16.085
12107W        W16175   0.178  16.977  15.015
12108W        W16176   1.697  15.928  14.885
12109W        W16177   0.343  16.477  15.904
12110W        W16178   1.633  15.119  17.368
12111W        W16179   3.305  14.828  14.795
12112W        W16180   3.398  16.574  17.894
12113W        W16181   2.052  17.831  18.046
12114W        W16182   3.610  16.925  17.568
12115W        W16183   3.018  17.723  18.179
12116W        W16184   0.757  18.179  16.657
12117W        W16185   3.616  16.801  15.531
12118W        W16186   2.146  16.068  16.044
12119W        W16187   1.913  14.680  15.934
12120W        W16188   0.972  17.664  15.771
12121W        W16189   1.471  15.405  16.996
12122W        W16190   1.171  14.774  16.465
12123W        W16191   0.234  17.596  15.013
12124W        W16192   2.050  16.960  15.731
12125W        W16193   0.925  17.755  17.610
12126W        W16194   0.402  16.578  15.306
12127W        W16195   0.287  15.121  16.305
12128W        W16196   1.835  17.086  16.362
12129W        W16197   0.087  14.940  15.382
12130W        W16198   2.751  16.146  17.309
12131W        W16199   2.628  15.532  14.881
12132W        W16200   3.145  17.204  16.529
12133W        W16201   1.806  17.688  16.360
12134W        W16202   1.218  17.792  15.271
12135W        W16203   2.500  14.695  14.701
12136W        W16204   0.300  17.955  16.442
12137W        W16205   2.497  15.713  18.077
12138W        W16206   0.480  15.243  18.076
12139W        W16207   0.211  15.843  15.409
12140W        W16208   0.902  15.832  15.134
12141W        W16209   2.665  16.159  17.951
12142W        W16210   1.008  16.440  16.660
12143W        W16211   2.482  14.726  15.780
12144W        W16212   1.613  18.157  16.283
12145W        W16213   2.827  17.619  17.220
12146W        W16214   2.411  17.768  16.331
12147W        W16215   2.430  16.748  15.925
12148W        W16216   1.892  14.973  14.996
12149W        W16217   3.573  14.601  15.718
12150W        W16218   1.261  16.236  14.881
12151W        W16219   3.427  15.573  15.871
12152W        W16220   2.119  16.743  14.748
12153W        W16221   3.055  16.943  17.496
12154W        W16222   2.709  17.644  14.963
12155W        W16223   1.324  15.319  17.869
12156W        W16224   1.144  15.903  17.110
12157W        W16225   3.236  17.398  17.387
12158W        W16226   2.336  15.348  17.764
12159W        W16227   0.180  15.819  17.541
12160W        W16228   1.940  16.296  17.267
12161W        W16229   0.297  17.054  15.924
12162W        W16230   0.444  16.351  16.814
12163W        W16231   2.761  16.637  17.164
12164W        W16232   2.533  18.017  17.975
12165W        W16233   2.429  15.756  17.528
12166W        W16234   2.706  17.810  15.933
12167W        W16235   1.708  17.530  17.256
12168W        W16236   1.193  17.885  16.525
12169W        W16237   2.998  17.056  16.944
12170W        W16238   2.048  17.128  18.081
12171W        W16239   0.653  17.081  16.420
12172W        W16240   2.999  16.840  16.065
12173W        W16241   2.640  17.906  16.816
12174W        W16242   0.618  17.635  16.686
12175W        W16243   1.639  15.687  17.896
12176W        W16244   2.090  17.853  15.407
12177W        W16245   1.398  17.108  18.045
12178W        W16246   1.524  17.346  15.422
12179W        W16247   0.745  16.086  14.681
12180W        W16248   0.084  18.172  21.580
12181W        W16249   0.460  17.065  21.103
12182W        W16250   3.165  16.795  18.873
12183W        W16251   3.295  17.880  20.900
12184W        W16252   1.213  17.871  18.426
12185W        W16253   1.296  16.023  19.409
12186W        W16254   0.811  15.871  19.573
12187W        W16255   1.802  16.686  19.007
12188W        W16256   1.477  17.778  21.362
12189W        W16257   0.126  15.339  21.325
12190W        W16258   0.888  14.619  21.127
12191W        W16259   2.582  15.007  20.014
12192W        W16260   2.231  15.878  18.584
12193W        W16261   2.801  15.312  21.675
12194W        W16262   0.167  15.104  20.800
12195W        W16263   0.266  17.723  21.821
12196W        W16264   1.788  17.113  18.553
12197W        W16265   0.220  15.896  20.246
12198W        W16266   1.113  15.787  21.483
12199W        W16267   3.572  15.646  19.982
12200W        W16268   3.336  16.689  20.841
12201W        W16269   1.644  16.022  19.868
12202W        W16270   2.190  17.361  20.237
12203W        W16271   0.690  16.795  20.469
12204W        W16272   0.049  16.323  20.040
12205W        W16273   1.085  16.295  21.232
12206W        W16274   3.356  16.078  21.486
12207W        W16275   0.972  17.522  19.931
12208W        W16276   2.093  17.211  21.065
12209W        W16277   1.313  15.851  20.290
12210W        W16278   1.605  16.635  19.933
12211W        W16279   2.602  17.408  21.781
12212W        W16280   1.681  16.728  21.791
12213W        W16281   1.662  16.444  21.269
12214W        W16282   0.071  15.835  21.791
12215W        W16283   2.903  17.370  21.390
12216W        W16284   0.484  14.952  19.388
12217W        W16285   1.011  17.210  20.387
12218W        W16286   3.474  16.993  19.677
12219W        W16287   2.887  15.393  20.244
12220W        W16288   3.172  15.346  18.339
12221W        W16289   3.637  16.147  20.645
12222W        W16290   1.604  17.854  20.398
12223W        W16291   3.378  17.320  18.836
12224W        W16292   0.507  18.106  18.590
12225W        W16293   0.900  18.152  19.266
12226W        W16294   0.697  14.906  20.692
12227W        W16295   3.320  15.924  20.967
12228W        W16296   2.725  16.346  19.426
12229W        W16297   2.691  16.034  18.453
12230W        W16298   1.899  17.178  20.593
12231W        W16299   1.705  15.508  19.792
12232W        W16300   2.305  17.595  20.786
12233W        W16301   3.176  16.386  19.208
12234W        W16302   2.078  15.044  19.224
12235W        W16303   0.735  17.738  18.907
12236W        W16304   0.106  15.237  19.506
12237W        W16305   2.892  15.844  19.980
12238W        W16306   0.350  17.461  19.895
12239W        W16307   1.691  17.811  18.765
12240W        W16308   3.083  15.837  18.229
12241W        W16309   0.106  17.595  20.393
12242W        W16310   0.897  17.167  20.873
12243W        W16311   1.270  16.527  19.492
12244W        W16312   1.292  14.932  20.585
12245W        W16313   3.521  14.694  19.882
12246W        W16314   0.740  16.566  18.350
12247W        W16315   0.395  15.599  18.529
12248W        W16316   0.457  17.555  19.323
12249W        W16317   1.588  17.038  19.571
12250W        W16318   2.920  17.897  21.285
12251W        W16319   1.846  15.539  18.969
12252W        W16320   3.229  17.937  19.741
12253W        W16321   2.906  15.790  21.339
12254W        W16322   3.619  17.446  19.473
12255W        W16323   2.246  16.738  20.957
12256W        W16324   0.012  16.289  19.163
12257W        W16325   1.123  16.704  20.736
12258W        W16326   2.327  15.968  19.114
12259W        W16327   2.204  16.458  19.218
12260W        W16328   0.547  15.878  20.692
12261W        W16329   0.532  15.754  21.614
12262W        W16330   0.422  14.671  19.773
12263W        W16331   2.190  15.018  20.334
12264W        W16332   1.838  15.203  21.497
12265W        W16333   2.193  15.352  18.675
12266W        W16334   3.376  17.745  21.429
12267W        W16335   2.343  14.826  21.468
12268W        W16336   3.362  17.127  21.590
12269W        W16337   2.792  15.294  21.186
12270W        W16338   2.592  15.232  19.456
12271W        W16339   2.985  16.366  21.860
12272W        W16340   0.725  17.942  19.846
12273W        W16341   1.383  15.659  18.832
12274W        W16342   0.952  14.943  21.496
12275W        W16343   3.004  15.427  19.177
12276W        W16344   3.371  15.909  19.122
12277W        W16345   1.114  18.126  21.593
12278W        W16346   1.040  14.662  18.828
12279W        W16347   3.361  15.196  19.863
12280W        W16348   3.511  17.445  18.308
12281W        W16349   0.418  16.648  20.010
12282W        W16350   2.335  15.235  18.240
12283W        W16351   3.469  17.567  19.960
12284W        W16352   3.508  14.761  20.710
12285W        W16353   1.953  15.973  21.264
12286W        W16354   2.046  17.312  18.967
12287W        W16355   2.446  16.606  21.707
12288W        W16356   2.120  14.583  20.016
12289W        W16357   0.732  15.486  20.079
12290W        W16358   0.286  16.686  20.853
12291W        W16359   2.145  17.879  19.559
12292W        W16360   3.339  15.476  20.431
12293W        W16361   1.976  17.823  21.198
12294W        W16362   3.319  16.882  18.403
12295W        W16363   1.754  16.365  19.464
12296W        W16364   3.606  14.876  21.205
12297W        W16365   1.755  16.711  20.799
12298W        W16366   1.972  15.597  20.244
12299W        W16367   2.824  15.895  19.082
12300W        W16368   3.111  15.628  18.724
12301W        W16369   2.920  17.668  19.113
12302W        W16370   2.754  17.271  19.909
12303W        W16371   2.650  16.350  18.887
12304W        W16372   2.083  16.560  19.873
12305W        W16373   2.964  16.348  19.940
12306W        W16374   0.339  15.363  20.364
12307W        W16375   3.117  16.415  21.191
12308W        W16376   3.468  18.033  20.337
12309W        W16377   1.398  17.477  19.739
12310W        W16378   2.405  18.010  21.063
12311W        W16379   2.399  15.340  20.827
12312W        W16380   1.606  18.048  20.888
12313W        W16381   3.303  15.002  19.354
12314W        W16382   3.094  16.321  20.655
12315W        W16383   0.077  15.642  20.693
12316W        W16384   2.937  15.437  19.711
12317W        W16385   3.348  15.588  21.488
12318W        W16386   2.233  17.287  19.706
12319W        W16387   1.489  17.878  19.319
12320W        W16388   0.604  15.058  18.577
12321W        W16389   1.708  14.712  20.387
12322W        W16390   0.736  17.832  18.235
12323W        W16391   1.110  16.298  18.986
12324W        W16392   1.764  16.927  21.299
12325W        W16393   1.594  15.285  19.289
12326W        W16394   2.950  14.882  19.717
12327W        W16395   2.670  18.164  20.045
12328W        W16396   2.082  17.812  20.385
12329W        W16397   1.478  16.849  20.346
12330W        W16398   3.248  17.572  20.472
12331W        W16399   0.942  15.075  19.241
12332W        W16400   1.464  17.372  20.201
12333W        W16401   0.947  15.303  18.266
12334W        W16402   1.748  15.912  20.660
12335W        W16403   2.596  14.778  20.530
12336W        W16404   0.016  16.621  20.415
12337W        W16405   1.720  16.439  18.573
12338W        W16406   0.988  14.754  18.343
12339W        W16407   1.726  15.835  19.394
12340W        W16408   2.696  14.811  21.093
12341W        W16409   1.284  16.823  21.202
12342W        W16410   2.088  16.605  21.419
12343W        W16411   2.705  16.635  21.312
12344W        W16412   1.989  14.775  21.817
12345W        W16413   1.211  15.391  20.210
12346W        W16414   0.637  15.347  19.608
12347W        W16415   0.423  18.059  19.284
12348W        W16416   1.755  17.389  21.409
12349W        W16417   0.790  16.874  18.768
12350W        W16418   2.470  16.259  19.989
12351W        W16419   2.750  16.058  20.388
12352W        W16420   1.955  16.732  20.322
12353W        W16421   2.425  17.106  18.454
12354W        W16422   2.097  15.127  19.782
12355W        W16423   3.576  15.405  19.050
12356W        W16424   0.070  17.994  21.081
12357W        W16425   0.487  17.220  20.613
12358W        W16426   0.054  18.066  18.845
12359W        W16427   1.953  15.336  20.651
12360W        W16428   1.316  17.359  18.500
12361W        W16429   3.221  17.741  18.686
12362W        W16430   2.196  16.394  18.700
12363W        W16431   1.039  15.585  19.217
12364W        W16432   1.871  15.495  18.269
12365W        W16433   2.455  17.060  21.447
12366W        W16434   2.808  14.966  19.064
12367W        W16435   0.138  14.814  18.512
12368W        W16436   1.424  17.133  20.802
12369W        W16437   1.223  17.049  19.894
12370W        W16438   0.965  17.001  18.292
12371W        W16439   0.206  17.242  19.060
12372W        W16440   0.710  16.312  21.502
12373W        W16441   1.414  14.872  21.688
12374W        W16442   2.123  15.014  21.044
12375W        W16443   1.318  14.782  19.325
12376W        W16444   2.377  14.859  18.830
12377W        W16445   0.322  14.791  20.407
12378W        W16446   0.370  15.754  19.777
12379W        W16447   3.059  14.862  20.183
12380W        W16448   0.481  15.360  18.997
12381W        W16449   3.052  15.048  20.613
12382W        W16450   3.448  16.251  18.298
12383W        W16451   0.740  15.009  20.117
12384W        W16452   1.854  15.581  21.057
12385W        W16453   0.002  15.271  18.535
12386W        W16454   0.788  16.660  21.096
12387W        W16455   2.146  16.058  20.275
12388W        W16456   2.013  18.137  18.571
12389W        W16457   0.159  16.644  18.268
12390W        W16458   0.894  17.055  21.394
12391W        W16459   0.415  16.222  21.025
12392W        W16460   1.406  16.327  20.819
12393W        W16461   3.174  14.686  21.081
12394W        W16462   3.572  16.296  21.072
12395W        W16463   3.560  16.496  18.758
12396W        W16464   2.423  16.828  18.857
12397W        W16465   2.897  18.128  18.552
12398W        W16466   2.074  16.118  21.694
12399W        W16467   0.404  17.085  21.734
12400W        W16468   3.610  15.007  21.686
12401W        W16469   3.328  15.935  20.307
12402W        W16470   1.636  18.065  21.784
12403W        W16471   1.491  14.694  18.511
12404W        W16472   3.030  17.293  18.454
12405W        W16473   0.799  15.386  21.340
12406W        W16474   1.233  17.380  21.202
12407W        W16475   3.359  15.371  21.000
12408W        W16476   2.570  18.030  18.968
12409W        W16477   2.809  16.649  20.335
12410W        W16478   1.059  15.065  21.002
12411W        W16479   1.528  16.134  21.759
12412W        W16480   1.031  17.313  18.953
12413W        W16481   2.786  16.811  19.217
12414W        W16482   0.554  15.437  20.941
12415W        W16483   1.883  17.499  19.405
12416W        W16484   3.633  16.059  19.586
12417W        W16485   1.855  14.692  21.305
12418W        W16486   2.635  17.397  20.384
12419W        W16487   2.938  17.741  20.092
12420W        W16488   2.157  17.543  18.520
12421W        W16489   0.167  17.435  21.362
12422W        W16490   0.910  15.427  20.600
12423W        W16491   0.880  14.775  19.710
12424W        W16492   2.501  15.617  20.402
12425W        W16493   1.299  16.788  18.602
12426W        W16494   3.297  16.730  20.101
12427W        W16495   0.624  17.488  21.524
12428W        W16496   3.011  18.170  19.321
12429W        W16497   1.110  15.190  19.766
12430W        W16498   0.879  16.683  19.856
12431W        W16499   1.192  18.094  20.606
12432W        W16500   3.259  18.190  21.638
12433W        W16501   2.418  16.378  20.571
12434W        W16502   0.267  16.176  18.486
12435W        W16503   3.401  17.834  19.183
12436W        W16504   3.238  15.158  18.802
12437W        W16505   1.377  14.677  21.205
12438W        W16506   3.083  17.479  19.663
12439W        W16507   3.112  16.035  19.568
12440W        W16508   1.229  15.708  19.784
12441W        W16509   1.474  15.970  21.108
12442W        W16510   2.585  17.123  20.971
12443W        W16511   1.235  15.577  21.083
12444W        W16512   1.214  18.043  19.699
12445W        W16513   0.531  18.002  21.333
12446W        W16514   0.643  17.363  18.463
12447W        W16515   3.160  17.121  19.273
12448W        W16516   0.764  15.913  21.159
12449W        W16517   3.537  15.843  18.640
12450W        W16518   1.282  16.900  19.111
12451W        W16519   2.381  16.282  21.192
12452W        W16520   2.272  15.910  20.736
12453W        W16521   0.832  16.282  20.765
12454W        W16522   3.042  18.170  20.594
12455W        W16523   2.833  14.804  21.588
12456W        W16524   0.497  14.954  21.175
12457W        W16525   0.836  15.977  20.228
12458W        W16526   1.205  15.791  18.350
12459W        W16527   0.008  17.550  20.895
12460W        W16528   1.593  16.259  20.338
12461W        W16529   1.416  15.284  18.443
12462W        W16530   0.551  16.100  19.224
12463W        W16531   0.322  17.952  20.661
12464W        W16532   3.117  16.178  18.769
12465W        W16533   3.212  15.094  21.455
12466W        W16534   2.648  17.303  19.418
12467W        W16535   0.246  16.227  21.595
12468W        W16536   3.212  14.691  18.891
12469W        W16537   2.732  17.166  18.902
12470W        W16538   1.634  16.224  18.987
12471W        W16539   2.821  15.028  18.510
12472W        W16540   2.886  15.635  20.696
12473W        W16541   0.595  16.228  19.903
12474W        W16542   0.889  17.167  19.552
12475W        W16543   2.652  15.787  19.517
12476W        W16544   1.675  15.166  20.213
12477W        W16545   3.637  17.077  20.724
12478W        W16546   3.555  15.064  20.285
12479W        W16547   0.094  17.894  19.661
12480W        W16548   0.603  17.081  19.197
12481W        W16549   0.518  14.698  21.750
12482W        W16550   1.637  17.551  21.852
12483W        W16551   3.392  16.519  19.642
12484W        W16552   2.746  16.696  18.522
12485W        W16553   2.041  18.217  20.734
12486W        W16554   2.898  16.939  21.771
12487W        W16555   1.713  14.649  19.051
12488W        W16556   2.426  15.518  19.910
12489W        W16557   0.112  17.105  20.242
12490W        W16558   1.365  15.067  18.883
12491W        W16559   1.169  16.551  21.732
12492W        W16560   2.163  15.532  19.446
12493W        W16561   2.368  16.942  20.568
12494W        W16562   0.522  17.547  21.003
12495W        W16563   1.113  17.530  21.726
12496W        W16564   0.964  15.327  18.740
12497W        W16565   2.481  15.469  19.065
12498W        W16566   2.439  17.577  21.302
12499W        W16567   1.124  16.169  19.901
12500W        W16568   0.779  17.867  20.766
12501W        W16569   3.524  17.984  18.367
12502W        W16570   0.387  16.656  21.363
12503W        W16571   2.382  16.918  20.051
12504W        W16572   0.818  16.567  19.293
12505W        W16573   1.189  17.574  20.688
12506W        W16574   1.567  14.993  19.729
12507W        W16575   0.178  16.977  18.659
12508W        W16576   1.697  15.928  18.529
12509W        W16577   0.343  16.477  19.548
12510W        W16578   1.633  15.119  21.012
12511W        W16579   3.305  14.828  18.439
12512W        W16580   3.398  16.574  21.538
12513W        W16581   2.052  17.831  21.690
12514W        W16582   3.610  16.925  21.212
12515W        W16583   3.018  17.723  21.823
12516W        W16584   0.757  18.179  20.301
12517W        W16585   3.616  16.801  19.175
12518W        W16586   2.146  16.068  19.688
12519W        W16587   1.913  14.680  19.578
12520W        W16588   0.972  17.664  19.415
12521W        W16589   1.471  15.405  20.640
12522W        W16590   1.171  14.774  20.109
12523W        W16591   0.234  17.596  18.657
12524W        W16592   2.050  16.960  19.375
12525W        W16593   0.925  17.755  21.254
12526W        W16594   0.402  16.578  18.950
12527W        W16595   0.287  15.121  19.949
12528W        W16596   1.835  17.086  20.006
12529W        W16597   0.087  14.940  19.026
12530W        W16598   2.751  16.146  20.953
12531W        W16599   2.628  15.532  18.525
12532W        W16600   3.145  17.204  20.173
12533W        W16601   1.806  17.688  20.004
12534W        W16602   1.218  17.792  18.915
12535W        W16603   2.500  14.695  18.345
12536W        W16604   0.300  17.955  20.086
12537W        W16605   2.497  15.713  21.721
12538W        W16606   0.480  15.243  21.720
12539W        W16607   0.211  15.843  19.053
12540W        W16608   0.902  15.832  18.778
12541W        W16609   2.665  16.159  21.595
12542W        W16610   1.008  16.440  20.304
12543W        W16611   2.482  14.726  19.424
12544W        W16612   1.613  18.157  19.927
12545W        W16613   2.827  17.619  20.864
12546W        W16614   2.411  17.768  19.975
12547W        W16615   2.430  16.748  19.569
12548W        W16616   1.892  14.973  18.640
12549W        W16617   3.573  14.601  19.362
12550W        W16618   1.261  16.236  18.525
12551W        W16619   3.427  15.573  19.515
12552W        W16620   2.119  16.743  18.392
12553W        W16621   3.055  16.943  21.140
12554W        W16622   2.709  17.644  18.607
12555W        W16623   1.324  15.319  21.513
12556W        W16624   1.144  15.903  20.754
12557W        W16625   3.236  17.398  21.031
12558W        W16626   2.336  15.348  21.408
12559W        W16627   0.180  15.819  21.185
12560W        W16628   1.940  16.296  20.911
12561W        W16629   0.297  17.054  19.568
12562W        W16630   0.444  16.351  20.458
12563W        W16631   2.761  16.637  20.808
12564W        W16632   2.533  18.017  21.619
12565W        W16633   2.429  15.756  21.172
12566W        W16634   2.706  17.810  19.577
12567W        W16635   1.708  17.530  20.900
12568W        W16636   1.193  17.885  20.169
12569W        W16637   2.998  17.056  20.588
12570W        W16638   2.048  17.128  21.725
12571W        W16639   0.653  17.081  20.064
12572W        W16640   2.999  16.840  19.709
12573W        W16641   2.640  17.906  20.460
12574W        W16642   0.618  17.635  20.330
12575W        W16643   1.639  15.687  21.540
12576W        W16644   2.090  17.853  19.051
12577W        W16645   1.398  17.108  21.689
12578W        W16646   1.524  17.346  19.066
12579W        W16647   0.745  16.086  18.325
12580W        W16648   3.165  16.795  22.518
12581W        W16649   1.213  17.871  22.071
12582W        W16650   1.296  16.023  23.054
12583W        W16651   0.811  15.871  23.218
12584W        W16652   1.802  16.686  22.652
12585W        W16653   2.231  15.878  22.229
12586W        W16654   1.788  17.113  22.198
12587W        W16655   0.484  14.952  23.033
12588W        W16656   3.172  15.346  21.984
12589W        W16657   3.378  17.320  22.481
12590W        W16658   0.507  18.106  22.235
12591W        W16659   0.900  18.152  22.911
12592W        W16660   2.725  16.346  23.071
12593W        W16661   2.691  16.034  22.098
12594W        W16662   3.176  16.386  22.853
12595W        W16663   2.078  15.044  22.869
12596W        W16664   0.735  17.738  22.552
12597W        W16665   1.691  17.811  22.410
12598W        W16666   3.083  15.837  21.874
12599W        W16667   1.270  16.527  23.137
12600W        W16668   0.740  16.566  21.995
12601W        W16669   0.395  15.599  22.174
12602W        W16670   0.457  17.555  22.968
12603W        W16671   1.588  17.038  23.216
12604W        W16672   1.846  15.539  22.614
12605W        W16673   0.012  16.289  22.808
12606W        W16674   2.327  15.968  22.759
12607W        W16675   2.204  16.458  22.863
12608W        W16676   2.193  15.352  22.320
12609W        W16677   2.592  15.232  23.101
12610W        W16678   1.383  15.659  22.477
12611W        W16679   3.004  15.427  22.822
12612W        W16680   3.371  15.909  22.767
12613W        W16681   1.040  14.662  22.473
12614W        W16682   3.511  17.445  21.953
12615W        W16683   2.335  15.235  21.885
12616W        W16684   2.046  17.312  22.612
12617W        W16685   2.145  17.879  23.204
12618W        W16686   3.319  16.882  22.048
12619W        W16687   1.754  16.365  23.109
12620W        W16688   2.824  15.895  22.727
12621W        W16689   3.111  15.628  22.369
12622W        W16690   2.920  17.668  22.758
12623W        W16691   2.650  16.350  22.532
12624W        W16692   3.303  15.002  22.999
12625W        W16693   1.489  17.878  22.964
12626W        W16694   0.604  15.058  22.222
12627W        W16695   0.736  17.832  21.880
12628W        W16696   1.110  16.298  22.631
12629W        W16697   1.594  15.285  22.934
12630W        W16698   0.942  15.075  22.886
12631W        W16699   0.947  15.303  21.911
12632W        W16700   1.720  16.439  22.218
12633W        W16701   0.988  14.754  21.988
12634W        W16702   1.726  15.835  23.039
12635W        W16703   0.637  15.347  23.253
12636W        W16704   0.423  18.059  22.929
12637W        W16705   0.790  16.874  22.413
12638W        W16706   2.425  17.106  22.099
12639W        W16707   3.576  15.405  22.695
12640W        W16708   0.054  18.066  22.490
12641W        W16709   1.316  17.359  22.145
12642W        W16710   3.221  17.741  22.331
12643W        W16711   2.196  16.394  22.345
12644W        W16712   1.039  15.585  22.862
12645W        W16713   1.871  15.495  21.914
12646W        W16714   2.808  14.966  22.709
12647W        W16715   0.138  14.814  22.157
12648W        W16716   0.965  17.001  21.937
12649W        W16717   0.206  17.242  22.705
12650W        W16718   1.318  14.782  22.970
12651W        W16719   2.377  14.859  22.475
12652W        W16720   0.481  15.360  22.642
12653W        W16721   3.448  16.251  21.943
12654W        W16722   0.002  15.271  22.180
12655W        W16723   2.013  18.137  22.216
12656W        W16724   0.159  16.644  21.913
12657W        W16725   3.560  16.496  22.403
12658W        W16726   2.423  16.828  22.502
12659W        W16727   2.897  18.128  22.197
12660W        W16728   1.491  14.694  22.156
12661W        W16729   3.030  17.293  22.099
12662W        W16730   2.570  18.030  22.613
12663W        W16731   1.031  17.313  22.598
12664W        W16732   2.786  16.811  22.862
12665W        W16733   1.883  17.499  23.050
12666W        W16734   3.633  16.059  23.231
12667W        W16735   2.157  17.543  22.165
12668W        W16736   1.299  16.788  22.247
12669W        W16737   3.011  18.170  22.966
12670W        W16738   0.267  16.176  22.131
12671W        W16739   3.401  17.834  22.828
12672W        W16740   3.238  15.158  22.447
12673W        W16741   3.112  16.035  23.213
12674W        W16742   0.643  17.363  22.108
12675W        W16743   3.160  17.121  22.918
12676W        W16744   3.537  15.843  22.285
12677W        W16745   1.282  16.900  22.756
12678W        W16746   1.205  15.791  21.995
12679W        W16747   1.416  15.284  22.088
12680W        W16748   0.551  16.100  22.869
12681W        W16749   3.117  16.178  22.414
12682W        W16750   2.648  17.303  23.063
12683W        W16751   3.212  14.691  22.536
12684W        W16752   2.732  17.166  22.547
12685W        W16753   1.634  16.224  22.632
12686W        W16754   2.821  15.028  22.155
12687W        W16755   0.889  17.167  23.197
12688W        W16756   2.652  15.787  23.162
12689W        W16757   0.094  17.894  23.306
12690W        W16758   0.603  17.081  22.842
12691W        W16759   3.392  16.519  23.287
12692W        W16760   2.746  16.696  22.167
12693W        W16761   1.713  14.649  22.696
12694W        W16762   1.365  15.067  22.528
12695W        W16763   2.163  15.532  23.091
12696W        W16764   0.964  15.327  22.385
12697W        W16765   2.481  15.469  22.710
12698W        W16766   3.524  17.984  22.012
12699W        W16767   0.178  16.977  22.304
12700W        W16768   1.697  15.928  22.174
12701W        W16769   0.343  16.477  23.193
12702W        W16770   3.305  14.828  22.084
12703W        W16771   3.616  16.801  22.820
12704W        W16772   1.913  14.680  23.223
12705W        W16773   0.972  17.664  23.060
12706W        W16774   0.234  17.596  22.302
12707W        W16775   2.050  16.960  23.020
12708W        W16776   0.402  16.578  22.595
12709W        W16777   0.087  14.940  22.671
12710W        W16778   2.628  15.532  22.170
12711W        W16779   1.218  17.792  22.560
12712W        W16780   2.500  14.695  21.990
12713W        W16781   0.211  15.843  22.698
12714W        W16782   0.902  15.832  22.423
12715W        W16783   2.430  16.748  23.214
12716W        W16784   1.892  14.973  22.285
12717W        W16785   3.573  14.601  23.007
12718W        W16786   1.261  16.236  22.170
12719W        W16787   3.427  15.573  23.160
12720W        W16788   2.119  16.743  22.037
12721W        W16789   2.709  17.644  22.252
12722W        W16790   0.297  17.054  23.213
12723W        W16791   2.706  17.810  23.222
12724W        W16792   2.090  17.853  22.696
12725W        W16793   1.524  17.346  22.711
12726W        W16794   0.745  16.086  21.970
12727W        W16795   0.084  21.816   3.359
12728W        W16796   0.460  20.709   2.882
12729W        W16797   3.165  20.439   0.652
12730W        W16798   3.295  21.524   2.679
12731W        W16799   1.213  21.515   0.205
12732W        W16800   1.296  19.667   1.188
12733W        W16801   0.811  19.515   1.352
12734W        W16802   1.802  20.330   0.786
12735W        W16803   1.477  21.422   3.141
12736W        W16804   0.126  18.983   3.104
12737W        W16805   0.888  18.263   2.906
12738W        W16806   2.582  18.651   1.793
12739W        W16807   2.231  19.522   0.363
12740W        W16808   2.801  18.956   3.454
12741W        W16809   0.167  18.748   2.579
12742W        W16810   0.266  21.367   3.600
12743W        W16811   1.788  20.757   0.332
12744W        W16812   0.220  19.540   2.025
12745W        W16813   1.113  19.431   3.262
12746W        W16814   3.572  19.290   1.761
12747W        W16815   3.336  20.333   2.620
12748W        W16816   1.644  19.666   1.647
12749W        W16817   2.190  21.005   2.016
12750W        W16818   0.690  20.439   2.248
12751W        W16819   0.049  19.967   1.819
12752W        W16820   1.085  19.939   3.011
12753W        W16821   3.356  19.722   3.265
12754W        W16822   0.972  21.166   1.710
12755W        W16823   2.093  20.855   2.844
12756W        W16824   1.313  19.495   2.069
12757W        W16825   1.605  20.279   1.712
12758W        W16826   2.602  21.052   3.560
12759W        W16827   1.681  20.372   3.570
12760W        W16828   1.662  20.088   3.048
12761W        W16829   0.071  19.479   3.570
12762W        W16830   2.903  21.014   3.169
12763W        W16831   0.484  18.596   1.167
12764W        W16832   1.011  20.854   2.166
12765W        W16833   3.474  20.637   1.456
12766W        W16834   2.887  19.037   2.023
12767W        W16835   3.172  18.990   0.118
12768W        W16836   3.637  19.791   2.424
12769W        W16837   1.604  21.498   2.177
12770W        W16838   3.378  20.964   0.615
12771W        W16839   0.507  21.750   0.369
12772W        W16840   0.900  21.796   1.045
12773W        W16841   0.697  18.550   2.471
12774W        W16842   3.320  19.568   2.746
12775W        W16843   2.725  19.990   1.205
12776W        W16844   2.691  19.678   0.232
12777W        W16845   1.899  20.822   2.372
12778W        W16846   1.705  19.152   1.571
12779W        W16847   2.305  21.239   2.565
12780W        W16848   3.176  20.030   0.987
12781W        W16849   2.078  18.688   1.003
12782W        W16850   0.735  21.382   0.686
12783W        W16851   0.106  18.881   1.285
12784W        W16852   2.892  19.488   1.759
12785W        W16853   0.350  21.105   1.674
12786W        W16854   1.691  21.455   0.544
12787W        W16855   3.083  19.481   0.008
12788W        W16856   0.106  21.239   2.172
12789W        W16857   0.897  20.811   2.652
12790W        W16858   1.270  20.171   1.271
12791W        W16859   1.292  18.576   2.364
12792W        W16860   3.521  18.338   1.661
12793W        W16861   0.740  20.210   0.129
12794W        W16862   0.395  19.243   0.308
12795W        W16863   0.457  21.199   1.102
12796W        W16864   1.588  20.682   1.350
12797W        W16865   2.920  21.541   3.064
12798W        W16866   1.846  19.183   0.748
12799W        W16867   3.229  21.581   1.520
12800W        W16868   2.906  19.434   3.118
12801W        W16869   3.619  21.090   1.252
12802W        W16870   2.246  20.382   2.736
12803W        W16871   0.012  19.933   0.942
12804W        W16872   1.123  20.348   2.515
12805W        W16873   2.327  19.612   0.893
12806W        W16874   2.204  20.102   0.997
12807W        W16875   0.547  19.522   2.471
12808W        W16876   0.532  19.398   3.393
12809W        W16877   0.422  18.315   1.552
12810W        W16878   2.190  18.662   2.113
12811W        W16879   1.838  18.847   3.276
12812W        W16880   2.193  18.996   0.454
12813W        W16881   3.376  21.389   3.208
12814W        W16882   2.343  18.470   3.247
12815W        W16883   3.362  20.771   3.369
12816W        W16884   2.792  18.938   2.965
12817W        W16885   2.592  18.876   1.235
12818W        W16886   2.985  20.010   3.639
12819W        W16887   0.725  21.586   1.625
12820W        W16888   1.383  19.303   0.611
12821W        W16889   0.952  18.587   3.275
12822W        W16890   3.004  19.071   0.956
12823W        W16891   3.371  19.553   0.901
12824W        W16892   1.114  21.770   3.372
12825W        W16893   1.040  18.306   0.607
12826W        W16894   3.361  18.840   1.642
12827W        W16895   3.511  21.089   0.087
12828W        W16896   0.418  20.292   1.789
12829W        W16897   2.335  18.879   0.019
12830W        W16898   3.469  21.211   1.739
12831W        W16899   3.508  18.405   2.489
12832W        W16900   1.953  19.617   3.043
12833W        W16901   2.046  20.956   0.746
12834W        W16902   2.446  20.250   3.486
12835W        W16903   2.120  18.227   1.795
12836W        W16904   0.732  19.130   1.858
12837W        W16905   0.286  20.330   2.632
12838W        W16906   2.145  21.523   1.338
12839W        W16907   3.339  19.120   2.210
12840W        W16908   1.976  21.467   2.977
12841W        W16909   3.319  20.526   0.182
12842W        W16910   1.754  20.009   1.243
12843W        W16911   3.606  18.520   2.984
12844W        W16912   1.755  20.355   2.578
12845W        W16913   1.972  19.241   2.023
12846W        W16914   2.824  19.539   0.861
12847W        W16915   3.111  19.272   0.503
12848W        W16916   2.920  21.312   0.892
12849W        W16917   2.754  20.915   1.688
12850W        W16918   2.650  19.994   0.666
12851W        W16919   2.083  20.204   1.652
12852W        W16920   2.964  19.992   1.719
12853W        W16921   0.339  19.007   2.143
12854W        W16922   3.117  20.059   2.970
12855W        W16923   3.468  21.677   2.116
12856W        W16924   1.398  21.121   1.518
12857W        W16925   2.405  21.654   2.842
12858W        W16926   2.399  18.984   2.606
12859W        W16927   1.606  21.692   2.667
12860W        W16928   3.303  18.646   1.133
12861W        W16929   3.094  19.965   2.434
12862W        W16930   0.077  19.286   2.472
12863W        W16931   2.937  19.081   1.490
12864W        W16932   3.348  19.232   3.267
12865W        W16933   2.233  20.931   1.485
12866W        W16934   1.489  21.522   1.098
12867W        W16935   0.604  18.702   0.356
12868W        W16936   1.708  18.356   2.166
12869W        W16937   0.736  21.476   0.014
12870W        W16938   1.110  19.942   0.765
12871W        W16939   1.764  20.571   3.078
12872W        W16940   1.594  18.929   1.068
12873W        W16941   2.950  18.526   1.496
12874W        W16942   2.670  21.808   1.824
12875W        W16943   2.082  21.456   2.164
12876W        W16944   1.478  20.493   2.125
12877W        W16945   3.248  21.216   2.251
12878W        W16946   0.942  18.719   1.020
12879W        W16947   1.464  21.016   1.980
12880W        W16948   0.947  18.947   0.045
12881W        W16949   1.748  19.556   2.439
12882W        W16950   2.596  18.422   2.309
12883W        W16951   0.016  20.265   2.194
12884W        W16952   1.720  20.083   0.352
12885W        W16953   0.988  18.398   0.122
12886W        W16954   1.726  19.479   1.173
12887W        W16955   2.696  18.455   2.872
12888W        W16956   1.284  20.467   2.981
12889W        W16957   2.088  20.249   3.198
12890W        W16958   2.705  20.279   3.091
12891W        W16959   1.989  18.419   3.596
12892W        W16960   1.211  19.035   1.989
12893W        W16961   0.637  18.991   1.387
12894W        W16962   0.423  21.703   1.063
12895W        W16963   1.755  21.033   3.188
12896W        W16964   0.790  20.518   0.547
12897W        W16965   2.470  19.903   1.768
12898W        W16966   2.750  19.702   2.167
12899W        W16967   1.955  20.376   2.101
12900W        W16968   2.425  20.750   0.233
12901W        W16969   2.097  18.771   1.561
12902W        W16970   3.576  19.049   0.829
12903W        W16971   0.070  21.638   2.860
12904W        W16972   0.487  20.864   2.392
12905W        W16973   0.054  21.710   0.624
12906W        W16974   1.953  18.980   2.430
12907W        W16975   1.316  21.003   0.279
12908W        W16976   3.221  21.385   0.465
12909W        W16977   2.196  20.038   0.479
12910W        W16978   1.039  19.229   0.996
12911W        W16979   1.871  19.139   0.048
12912W        W16980   2.455  20.704   3.226
12913W        W16981   2.808  18.610   0.843
12914W        W16982   0.138  18.458   0.291
12915W        W16983   1.424  20.777   2.581
12916W        W16984   1.223  20.693   1.673
12917W        W16985   0.965  20.645   0.071
12918W        W16986   0.206  20.886   0.839
12919W        W16987   0.710  19.956   3.281
12920W        W16988   1.414  18.516   3.467
12921W        W16989   2.123  18.658   2.823
12922W        W16990   1.318  18.426   1.104
12923W        W16991   2.377  18.503   0.609
12924W        W16992   0.322  18.435   2.186
12925W        W16993   0.370  19.398   1.556
12926W        W16994   3.059  18.506   1.962
12927W        W16995   0.481  19.004   0.776
12928W        W16996   3.052  18.692   2.392
12929W        W16997   3.448  19.895   0.077
12930W        W16998   0.740  18.653   1.896
12931W        W16999   1.854  19.225   2.836
12932W        W17000   0.002  18.915   0.314
12933W        W17001   0.788  20.304   2.875
12934W        W17002   2.146  19.702   2.054
12935W        W17003   2.013  21.781   0.350
12936W        W17004   0.159  20.288   0.047
12937W        W17005   0.894  20.699   3.173
12938W        W17006   0.415  19.866   2.804
12939W        W17007   1.406  19.971   2.598
12940W        W17008   3.174  18.330   2.860
12941W        W17009   3.572  19.940   2.851
12942W        W17010   3.560  20.140   0.537
12943W        W17011   2.423  20.472   0.636
12944W        W17012   2.897  21.772   0.331
12945W        W17013   2.074  19.762   3.473
12946W        W17014   0.404  20.729   3.513
12947W        W17015   3.610  18.651   3.465
12948W        W17016   3.328  19.579   2.086
12949W        W17017   1.636  21.709   3.563
12950W        W17018   1.491  18.338   0.290
12951W        W17019   3.030  20.937   0.233
12952W        W17020   0.799  19.030   3.119
12953W        W17021   1.233  21.024   2.981
12954W        W17022   3.359  19.015   2.779
12955W        W17023   2.570  21.674   0.747
12956W        W17024   2.809  20.293   2.114
12957W        W17025   1.059  18.709   2.781
12958W        W17026   1.528  19.778   3.538
12959W        W17027   1.031  20.957   0.732
12960W        W17028   2.786  20.455   0.996
12961W        W17029   0.554  19.081   2.720
12962W        W17030   1.883  21.143   1.184
12963W        W17031   3.633  19.703   1.365
12964W        W17032   1.855  18.336   3.084
12965W        W17033   2.635  21.041   2.163
12966W        W17034   2.938  21.385   1.871
12967W        W17035   2.157  21.187   0.299
12968W        W17036   0.167  21.079   3.141
12969W        W17037   0.910  19.071   2.379
12970W        W17038   0.880  18.419   1.489
12971W        W17039   2.501  19.261   2.181
12972W        W17040   1.299  20.432   0.381
12973W        W17041   3.297  20.374   1.880
12974W        W17042   0.624  21.132   3.303
12975W        W17043   3.011  21.814   1.100
12976W        W17044   1.110  18.834   1.545
12977W        W17045   0.879  20.327   1.635
12978W        W17046   1.192  21.738   2.385
12979W        W17047   3.259  21.834   3.417
12980W        W17048   2.418  20.022   2.350
12981W        W17049   0.267  19.820   0.265
12982W        W17050   3.401  21.478   0.962
12983W        W17051   3.238  18.802   0.581
12984W        W17052   1.377  18.321   2.984
12985W        W17053   3.083  21.123   1.442
12986W        W17054   3.112  19.679   1.347
12987W        W17055   1.229  19.352   1.563
12988W        W17056   1.474  19.614   2.887
12989W        W17057   2.585  20.767   2.750
12990W        W17058   1.235  19.221   2.862
12991W        W17059   1.214  21.687   1.478
12992W        W17060   0.531  21.646   3.112
12993W        W17061   0.643  21.007   0.242
12994W        W17062   3.160  20.765   1.052
12995W        W17063   0.764  19.557   2.938
12996W        W17064   3.537  19.487   0.419
12997W        W17065   1.282  20.544   0.890
12998W        W17066   2.381  19.926   2.971
12999W        W17067   2.272  19.554   2.515
13000W        W17068   0.832  19.926   2.544
13001W        W17069   3.042  21.814   2.373
13002W        W17070   2.833  18.448   3.367
13003W        W17071   0.497  18.598   2.954
13004W        W17072   0.836  19.621   2.007
13005W        W17073   1.205  19.435   0.129
13006W        W17074   0.008  21.194   2.674
13007W        W17075   1.593  19.903   2.117
13008W        W17076   1.416  18.928   0.222
13009W        W17077   0.551  19.744   1.003
13010W        W17078   0.322  21.596   2.440
13011W        W17079   3.117  19.822   0.548
13012W        W17080   3.212  18.738   3.234
13013W        W17081   2.648  20.947   1.197
13014W        W17082   0.246  19.871   3.374
13015W        W17083   3.212  18.335   0.670
13016W        W17084   2.732  20.810   0.681
13017W        W17085   1.634  19.868   0.766
13018W        W17086   2.821  18.672   0.289
13019W        W17087   2.886  19.279   2.475
13020W        W17088   0.595  19.872   1.682
13021W        W17089   0.889  20.811   1.331
13022W        W17090   2.652  19.431   1.296
13023W        W17091   1.675  18.810   1.992
13024W        W17092   3.637  20.721   2.503
13025W        W17093   3.555  18.708   2.064
13026W        W17094   0.094  21.538   1.440
13027W        W17095   0.603  20.725   0.976
13028W        W17096   0.518  18.342   3.529
13029W        W17097   1.637  21.195   3.631
13030W        W17098   3.392  20.163   1.421
13031W        W17099   2.746  20.340   0.301
13032W        W17100   2.041  21.861   2.513
13033W        W17101   2.898  20.583   3.550
13034W        W17102   1.713  18.293   0.830
13035W        W17103   2.426  19.162   1.689
13036W        W17104   0.112  20.749   2.021
13037W        W17105   1.365  18.711   0.662
13038W        W17106   1.169  20.195   3.511
13039W        W17107   2.163  19.176   1.225
13040W        W17108   2.368  20.586   2.347
13041W        W17109   0.522  21.191   2.782
13042W        W17110   1.113  21.174   3.505
13043W        W17111   0.964  18.971   0.519
13044W        W17112   2.481  19.113   0.844
13045W        W17113   2.439  21.221   3.081
13046W        W17114   1.124  19.813   1.680
13047W        W17115   0.779  21.511   2.545
13048W        W17116   3.524  21.628   0.146
13049W        W17117   0.387  20.300   3.142
13050W        W17118   2.382  20.562   1.830
13051W        W17119   0.818  20.211   1.072
13052W        W17120   1.189  21.218   2.467
13053W        W17121   1.567  18.637   1.508
13054W        W17122   0.178  20.621   0.438
13055W        W17123   1.697  19.572   0.308
13056W        W17124   0.343  20.121   1.327
13057W        W17125   1.633  18.763   2.791
13058W        W17126   3.305  18.472   0.218
13059W        W17127   3.398  20.218   3.317
13060W        W17128   2.052  21.475   3.469
13061W        W17129   3.610  20.569   2.991
13062W        W17130   3.018  21.367   3.602
13063W        W17131   0.757  21.823   2.080
13064W        W17132   3.616  20.445   0.954
13065W        W17133   2.146  19.712   1.467
13066W        W17134   1.913  18.324   1.357
13067W        W17135   0.972  21.308   1.194
13068W        W17136   1.471  19.049   2.419
13069W        W17137   1.171  18.418   1.888
13070W        W17138   0.234  21.240   0.436
13071W        W17139   2.050  20.604   1.154
13072W        W17140   0.925  21.399   3.033
13073W        W17141   0.402  20.222   0.729
13074W        W17142   0.287  18.765   1.728
13075W        W17143   1.835  20.730   1.785
13076W        W17144   0.087  18.584   0.805
13077W        W17145   2.751  19.790   2.732
13078W        W17146   2.628  19.176   0.304
13079W        W17147   3.145  20.848   1.952
13080W        W17148   1.806  21.332   1.783
13081W        W17149   1.218  21.436   0.694
13082W        W17150   2.500  18.339   0.124
13083W        W17151   0.300  21.599   1.865
13084W        W17152   2.497  19.357   3.500
13085W        W17153   0.480  18.887   3.499
13086W        W17154   0.211  19.487   0.832
13087W        W17155   0.902  19.476   0.557
13088W        W17156   2.665  19.803   3.374
13089W        W17157   1.008  20.084   2.083
13090W        W17158   2.482  18.370   1.203
13091W        W17159   1.613  21.801   1.706
13092W        W17160   2.827  21.263   2.643
13093W        W17161   2.411  21.412   1.754
13094W        W17162   2.430  20.392   1.348
13095W        W17163   1.892  18.617   0.419
13096W        W17164   3.573  18.245   1.141
13097W        W17165   1.261  19.880   0.304
13098W        W17166   3.427  19.217   1.294
13099W        W17167   2.119  20.387   0.171
13100W        W17168   3.055  20.587   2.919
13101W        W17169   2.709  21.288   0.386
13102W        W17170   1.324  18.963   3.292
13103W        W17171   1.144  19.547   2.533
13104W        W17172   3.236  21.042   2.810
13105W        W17173   2.336  18.992   3.187
13106W        W17174   0.180  19.463   2.964
13107W        W17175   1.940  19.940   2.690
13108W        W17176   0.297  20.698   1.347
13109W        W17177   0.444  19.995   2.237
13110W        W17178   2.761  20.281   2.587
13111W        W17179   2.533  21.661   3.398
13112W        W17180   2.429  19.400   2.951
13113W        W17181   2.706  21.454   1.356
13114W        W17182   1.708  21.174   2.679
13115W        W17183   1.193  21.529   1.948
13116W        W17184   2.998  20.700   2.367
13117W        W17185   2.048  20.772   3.504
13118W        W17186   0.653  20.725   1.843
13119W        W17187   2.999  20.484   1.488
13120W        W17188   2.640  21.550   2.239
13121W        W17189   0.618  21.279   2.109
13122W        W17190   1.639  19.331   3.319
13123W        W17191   2.090  21.497   0.830
13124W        W17192   1.398  20.752   3.468
13125W        W17193   1.524  20.990   0.845
13126W        W17194   0.745  19.730   0.104
13127W        W17195   0.084  21.816   7.003
13128W        W17196   0.460  20.709   6.526
13129W        W17197   3.165  20.439   4.296
13130W        W17198   3.295  21.524   6.323
13131W        W17199   1.213  21.515   3.849
13132W        W17200   1.296  19.667   4.832
13133W        W17201   0.811  19.515   4.996
13134W        W17202   1.802  20.330   4.430
13135W        W17203   1.477  21.422   6.785
13136W        W17204   0.126  18.983   6.748
13137W        W17205   0.888  18.263   6.550
13138W        W17206   2.582  18.651   5.437
13139W        W17207   2.231  19.522   4.007
13140W        W17208   2.801  18.956   7.098
13141W        W17209   0.167  18.748   6.223
13142W        W17210   0.266  21.367   7.244
13143W        W17211   1.788  20.757   3.976
13144W        W17212   0.220  19.540   5.669
13145W        W17213   1.113  19.431   6.906
13146W        W17214   3.572  19.290   5.405
13147W        W17215   3.336  20.333   6.264
13148W        W17216   1.644  19.666   5.291
13149W        W17217   2.190  21.005   5.660
13150W        W17218   0.690  20.439   5.892
13151W        W17219   0.049  19.967   5.463
13152W        W17220   1.085  19.939   6.655
13153W        W17221   3.356  19.722   6.909
13154W        W17222   0.972  21.166   5.354
13155W        W17223   2.093  20.855   6.488
13156W        W17224   1.313  19.495   5.713
13157W        W17225   1.605  20.279   5.356
13158W        W17226   2.602  21.052   7.204
13159W        W17227   1.681  20.372   7.214
13160W        W17228   1.662  20.088   6.692
13161W        W17229   0.071  19.479   7.214
13162W        W17230   2.903  21.014   6.813
13163W        W17231   0.484  18.596   4.811
13164W        W17232   1.011  20.854   5.810
13165W        W17233   3.474  20.637   5.100
13166W        W17234   2.887  19.037   5.667
13167W        W17235   3.172  18.990   3.762
13168W        W17236   3.637  19.791   6.068
13169W        W17237   1.604  21.498   5.821
13170W        W17238   3.378  20.964   4.259
13171W        W17239   0.507  21.750   4.013
13172W        W17240   0.900  21.796   4.689
13173W        W17241   0.697  18.550   6.115
13174W        W17242   3.320  19.568   6.390
13175W        W17243   2.725  19.990   4.849
13176W        W17244   2.691  19.678   3.876
13177W        W17245   1.899  20.822   6.016
13178W        W17246   1.705  19.152   5.215
13179W        W17247   2.305  21.239   6.209
13180W        W17248   3.176  20.030   4.631
13181W        W17249   2.078  18.688   4.647
13182W        W17250   0.735  21.382   4.330
13183W        W17251   0.106  18.881   4.929
13184W        W17252   2.892  19.488   5.403
13185W        W17253   0.350  21.105   5.318
13186W        W17254   1.691  21.455   4.188
13187W        W17255   3.083  19.481   3.652
13188W        W17256   0.106  21.239   5.816
13189W        W17257   0.897  20.811   6.296
13190W        W17258   1.270  20.171   4.915
13191W        W17259   1.292  18.576   6.008
13192W        W17260   3.521  18.338   5.305
13193W        W17261   0.740  20.210   3.773
13194W        W17262   0.395  19.243   3.952
13195W        W17263   0.457  21.199   4.746
13196W        W17264   1.588  20.682   4.994
13197W        W17265   2.920  21.541   6.708
13198W        W17266   1.846  19.183   4.392
13199W        W17267   3.229  21.581   5.164
13200W        W17268   2.906  19.434   6.762
13201W        W17269   3.619  21.090   4.896
13202W        W17270   2.246  20.382   6.380
13203W        W17271   0.012  19.933   4.586
13204W        W17272   1.123  20.348   6.159
13205W        W17273   2.327  19.612   4.537
13206W        W17274   2.204  20.102   4.641
13207W        W17275   0.547  19.522   6.115
13208W        W17276   0.532  19.398   7.037
13209W        W17277   0.422  18.315   5.196
13210W        W17278   2.190  18.662   5.757
13211W        W17279   1.838  18.847   6.920
13212W        W17280   2.193  18.996   4.098
13213W        W17281   3.376  21.389   6.852
13214W        W17282   2.343  18.470   6.891
13215W        W17283   3.362  20.771   7.013
13216W        W17284   2.792  18.938   6.609
13217W        W17285   2.592  18.876   4.879
13218W        W17286   2.985  20.010   7.283
13219W        W17287   0.725  21.586   5.269
13220W        W17288   1.383  19.303   4.255
13221W        W17289   0.952  18.587   6.919
13222W        W17290   3.004  19.071   4.600
13223W        W17291   3.371  19.553   4.545
13224W        W17292   1.114  21.770   7.016
13225W        W17293   1.040  18.306   4.251
13226W        W17294   3.361  18.840   5.286
13227W        W17295   3.511  21.089   3.731
13228W        W17296   0.418  20.292   5.433
13229W        W17297   2.335  18.879   3.663
13230W        W17298   3.469  21.211   5.383
13231W        W17299   3.508  18.405   6.133
13232W        W17300   1.953  19.617   6.687
13233W        W17301   2.046  20.956   4.390
13234W        W17302   2.446  20.250   7.130
13235W        W17303   2.120  18.227   5.439
13236W        W17304   0.732  19.130   5.502
13237W        W17305   0.286  20.330   6.276
13238W        W17306   2.145  21.523   4.982
13239W        W17307   3.339  19.120   5.854
13240W        W17308   1.976  21.467   6.621
13241W        W17309   3.319  20.526   3.826
13242W        W17310   1.754  20.009   4.887
13243W        W17311   3.606  18.520   6.628
13244W        W17312   1.755  20.355   6.222
13245W        W17313   1.972  19.241   5.667
13246W        W17314   2.824  19.539   4.505
13247W        W17315   3.111  19.272   4.147
13248W        W17316   2.920  21.312   4.536
13249W        W17317   2.754  20.915   5.332
13250W        W17318   2.650  19.994   4.310
13251W        W17319   2.083  20.204   5.296
13252W        W17320   2.964  19.992   5.363
13253W        W17321   0.339  19.007   5.787
13254W        W17322   3.117  20.059   6.614
13255W        W17323   3.468  21.677   5.760
13256W        W17324   1.398  21.121   5.162
13257W        W17325   2.405  21.654   6.486
13258W        W17326   2.399  18.984   6.250
13259W        W17327   1.606  21.692   6.311
13260W        W17328   3.303  18.646   4.777
13261W        W17329   3.094  19.965   6.078
13262W        W17330   0.077  19.286   6.116
13263W        W17331   2.937  19.081   5.134
13264W        W17332   3.348  19.232   6.911
13265W        W17333   2.233  20.931   5.129
13266W        W17334   1.489  21.522   4.742
13267W        W17335   0.604  18.702   4.000
13268W        W17336   1.708  18.356   5.810
13269W        W17337   0.736  21.476   3.658
13270W        W17338   1.110  19.942   4.409
13271W        W17339   1.764  20.571   6.722
13272W        W17340   1.594  18.929   4.712
13273W        W17341   2.950  18.526   5.140
13274W        W17342   2.670  21.808   5.468
13275W        W17343   2.082  21.456   5.808
13276W        W17344   1.478  20.493   5.769
13277W        W17345   3.248  21.216   5.895
13278W        W17346   0.942  18.719   4.664
13279W        W17347   1.464  21.016   5.624
13280W        W17348   0.947  18.947   3.689
13281W        W17349   1.748  19.556   6.083
13282W        W17350   2.596  18.422   5.953
13283W        W17351   0.016  20.265   5.838
13284W        W17352   1.720  20.083   3.996
13285W        W17353   0.988  18.398   3.766
13286W        W17354   1.726  19.479   4.817
13287W        W17355   2.696  18.455   6.516
13288W        W17356   1.284  20.467   6.625
13289W        W17357   2.088  20.249   6.842
13290W        W17358   2.705  20.279   6.735
13291W        W17359   1.989  18.419   7.240
13292W        W17360   1.211  19.035   5.633
13293W        W17361   0.637  18.991   5.031
13294W        W17362   0.423  21.703   4.707
13295W        W17363   1.755  21.033   6.832
13296W        W17364   0.790  20.518   4.191
13297W        W17365   2.470  19.903   5.412
13298W        W17366   2.750  19.702   5.811
13299W        W17367   1.955  20.376   5.745
13300W        W17368   2.425  20.750   3.877
13301W        W17369   2.097  18.771   5.205
13302W        W17370   3.576  19.049   4.473
13303W        W17371   0.070  21.638   6.504
13304W        W17372   0.487  20.864   6.036
13305W        W17373   0.054  21.710   4.268
13306W        W17374   1.953  18.980   6.074
13307W        W17375   1.316  21.003   3.923
13308W        W17376   3.221  21.385   4.109
13309W        W17377   2.196  20.038   4.123
13310W        W17378   1.039  19.229   4.640
13311W        W17379   1.871  19.139   3.692
13312W        W17380   2.455  20.704   6.870
13313W        W17381   2.808  18.610   4.487
13314W        W17382   0.138  18.458   3.935
13315W        W17383   1.424  20.777   6.225
13316W        W17384   1.223  20.693   5.317
13317W        W17385   0.965  20.645   3.715
13318W        W17386   0.206  20.886   4.483
13319W        W17387   0.710  19.956   6.925
13320W        W17388   1.414  18.516   7.111
13321W        W17389   2.123  18.658   6.467
13322W        W17390   1.318  18.426   4.748
13323W        W17391   2.377  18.503   4.253
13324W        W17392   0.322  18.435   5.830
13325W        W17393   0.370  19.398   5.200
13326W        W17394   3.059  18.506   5.606
13327W        W17395   0.481  19.004   4.420
13328W        W17396   3.052  18.692   6.036
13329W        W17397   3.448  19.895   3.721
13330W        W17398   0.740  18.653   5.540
13331W        W17399   1.854  19.225   6.480
13332W        W17400   0.002  18.915   3.958
13333W        W17401   0.788  20.304   6.519
13334W        W17402   2.146  19.702   5.698
13335W        W17403   2.013  21.781   3.994
13336W        W17404   0.159  20.288   3.691
13337W        W17405   0.894  20.699   6.817
13338W        W17406   0.415  19.866   6.448
13339W        W17407   1.406  19.971   6.242
13340W        W17408   3.174  18.330   6.504
13341W        W17409   3.572  19.940   6.495
13342W        W17410   3.560  20.140   4.181
13343W        W17411   2.423  20.472   4.280
13344W        W17412   2.897  21.772   3.975
13345W        W17413   2.074  19.762   7.117
13346W        W17414   0.404  20.729   7.157
13347W        W17415   3.610  18.651   7.109
13348W        W17416   3.328  19.579   5.730
13349W        W17417   1.636  21.709   7.207
13350W        W17418   1.491  18.338   3.934
13351W        W17419   3.030  20.937   3.877
13352W        W17420   0.799  19.030   6.763
13353W        W17421   1.233  21.024   6.625
13354W        W17422   3.359  19.015   6.423
13355W        W17423   2.570  21.674   4.391
13356W        W17424   2.809  20.293   5.758
13357W        W17425   1.059  18.709   6.425
13358W        W17426   1.528  19.778   7.182
13359W        W17427   1.031  20.957   4.376
13360W        W17428   2.786  20.455   4.640
13361W        W17429   0.554  19.081   6.364
13362W        W17430   1.883  21.143   4.828
13363W        W17431   3.633  19.703   5.009
13364W        W17432   1.855  18.336   6.728
13365W        W17433   2.635  21.041   5.807
13366W        W17434   2.938  21.385   5.515
13367W        W17435   2.157  21.187   3.943
13368W        W17436   0.167  21.079   6.785
13369W        W17437   0.910  19.071   6.023
13370W        W17438   0.880  18.419   5.133
13371W        W17439   2.501  19.261   5.825
13372W        W17440   1.299  20.432   4.025
13373W        W17441   3.297  20.374   5.524
13374W        W17442   0.624  21.132   6.947
13375W        W17443   3.011  21.814   4.744
13376W        W17444   1.110  18.834   5.189
13377W        W17445   0.879  20.327   5.279
13378W        W17446   1.192  21.738   6.029
13379W        W17447   3.259  21.834   7.061
13380W        W17448   2.418  20.022   5.994
13381W        W17449   0.267  19.820   3.909
13382W        W17450   3.401  21.478   4.606
13383W        W17451   3.238  18.802   4.225
13384W        W17452   1.377  18.321   6.628
13385W        W17453   3.083  21.123   5.086
13386W        W17454   3.112  19.679   4.991
13387W        W17455   1.229  19.352   5.207
13388W        W17456   1.474  19.614   6.531
13389W        W17457   2.585  20.767   6.394
13390W        W17458   1.235  19.221   6.506
13391W        W17459   1.214  21.687   5.122
13392W        W17460   0.531  21.646   6.756
13393W        W17461   0.643  21.007   3.886
13394W        W17462   3.160  20.765   4.696
13395W        W17463   0.764  19.557   6.582
13396W        W17464   3.537  19.487   4.063
13397W        W17465   1.282  20.544   4.534
13398W        W17466   2.381  19.926   6.615
13399W        W17467   2.272  19.554   6.159
13400W        W17468   0.832  19.926   6.188
13401W        W17469   3.042  21.814   6.017
13402W        W17470   2.833  18.448   7.011
13403W        W17471   0.497  18.598   6.598
13404W        W17472   0.836  19.621   5.651
13405W        W17473   1.205  19.435   3.773
13406W        W17474   0.008  21.194   6.318
13407W        W17475   1.593  19.903   5.761
13408W        W17476   1.416  18.928   3.866
13409W        W17477   0.551  19.744   4.647
13410W        W17478   0.322  21.596   6.084
13411W        W17479   3.117  19.822   4.192
13412W        W17480   3.212  18.738   6.878
13413W        W17481   2.648  20.947   4.841
13414W        W17482   0.246  19.871   7.018
13415W        W17483   3.212  18.335   4.314
13416W        W17484   2.732  20.810   4.325
13417W        W17485   1.634  19.868   4.410
13418W        W17486   2.821  18.672   3.933
13419W        W17487   2.886  19.279   6.119
13420W        W17488   0.595  19.872   5.326
13421W        W17489   0.889  20.811   4.975
13422W        W17490   2.652  19.431   4.940
13423W        W17491   1.675  18.810   5.636
13424W        W17492   3.637  20.721   6.147
13425W        W17493   3.555  18.708   5.708
13426W        W17494   0.094  21.538   5.084
13427W        W17495   0.603  20.725   4.620
13428W        W17496   0.518  18.342   7.173
13429W        W17497   1.637  21.195   7.275
13430W        W17498   3.392  20.163   5.065
13431W        W17499   2.746  20.340   3.945
13432W        W17500   2.041  21.861   6.157
13433W        W17501   2.898  20.583   7.194
13434W        W17502   1.713  18.293   4.474
13435W        W17503   2.426  19.162   5.333
13436W        W17504   0.112  20.749   5.665
13437W        W17505   1.365  18.711   4.306
13438W        W17506   1.169  20.195   7.155
13439W        W17507   2.163  19.176   4.869
13440W        W17508   2.368  20.586   5.991
13441W        W17509   0.522  21.191   6.426
13442W        W17510   1.113  21.174   7.149
13443W        W17511   0.964  18.971   4.163
13444W        W17512   2.481  19.113   4.488
13445W        W17513   2.439  21.221   6.725
13446W        W17514   1.124  19.813   5.324
13447W        W17515   0.779  21.511   6.189
13448W        W17516   3.524  21.628   3.790
13449W        W17517   0.387  20.300   6.786
13450W        W17518   2.382  20.562   5.474
13451W        W17519   0.818  20.211   4.716
13452W        W17520   1.189  21.218   6.111
13453W        W17521   1.567  18.637   5.152
13454W        W17522   0.178  20.621   4.082
13455W        W17523   1.697  19.572   3.952
13456W        W17524   0.343  20.121   4.971
13457W        W17525   1.633  18.763   6.435
13458W        W17526   3.305  18.472   3.862
13459W        W17527   3.398  20.218   6.961
13460W        W17528   2.052  21.475   7.113
13461W        W17529   3.610  20.569   6.635
13462W        W17530   3.018  21.367   7.246
13463W        W17531   0.757  21.823   5.724
13464W        W17532   3.616  20.445   4.598
13465W        W17533   2.146  19.712   5.111
13466W        W17534   1.913  18.324   5.001
13467W        W17535   0.972  21.308   4.838
13468W        W17536   1.471  19.049   6.063
13469W        W17537   1.171  18.418   5.532
13470W        W17538   0.234  21.240   4.080
13471W        W17539   2.050  20.604   4.798
13472W        W17540   0.925  21.399   6.677
13473W        W17541   0.402  20.222   4.373
13474W        W17542   0.287  18.765   5.372
13475W        W17543   1.835  20.730   5.429
13476W        W17544   0.087  18.584   4.449
13477W        W17545   2.751  19.790   6.376
13478W        W17546   2.628  19.176   3.948
13479W        W17547   3.145  20.848   5.596
13480W        W17548   1.806  21.332   5.427
13481W        W17549   1.218  21.436   4.338
13482W        W17550   2.500  18.339   3.768
13483W        W17551   0.300  21.599   5.509
13484W        W17552   2.497  19.357   7.144
13485W        W17553   0.480  18.887   7.143
13486W        W17554   0.211  19.487   4.476
13487W        W17555   0.902  19.476   4.201
13488W        W17556   2.665  19.803   7.018
13489W        W17557   1.008  20.084   5.727
13490W        W17558   2.482  18.370   4.847
13491W        W17559   1.613  21.801   5.350
13492W        W17560   2.827  21.263   6.287
13493W        W17561   2.411  21.412   5.398
13494W        W17562   2.430  20.392   4.992
13495W        W17563   1.892  18.617   4.063
13496W        W17564   3.573  18.245   4.785
13497W        W17565   1.261  19.880   3.948
13498W        W17566   3.427  19.217   4.938
13499W        W17567   2.119  20.387   3.815
13500W        W17568   3.055  20.587   6.563
13501W        W17569   2.709  21.288   4.030
13502W        W17570   1.324  18.963   6.936
13503W        W17571   1.144  19.547   6.177
13504W        W17572   3.236  21.042   6.454
13505W        W17573   2.336  18.992   6.831
13506W        W17574   0.180  19.463   6.608
13507W        W17575   1.940  19.940   6.334
13508W        W17576   0.297  20.698   4.991
13509W        W17577   0.444  19.995   5.881
13510W        W17578   2.761  20.281   6.231
13511W        W17579   2.533  21.661   7.042
13512W        W17580   2.429  19.400   6.595
13513W        W17581   2.706  21.454   5.000
13514W        W17582   1.708  21.174   6.323
13515W        W17583   1.193  21.529   5.592
13516W        W17584   2.998  20.700   6.011
13517W        W17585   2.048  20.772   7.148
13518W        W17586   0.653  20.725   5.487
13519W        W17587   2.999  20.484   5.132
13520W        W17588   2.640  21.550   5.883
13521W        W17589   0.618  21.279   5.753
13522W        W17590   1.639  19.331   6.963
13523W        W17591   2.090  21.497   4.474
13524W        W17592   1.398  20.752   7.112
13525W        W17593   1.524  20.990   4.489
13526W        W17594   0.745  19.730   3.748
13527W        W17595   0.084  21.816  10.648
13528W        W17596   0.460  20.709  10.171
13529W        W17597   3.165  20.439   7.941
13530W        W17598   3.295  21.524   9.968
13531W        W17599   1.213  21.515   7.494
13532W        W17600   1.296  19.667   8.477
13533W        W17601   0.811  19.515   8.641
13534W        W17602   1.802  20.330   8.075
13535W        W17603   1.477  21.422  10.430
13536W        W17604   0.126  18.983  10.393
13537W        W17605   0.888  18.263  10.195
13538W        W17606   2.582  18.651   9.082
13539W        W17607   2.231  19.522   7.652
13540W        W17608   2.801  18.956  10.743
13541W        W17609   0.167  18.748   9.868
13542W        W17610   0.266  21.367  10.889
13543W        W17611   1.788  20.757   7.621
13544W        W17612   0.220  19.540   9.314
13545W        W17613   1.113  19.431  10.551
13546W        W17614   3.572  19.290   9.050
13547W        W17615   3.336  20.333   9.909
13548W        W17616   1.644  19.666   8.936
13549W        W17617   2.190  21.005   9.305
13550W        W17618   0.690  20.439   9.537
13551W        W17619   0.049  19.967   9.108
13552W        W17620   1.085  19.939  10.300
13553W        W17621   3.356  19.722  10.554
13554W        W17622   0.972  21.166   8.999
13555W        W17623   2.093  20.855  10.133
13556W        W17624   1.313  19.495   9.358
13557W        W17625   1.605  20.279   9.001
13558W        W17626   2.602  21.052  10.849
13559W        W17627   1.681  20.372  10.859
13560W        W17628   1.662  20.088  10.337
13561W        W17629   0.071  19.479  10.859
13562W        W17630   2.903  21.014  10.458
13563W        W17631   0.484  18.596   8.456
13564W        W17632   1.011  20.854   9.455
13565W        W17633   3.474  20.637   8.745
13566W        W17634   2.887  19.037   9.312
13567W        W17635   3.172  18.990   7.407
13568W        W17636   3.637  19.791   9.713
13569W        W17637   1.604  21.498   9.466
13570W        W17638   3.378  20.964   7.904
13571W        W17639   0.507  21.750   7.658
13572W        W17640   0.900  21.796   8.334
13573W        W17641   0.697  18.550   9.760
13574W        W17642   3.320  19.568  10.035
13575W        W17643   2.725  19.990   8.494
13576W        W17644   2.691  19.678   7.521
13577W        W17645   1.899  20.822   9.661
13578W        W17646   1.705  19.152   8.860
13579W        W17647   2.305  21.239   9.854
13580W        W17648   3.176  20.030   8.276
13581W        W17649   2.078  18.688   8.292
13582W        W17650   0.735  21.382   7.975
13583W        W17651   0.106  18.881   8.574
13584W        W17652   2.892  19.488   9.048
13585W        W17653   0.350  21.105   8.963
13586W        W17654   1.691  21.455   7.833
13587W        W17655   3.083  19.481   7.297
13588W        W17656   0.106  21.239   9.461
13589W        W17657   0.897  20.811   9.941
13590W        W17658   1.270  20.171   8.560
13591W        W17659   1.292  18.576   9.653
13592W        W17660   3.521  18.338   8.950
13593W        W17661   0.740  20.210   7.418
13594W        W17662   0.395  19.243   7.597
13595W        W17663   0.457  21.199   8.391
13596W        W17664   1.588  20.682   8.639
13597W        W17665   2.920  21.541  10.353
13598W        W17666   1.846  19.183   8.037
13599W        W17667   3.229  21.581   8.809
13600W        W17668   2.906  19.434  10.407
13601W        W17669   3.619  21.090   8.541
13602W        W17670   2.246  20.382  10.025
13603W        W17671   0.012  19.933   8.231
13604W        W17672   1.123  20.348   9.804
13605W        W17673   2.327  19.612   8.182
13606W        W17674   2.204  20.102   8.286
13607W        W17675   0.547  19.522   9.760
13608W        W17676   0.532  19.398  10.682
13609W        W17677   0.422  18.315   8.841
13610W        W17678   2.190  18.662   9.402
13611W        W17679   1.838  18.847  10.565
13612W        W17680   2.193  18.996   7.743
13613W        W17681   3.376  21.389  10.497
13614W        W17682   2.343  18.470  10.536
13615W        W17683   3.362  20.771  10.658
13616W        W17684   2.792  18.938  10.254
13617W        W17685   2.592  18.876   8.524
13618W        W17686   2.985  20.010  10.928
13619W        W17687   0.725  21.586   8.914
13620W        W17688   1.383  19.303   7.900
13621W        W17689   0.952  18.587  10.564
13622W        W17690   3.004  19.071   8.245
13623W        W17691   3.371  19.553   8.190
13624W        W17692   1.114  21.770  10.661
13625W        W17693   1.040  18.306   7.896
13626W        W17694   3.361  18.840   8.931
13627W        W17695   3.511  21.089   7.376
13628W        W17696   0.418  20.292   9.078
13629W        W17697   2.335  18.879   7.308
13630W        W17698   3.469  21.211   9.028
13631W        W17699   3.508  18.405   9.778
13632W        W17700   1.953  19.617  10.332
13633W        W17701   2.046  20.956   8.035
13634W        W17702   2.446  20.250  10.775
13635W        W17703   2.120  18.227   9.084
13636W        W17704   0.732  19.130   9.147
13637W        W17705   0.286  20.330   9.921
13638W        W17706   2.145  21.523   8.627
13639W        W17707   3.339  19.120   9.499
13640W        W17708   1.976  21.467  10.266
13641W        W17709   3.319  20.526   7.471
13642W        W17710   1.754  20.009   8.532
13643W        W17711   3.606  18.520  10.273
13644W        W17712   1.755  20.355   9.867
13645W        W17713   1.972  19.241   9.312
13646W        W17714   2.824  19.539   8.150
13647W        W17715   3.111  19.272   7.792
13648W        W17716   2.920  21.312   8.181
13649W        W17717   2.754  20.915   8.977
13650W        W17718   2.650  19.994   7.955
13651W        W17719   2.083  20.204   8.941
13652W        W17720   2.964  19.992   9.008
13653W        W17721   0.339  19.007   9.432
13654W        W17722   3.117  20.059  10.259
13655W        W17723   3.468  21.677   9.405
13656W        W17724   1.398  21.121   8.807
13657W        W17725   2.405  21.654  10.131
13658W        W17726   2.399  18.984   9.895
13659W        W17727   1.606  21.692   9.956
13660W        W17728   3.303  18.646   8.422
13661W        W17729   3.094  19.965   9.723
13662W        W17730   0.077  19.286   9.761
13663W        W17731   2.937  19.081   8.779
13664W        W17732   3.348  19.232  10.556
13665W        W17733   2.233  20.931   8.774
13666W        W17734   1.489  21.522   8.387
13667W        W17735   0.604  18.702   7.645
13668W        W17736   1.708  18.356   9.455
13669W        W17737   0.736  21.476   7.303
13670W        W17738   1.110  19.942   8.054
13671W        W17739   1.764  20.571  10.367
13672W        W17740   1.594  18.929   8.357
13673W        W17741   2.950  18.526   8.785
13674W        W17742   2.670  21.808   9.113
13675W        W17743   2.082  21.456   9.453
13676W        W17744   1.478  20.493   9.414
13677W        W17745   3.248  21.216   9.540
13678W        W17746   0.942  18.719   8.309
13679W        W17747   1.464  21.016   9.269
13680W        W17748   0.947  18.947   7.334
13681W        W17749   1.748  19.556   9.728
13682W        W17750   2.596  18.422   9.598
13683W        W17751   0.016  20.265   9.483
13684W        W17752   1.720  20.083   7.641
13685W        W17753   0.988  18.398   7.411
13686W        W17754   1.726  19.479   8.462
13687W        W17755   2.696  18.455  10.161
13688W        W17756   1.284  20.467  10.270
13689W        W17757   2.088  20.249  10.487
13690W        W17758   2.705  20.279  10.380
13691W        W17759   1.989  18.419  10.885
13692W        W17760   1.211  19.035   9.278
13693W        W17761   0.637  18.991   8.676
13694W        W17762   0.423  21.703   8.352
13695W        W17763   1.755  21.033  10.477
13696W        W17764   0.790  20.518   7.836
13697W        W17765   2.470  19.903   9.057
13698W        W17766   2.750  19.702   9.456
13699W        W17767   1.955  20.376   9.390
13700W        W17768   2.425  20.750   7.522
13701W        W17769   2.097  18.771   8.850
13702W        W17770   3.576  19.049   8.118
13703W        W17771   0.070  21.638  10.149
13704W        W17772   0.487  20.864   9.681
13705W        W17773   0.054  21.710   7.913
13706W        W17774   1.953  18.980   9.719
13707W        W17775   1.316  21.003   7.568
13708W        W17776   3.221  21.385   7.754
13709W        W17777   2.196  20.038   7.768
13710W        W17778   1.039  19.229   8.285
13711W        W17779   1.871  19.139   7.337
13712W        W17780   2.455  20.704  10.515
13713W        W17781   2.808  18.610   8.132
13714W        W17782   0.138  18.458   7.580
13715W        W17783   1.424  20.777   9.870
13716W        W17784   1.223  20.693   8.962
13717W        W17785   0.965  20.645   7.360
13718W        W17786   0.206  20.886   8.128
13719W        W17787   0.710  19.956  10.570
13720W        W17788   1.414  18.516  10.756
13721W        W17789   2.123  18.658  10.112
13722W        W17790   1.318  18.426   8.393
13723W        W17791   2.377  18.503   7.898
13724W        W17792   0.322  18.435   9.475
13725W        W17793   0.370  19.398   8.845
13726W        W17794   3.059  18.506   9.251
13727W        W17795   0.481  19.004   8.065
13728W        W17796   3.052  18.692   9.681
13729W        W17797   3.448  19.895   7.366
13730W        W17798   0.740  18.653   9.185
13731W        W17799   1.854  19.225  10.125
13732W        W17800   0.002  18.915   7.603
13733W        W17801   0.788  20.304  10.164
13734W        W17802   2.146  19.702   9.343
13735W        W17803   2.013  21.781   7.639
13736W        W17804   0.159  20.288   7.336
13737W        W17805   0.894  20.699  10.462
13738W        W17806   0.415  19.866  10.093
13739W        W17807   1.406  19.971   9.887
13740W        W17808   3.174  18.330  10.149
13741W        W17809   3.572  19.940  10.140
13742W        W17810   3.560  20.140   7.826
13743W        W17811   2.423  20.472   7.925
13744W        W17812   2.897  21.772   7.620
13745W        W17813   2.074  19.762  10.762
13746W        W17814   0.404  20.729  10.802
13747W        W17815   3.610  18.651  10.754
13748W        W17816   3.328  19.579   9.375
13749W        W17817   1.636  21.709  10.852
13750W        W17818   1.491  18.338   7.579
13751W        W17819   3.030  20.937   7.522
13752W        W17820   0.799  19.030  10.408
13753W        W17821   1.233  21.024  10.270
13754W        W17822   3.359  19.015  10.068
13755W        W17823   2.570  21.674   8.036
13756W        W17824   2.809  20.293   9.403
13757W        W17825   1.059  18.709  10.070
13758W        W17826   1.528  19.778  10.827
13759W        W17827   1.031  20.957   8.021
13760W        W17828   2.786  20.455   8.285
13761W        W17829   0.554  19.081  10.009
13762W        W17830   1.883  21.143   8.473
13763W        W17831   3.633  19.703   8.654
13764W        W17832   1.855  18.336  10.373
13765W        W17833   2.635  21.041   9.452
13766W        W17834   2.938  21.385   9.160
13767W        W17835   2.157  21.187   7.588
13768W        W17836   0.167  21.079  10.430
13769W        W17837   0.910  19.071   9.668
13770W        W17838   0.880  18.419   8.778
13771W        W17839   2.501  19.261   9.470
13772W        W17840   1.299  20.432   7.670
13773W        W17841   3.297  20.374   9.169
13774W        W17842   0.624  21.132  10.592
13775W        W17843   3.011  21.814   8.389
13776W        W17844   1.110  18.834   8.834
13777W        W17845   0.879  20.327   8.924
13778W        W17846   1.192  21.738   9.674
13779W        W17847   3.259  21.834  10.706
13780W        W17848   2.418  20.022   9.639
13781W        W17849   0.267  19.820   7.554
13782W        W17850   3.401  21.478   8.251
13783W        W17851   3.238  18.802   7.870
13784W        W17852   1.377  18.321  10.273
13785W        W17853   3.083  21.123   8.731
13786W        W17854   3.112  19.679   8.636
13787W        W17855   1.229  19.352   8.852
13788W        W17856   1.474  19.614  10.176
13789W        W17857   2.585  20.767  10.039
13790W        W17858   1.235  19.221  10.151
13791W        W17859   1.214  21.687   8.767
13792W        W17860   0.531  21.646  10.401
13793W        W17861   0.643  21.007   7.531
13794W        W17862   3.160  20.765   8.341
13795W        W17863   0.764  19.557  10.227
13796W        W17864   3.537  19.487   7.708
13797W        W17865   1.282  20.544   8.179
13798W        W17866   2.381  19.926  10.260
13799W        W17867   2.272  19.554   9.804
13800W        W17868   0.832  19.926   9.833
13801W        W17869   3.042  21.814   9.662
13802W        W17870   2.833  18.448  10.656
13803W        W17871   0.497  18.598  10.243
13804W        W17872   0.836  19.621   9.296
13805W        W17873   1.205  19.435   7.418
13806W        W17874   0.008  21.194   9.963
13807W        W17875   1.593  19.903   9.406
13808W        W17876   1.416  18.928   7.511
13809W        W17877   0.551  19.744   8.292
13810W        W17878   0.322  21.596   9.729
13811W        W17879   3.117  19.822   7.837
13812W        W17880   3.212  18.738  10.523
13813W        W17881   2.648  20.947   8.486
13814W        W17882   0.246  19.871  10.663
13815W        W17883   3.212  18.335   7.959
13816W        W17884   2.732  20.810   7.970
13817W        W17885   1.634  19.868   8.055
13818W        W17886   2.821  18.672   7.578
13819W        W17887   2.886  19.279   9.764
13820W        W17888   0.595  19.872   8.971
13821W        W17889   0.889  20.811   8.620
13822W        W17890   2.652  19.431   8.585
13823W        W17891   1.675  18.810   9.281
13824W        W17892   3.637  20.721   9.792
13825W        W17893   3.555  18.708   9.353
13826W        W17894   0.094  21.538   8.729
13827W        W17895   0.603  20.725   8.265
13828W        W17896   0.518  18.342  10.818
13829W        W17897   1.637  21.195  10.920
13830W        W17898   3.392  20.163   8.710
13831W        W17899   2.746  20.340   7.590
13832W        W17900   2.041  21.861   9.802
13833W        W17901   2.898  20.583  10.839
13834W        W17902   1.713  18.293   8.119
13835W        W17903   2.426  19.162   8.978
13836W        W17904   0.112  20.749   9.310
13837W        W17905   1.365  18.711   7.951
13838W        W17906   1.169  20.195  10.800
13839W        W17907   2.163  19.176   8.514
13840W        W17908   2.368  20.586   9.636
13841W        W17909   0.522  21.191  10.071
13842W        W17910   1.113  21.174  10.794
13843W        W17911   0.964  18.971   7.808
13844W        W17912   2.481  19.113   8.133
13845W        W17913   2.439  21.221  10.370
13846W        W17914   1.124  19.813   8.969
13847W        W17915   0.779  21.511   9.834
13848W        W17916   3.524  21.628   7.435
13849W        W17917   0.387  20.300  10.431
13850W        W17918   2.382  20.562   9.119
13851W        W17919   0.818  20.211   8.361
13852W        W17920   1.189  21.218   9.756
13853W        W17921   1.567  18.637   8.797
13854W        W17922   0.178  20.621   7.727
13855W        W17923   1.697  19.572   7.597
13856W        W17924   0.343  20.121   8.616
13857W        W17925   1.633  18.763  10.080
13858W        W17926   3.305  18.472   7.507
13859W        W17927   3.398  20.218  10.606
13860W        W17928   2.052  21.475  10.758
13861W        W17929   3.610  20.569  10.280
13862W        W17930   3.018  21.367  10.891
13863W        W17931   0.757  21.823   9.369
13864W        W17932   3.616  20.445   8.243
13865W        W17933   2.146  19.712   8.756
13866W        W17934   1.913  18.324   8.646
13867W        W17935   0.972  21.308   8.483
13868W        W17936   1.471  19.049   9.708
13869W        W17937   1.171  18.418   9.177
13870W        W17938   0.234  21.240   7.725
13871W        W17939   2.050  20.604   8.443
13872W        W17940   0.925  21.399  10.322
13873W        W17941   0.402  20.222   8.018
13874W        W17942   0.287  18.765   9.017
13875W        W17943   1.835  20.730   9.074
13876W        W17944   0.087  18.584   8.094
13877W        W17945   2.751  19.790  10.021
13878W        W17946   2.628  19.176   7.593
13879W        W17947   3.145  20.848   9.241
13880W        W17948   1.806  21.332   9.072
13881W        W17949   1.218  21.436   7.983
13882W        W17950   2.500  18.339   7.413
13883W        W17951   0.300  21.599   9.154
13884W        W17952   2.497  19.357  10.789
13885W        W17953   0.480  18.887  10.788
13886W        W17954   0.211  19.487   8.121
13887W        W17955   0.902  19.476   7.846
13888W        W17956   2.665  19.803  10.663
13889W        W17957   1.008  20.084   9.372
13890W        W17958   2.482  18.370   8.492
13891W        W17959   1.613  21.801   8.995
13892W        W17960   2.827  21.263   9.932
13893W        W17961   2.411  21.412   9.043
13894W        W17962   2.430  20.392   8.637
13895W        W17963   1.892  18.617   7.708
13896W        W17964   3.573  18.245   8.430
13897W        W17965   1.261  19.880   7.593
13898W        W17966   3.427  19.217   8.583
13899W        W17967   2.119  20.387   7.460
13900W        W17968   3.055  20.587  10.208
13901W        W17969   2.709  21.288   7.675
13902W        W17970   1.324  18.963  10.581
13903W        W17971   1.144  19.547   9.822
13904W        W17972   3.236  21.042  10.099
13905W        W17973   2.336  18.992  10.476
13906W        W17974   0.180  19.463  10.253
13907W        W17975   1.940  19.940   9.979
13908W        W17976   0.297  20.698   8.636
13909W        W17977   0.444  19.995   9.526
13910W        W17978   2.761  20.281   9.876
13911W        W17979   2.533  21.661  10.687
13912W        W17980   2.429  19.400  10.240
13913W        W17981   2.706  21.454   8.645
13914W        W17982   1.708  21.174   9.968
13915W        W17983   1.193  21.529   9.237
13916W        W17984   2.998  20.700   9.656
13917W        W17985   2.048  20.772  10.793
13918W        W17986   0.653  20.725   9.132
13919W        W17987   2.999  20.484   8.777
13920W        W17988   2.640  21.550   9.528
13921W        W17989   0.618  21.279   9.398
13922W        W17990   1.639  19.331  10.608
13923W        W17991   2.090  21.497   8.119
13924W        W17992   1.398  20.752  10.757
13925W        W17993   1.524  20.990   8.134
13926W        W17994   0.745  19.730   7.393
13927W        W17995   0.084  21.816  14.292
13928W        W17996   0.460  20.709  13.815
13929W        W17997   3.165  20.439  11.585
13930W        W17998   3.295  21.524  13.612
13931W        W17999   1.213  21.515  11.138
13932W        W18000   1.296  19.667  12.121
13933W        W18001   0.811  19.515  12.285
13934W        W18002   1.802  20.330  11.719
13935W        W18003   1.477  21.422  14.074
13936W        W18004   0.126  18.983  14.037
13937W        W18005   0.888  18.263  13.839
13938W        W18006   2.582  18.651  12.726
13939W        W18007   2.231  19.522  11.296
13940W        W18008   2.801  18.956  14.387
13941W        W18009   0.167  18.748  13.512
13942W        W18010   0.266  21.367  14.533
13943W        W18011   1.788  20.757  11.265
13944W        W18012   0.220  19.540  12.958
13945W        W18013   1.113  19.431  14.195
13946W        W18014   3.572  19.290  12.694
13947W        W18015   3.336  20.333  13.553
13948W        W18016   1.644  19.666  12.580
13949W        W18017   2.190  21.005  12.949
13950W        W18018   0.690  20.439  13.181
13951W        W18019   0.049  19.967  12.752
13952W        W18020   1.085  19.939  13.944
13953W        W18021   3.356  19.722  14.198
13954W        W18022   0.972  21.166  12.643
13955W        W18023   2.093  20.855  13.777
13956W        W18024   1.313  19.495  13.002
13957W        W18025   1.605  20.279  12.645
13958W        W18026   2.602  21.052  14.493
13959W        W18027   1.681  20.372  14.503
13960W        W18028   1.662  20.088  13.981
13961W        W18029   0.071  19.479  14.503
13962W        W18030   2.903  21.014  14.102
13963W        W18031   0.484  18.596  12.100
13964W        W18032   1.011  20.854  13.099
13965W        W18033   3.474  20.637  12.389
13966W        W18034   2.887  19.037  12.956
13967W        W18035   3.172  18.990  11.051
13968W        W18036   3.637  19.791  13.357
13969W        W18037   1.604  21.498  13.110
13970W        W18038   3.378  20.964  11.548
13971W        W18039   0.507  21.750  11.302
13972W        W18040   0.900  21.796  11.978
13973W        W18041   0.697  18.550  13.404
13974W        W18042   3.320  19.568  13.679
13975W        W18043   2.725  19.990  12.138
13976W        W18044   2.691  19.678  11.165
13977W        W18045   1.899  20.822  13.305
13978W        W18046   1.705  19.152  12.504
13979W        W18047   2.305  21.239  13.498
13980W        W18048   3.176  20.030  11.920
13981W        W18049   2.078  18.688  11.936
13982W        W18050   0.735  21.382  11.619
13983W        W18051   0.106  18.881  12.218
13984W        W18052   2.892  19.488  12.692
13985W        W18053   0.350  21.105  12.607
13986W        W18054   1.691  21.455  11.477
13987W        W18055   3.083  19.481  10.941
13988W        W18056   0.106  21.239  13.105
13989W        W18057   0.897  20.811  13.585
13990W        W18058   1.270  20.171  12.204
13991W        W18059   1.292  18.576  13.297
13992W        W18060   3.521  18.338  12.594
13993W        W18061   0.740  20.210  11.062
13994W        W18062   0.395  19.243  11.241
13995W        W18063   0.457  21.199  12.035
13996W        W18064   1.588  20.682  12.283
13997W        W18065   2.920  21.541  13.997
13998W        W18066   1.846  19.183  11.681
13999W        W18067   3.229  21.581  12.453
14000W        W18068   2.906  19.434  14.051
14001W        W18069   3.619  21.090  12.185
14002W        W18070   2.246  20.382  13.669
14003W        W18071   0.012  19.933  11.875
14004W        W18072   1.123  20.348  13.448
14005W        W18073   2.327  19.612  11.826
14006W        W18074   2.204  20.102  11.930
14007W        W18075   0.547  19.522  13.404
14008W        W18076   0.532  19.398  14.326
14009W        W18077   0.422  18.315  12.485
14010W        W18078   2.190  18.662  13.046
14011W        W18079   1.838  18.847  14.209
14012W        W18080   2.193  18.996  11.387
14013W        W18081   3.376  21.389  14.141
14014W        W18082   2.343  18.470  14.180
14015W        W18083   3.362  20.771  14.302
14016W        W18084   2.792  18.938  13.898
14017W        W18085   2.592  18.876  12.168
14018W        W18086   2.985  20.010  14.572
14019W        W18087   0.725  21.586  12.558
14020W        W18088   1.383  19.303  11.544
14021W        W18089   0.952  18.587  14.208
14022W        W18090   3.004  19.071  11.889
14023W        W18091   3.371  19.553  11.834
14024W        W18092   1.114  21.770  14.305
14025W        W18093   1.040  18.306  11.540
14026W        W18094   3.361  18.840  12.575
14027W        W18095   3.511  21.089  11.020
14028W        W18096   0.418  20.292  12.722
14029W        W18097   2.335  18.879  10.952
14030W        W18098   3.469  21.211  12.672
14031W        W18099   3.508  18.405  13.422
14032W        W18100   1.953  19.617  13.976
14033W        W18101   2.046  20.956  11.679
14034W        W18102   2.446  20.250  14.419
14035W        W18103   2.120  18.227  12.728
14036W        W18104   0.732  19.130  12.791
14037W        W18105   0.286  20.330  13.565
14038W        W18106   2.145  21.523  12.271
14039W        W18107   3.339  19.120  13.143
14040W        W18108   1.976  21.467  13.910
14041W        W18109   3.319  20.526  11.115
14042W        W18110   1.754  20.009  12.176
14043W        W18111   3.606  18.520  13.917
14044W        W18112   1.755  20.355  13.511
14045W        W18113   1.972  19.241  12.956
14046W        W18114   2.824  19.539  11.794
14047W        W18115   3.111  19.272  11.436
14048W        W18116   2.920  21.312  11.825
14049W        W18117   2.754  20.915  12.621
14050W        W18118   2.650  19.994  11.599
14051W        W18119   2.083  20.204  12.585
14052W        W18120   2.964  19.992  12.652
14053W        W18121   0.339  19.007  13.076
14054W        W18122   3.117  20.059  13.903
14055W        W18123   3.468  21.677  13.049
14056W        W18124   1.398  21.121  12.451
14057W        W18125   2.405  21.654  13.775
14058W        W18126   2.399  18.984  13.539
14059W        W18127   1.606  21.692  13.600
14060W        W18128   3.303  18.646  12.066
14061W        W18129   3.094  19.965  13.367
14062W        W18130   0.077  19.286  13.405
14063W        W18131   2.937  19.081  12.423
14064W        W18132   3.348  19.232  14.200
14065W        W18133   2.233  20.931  12.418
14066W        W18134   1.489  21.522  12.031
14067W        W18135   0.604  18.702  11.289
14068W        W18136   1.708  18.356  13.099
14069W        W18137   0.736  21.476  10.947
14070W        W18138   1.110  19.942  11.698
14071W        W18139   1.764  20.571  14.011
14072W        W18140   1.594  18.929  12.001
14073W        W18141   2.950  18.526  12.429
14074W        W18142   2.670  21.808  12.757
14075W        W18143   2.082  21.456  13.097
14076W        W18144   1.478  20.493  13.058
14077W        W18145   3.248  21.216  13.184
14078W        W18146   0.942  18.719  11.953
14079W        W18147   1.464  21.016  12.913
14080W        W18148   0.947  18.947  10.978
14081W        W18149   1.748  19.556  13.372
14082W        W18150   2.596  18.422  13.242
14083W        W18151   0.016  20.265  13.127
14084W        W18152   1.720  20.083  11.285
14085W        W18153   0.988  18.398  11.055
14086W        W18154   1.726  19.479  12.106
14087W        W18155   2.696  18.455  13.805
14088W        W18156   1.284  20.467  13.914
14089W        W18157   2.088  20.249  14.131
14090W        W18158   2.705  20.279  14.024
14091W        W18159   1.989  18.419  14.529
14092W        W18160   1.211  19.035  12.922
14093W        W18161   0.637  18.991  12.320
14094W        W18162   0.423  21.703  11.996
14095W        W18163   1.755  21.033  14.121
14096W        W18164   0.790  20.518  11.480
14097W        W18165   2.470  19.903  12.701
14098W        W18166   2.750  19.702  13.100
14099W        W18167   1.955  20.376  13.034
14100W        W18168   2.425  20.750  11.166
14101W        W18169   2.097  18.771  12.494
14102W        W18170   3.576  19.049  11.762
14103W        W18171   0.070  21.638  13.793
14104W        W18172   0.487  20.864  13.325
14105W        W18173   0.054  21.710  11.557
14106W        W18174   1.953  18.980  13.363
14107W        W18175   1.316  21.003  11.212
14108W        W18176   3.221  21.385  11.398
14109W        W18177   2.196  20.038  11.412
14110W        W18178   1.039  19.229  11.929
14111W        W18179   1.871  19.139  10.981
14112W        W18180   2.455  20.704  14.159
14113W        W18181   2.808  18.610  11.776
14114W        W18182   0.138  18.458  11.224
14115W        W18183   1.424  20.777  13.514
14116W        W18184   1.223  20.693  12.606
14117W        W18185   0.965  20.645  11.004
14118W        W18186   0.206  20.886  11.772
14119W        W18187   0.710  19.956  14.214
14120W        W18188   1.414  18.516  14.400
14121W        W18189   2.123  18.658  13.756
14122W        W18190   1.318  18.426  12.037
14123W        W18191   2.377  18.503  11.542
14124W        W18192   0.322  18.435  13.119
14125W        W18193   0.370  19.398  12.489
14126W        W18194   3.059  18.506  12.895
14127W        W18195   0.481  19.004  11.709
14128W        W18196   3.052  18.692  13.325
14129W        W18197   3.448  19.895  11.010
14130W        W18198   0.740  18.653  12.829
14131W        W18199   1.854  19.225  13.769
14132W        W18200   0.002  18.915  11.247
14133W        W18201   0.788  20.304  13.808
14134W        W18202   2.146  19.702  12.987
14135W        W18203   2.013  21.781  11.283
14136W        W18204   0.159  20.288  10.980
14137W        W18205   0.894  20.699  14.106
14138W        W18206   0.415  19.866  13.737
14139W        W18207   1.406  19.971  13.531
14140W        W18208   3.174  18.330  13.793
14141W        W18209   3.572  19.940  13.784
14142W        W18210   3.560  20.140  11.470
14143W        W18211   2.423  20.472  11.569
14144W        W18212   2.897  21.772  11.264
14145W        W18213   2.074  19.762  14.406
14146W        W18214   0.404  20.729  14.446
14147W        W18215   3.610  18.651  14.398
14148W        W18216   3.328  19.579  13.019
14149W        W18217   1.636  21.709  14.496
14150W        W18218   1.491  18.338  11.223
14151W        W18219   3.030  20.937  11.166
14152W        W18220   0.799  19.030  14.052
14153W        W18221   1.233  21.024  13.914
14154W        W18222   3.359  19.015  13.712
14155W        W18223   2.570  21.674  11.680
14156W        W18224   2.809  20.293  13.047
14157W        W18225   1.059  18.709  13.714
14158W        W18226   1.528  19.778  14.471
14159W        W18227   1.031  20.957  11.665
14160W        W18228   2.786  20.455  11.929
14161W        W18229   0.554  19.081  13.653
14162W        W18230   1.883  21.143  12.117
14163W        W18231   3.633  19.703  12.298
14164W        W18232   1.855  18.336  14.017
14165W        W18233   2.635  21.041  13.096
14166W        W18234   2.938  21.385  12.804
14167W        W18235   2.157  21.187  11.232
14168W        W18236   0.167  21.079  14.074
14169W        W18237   0.910  19.071  13.312
14170W        W18238   0.880  18.419  12.422
14171W        W18239   2.501  19.261  13.114
14172W        W18240   1.299  20.432  11.314
14173W        W18241   3.297  20.374  12.813
14174W        W18242   0.624  21.132  14.236
14175W        W18243   3.011  21.814  12.033
14176W        W18244   1.110  18.834  12.478
14177W        W18245   0.879  20.327  12.568
14178W        W18246   1.192  21.738  13.318
14179W        W18247   3.259  21.834  14.350
14180W        W18248   2.418  20.022  13.283
14181W        W18249   0.267  19.820  11.198
14182W        W18250   3.401  21.478  11.895
14183W        W18251   3.238  18.802  11.514
14184W        W18252   1.377  18.321  13.917
14185W        W18253   3.083  21.123  12.375
14186W        W18254   3.112  19.679  12.280
14187W        W18255   1.229  19.352  12.496
14188W        W18256   1.474  19.614  13.820
14189W        W18257   2.585  20.767  13.683
14190W        W18258   1.235  19.221  13.795
14191W        W18259   1.214  21.687  12.411
14192W        W18260   0.531  21.646  14.045
14193W        W18261   0.643  21.007  11.175
14194W        W18262   3.160  20.765  11.985
14195W        W18263   0.764  19.557  13.871
14196W        W18264   3.537  19.487  11.352
14197W        W18265   1.282  20.544  11.823
14198W        W18266   2.381  19.926  13.904
14199W        W18267   2.272  19.554  13.448
14200W        W18268   0.832  19.926  13.477
14201W        W18269   3.042  21.814  13.306
14202W        W18270   2.833  18.448  14.300
14203W        W18271   0.497  18.598  13.887
14204W        W18272   0.836  19.621  12.940
14205W        W18273   1.205  19.435  11.062
14206W        W18274   0.008  21.194  13.607
14207W        W18275   1.593  19.903  13.050
14208W        W18276   1.416  18.928  11.155
14209W        W18277   0.551  19.744  11.936
14210W        W18278   0.322  21.596  13.373
14211W        W18279   3.117  19.822  11.481
14212W        W18280   3.212  18.738  14.167
14213W        W18281   2.648  20.947  12.130
14214W        W18282   0.246  19.871  14.307
14215W        W18283   3.212  18.335  11.603
14216W        W18284   2.732  20.810  11.614
14217W        W18285   1.634  19.868  11.699
14218W        W18286   2.821  18.672  11.222
14219W        W18287   2.886  19.279  13.408
14220W        W18288   0.595  19.872  12.615
14221W        W18289   0.889  20.811  12.264
14222W        W18290   2.652  19.431  12.229
14223W        W18291   1.675  18.810  12.925
14224W        W18292   3.637  20.721  13.436
14225W        W18293   3.555  18.708  12.997
14226W        W18294   0.094  21.538  12.373
14227W        W18295   0.603  20.725  11.909
14228W        W18296   0.518  18.342  14.462
14229W        W18297   1.637  21.195  14.564
14230W        W18298   3.392  20.163  12.354
14231W        W18299   2.746  20.340  11.234
14232W        W18300   2.041  21.861  13.446
14233W        W18301   2.898  20.583  14.483
14234W        W18302   1.713  18.293  11.763
14235W        W18303   2.426  19.162  12.622
14236W        W18304   0.112  20.749  12.954
14237W        W18305   1.365  18.711  11.595
14238W        W18306   1.169  20.195  14.444
14239W        W18307   2.163  19.176  12.158
14240W        W18308   2.368  20.586  13.280
14241W        W18309   0.522  21.191  13.715
14242W        W18310   1.113  21.174  14.438
14243W        W18311   0.964  18.971  11.452
14244W        W18312   2.481  19.113  11.777
14245W        W18313   2.439  21.221  14.014
14246W        W18314   1.124  19.813  12.613
14247W        W18315   0.779  21.511  13.478
14248W        W18316   3.524  21.628  11.079
14249W        W18317   0.387  20.300  14.075
14250W        W18318   2.382  20.562  12.763
14251W        W18319   0.818  20.211  12.005
14252W        W18320   1.189  21.218  13.400
14253W        W18321   1.567  18.637  12.441
14254W        W18322   0.178  20.621  11.371
14255W        W18323   1.697  19.572  11.241
14256W        W18324   0.343  20.121  12.260
14257W        W18325   1.633  18.763  13.724
14258W        W18326   3.305  18.472  11.151
14259W        W18327   3.398  20.218  14.250
14260W        W18328   2.052  21.475  14.402
14261W        W18329   3.610  20.569  13.924
14262W        W18330   3.018  21.367  14.535
14263W        W18331   0.757  21.823  13.013
14264W        W18332   3.616  20.445  11.887
14265W        W18333   2.146  19.712  12.400
14266W        W18334   1.913  18.324  12.290
14267W        W18335   0.972  21.308  12.127
14268W        W18336   1.471  19.049  13.352
14269W        W18337   1.171  18.418  12.821
14270W        W18338   0.234  21.240  11.369
14271W        W18339   2.050  20.604  12.087
14272W        W18340   0.925  21.399  13.966
14273W        W18341   0.402  20.222  11.662
14274W        W18342   0.287  18.765  12.661
14275W        W18343   1.835  20.730  12.718
14276W        W18344   0.087  18.584  11.738
14277W        W18345   2.751  19.790  13.665
14278W        W18346   2.628  19.176  11.237
14279W        W18347   3.145  20.848  12.885
14280W        W18348   1.806  21.332  12.716
14281W        W18349   1.218  21.436  11.627
14282W        W18350   2.500  18.339  11.057
14283W        W18351   0.300  21.599  12.798
14284W        W18352   2.497  19.357  14.433
14285W        W18353   0.480  18.887  14.432
14286W        W18354   0.211  19.487  11.765
14287W        W18355   0.902  19.476  11.490
14288W        W18356   2.665  19.803  14.307
14289W        W18357   1.008  20.084  13.016
14290W        W18358   2.482  18.370  12.136
14291W        W18359   1.613  21.801  12.639
14292W        W18360   2.827  21.263  13.576
14293W        W18361   2.411  21.412  12.687
14294W        W18362   2.430  20.392  12.281
14295W        W18363   1.892  18.617  11.352
14296W        W18364   3.573  18.245  12.074
14297W        W18365   1.261  19.880  11.237
14298W        W18366   3.427  19.217  12.227
14299W        W18367   2.119  20.387  11.104
14300W        W18368   3.055  20.587  13.852
14301W        W18369   2.709  21.288  11.319
14302W        W18370   1.324  18.963  14.225
14303W        W18371   1.144  19.547  13.466
14304W        W18372   3.236  21.042  13.743
14305W        W18373   2.336  18.992  14.120
14306W        W18374   0.180  19.463  13.897
14307W        W18375   1.940  19.940  13.623
14308W        W18376   0.297  20.698  12.280
14309W        W18377   0.444  19.995  13.170
14310W        W18378   2.761  20.281  13.520
14311W        W18379   2.533  21.661  14.331
14312W        W18380   2.429  19.400  13.884
14313W        W18381   2.706  21.454  12.289
14314W        W18382   1.708  21.174  13.612
14315W        W18383   1.193  21.529  12.881
14316W        W18384   2.998  20.700  13.300
14317W        W18385   2.048  20.772  14.437
14318W        W18386   0.653  20.725  12.776
14319W        W18387   2.999  20.484  12.421
14320W        W18388   2.640  21.550  13.172
14321W        W18389   0.618  21.279  13.042
14322W        W18390   1.639  19.331  14.252
14323W        W18391   2.090  21.497  11.763
14324W        W18392   1.398  20.752  14.401
14325W        W18393   1.524  20.990  11.778
14326W        W18394   0.745  19.730  11.037
14327W        W18395   0.084  21.816  17.936
14328W        W18396   0.460  20.709  17.459
14329W        W18397   3.165  20.439  15.229
14330W        W18398   3.295  21.524  17.256
14331W        W18399   1.213  21.515  14.782
14332W        W18400   1.296  19.667  15.765
14333W        W18401   0.811  19.515  15.929
14334W        W18402   1.802  20.330  15.363
14335W        W18403   1.477  21.422  17.718
14336W        W18404   0.126  18.983  17.681
14337W        W18405   0.888  18.263  17.483
14338W        W18406   2.582  18.651  16.370
14339W        W18407   2.231  19.522  14.940
14340W        W18408   2.801  18.956  18.031
14341W        W18409   0.167  18.748  17.156
14342W        W18410   0.266  21.367  18.177
14343W        W18411   1.788  20.757  14.909
14344W        W18412   0.220  19.540  16.602
14345W        W18413   1.113  19.431  17.839
14346W        W18414   3.572  19.290  16.338
14347W        W18415   3.336  20.333  17.197
14348W        W18416   1.644  19.666  16.224
14349W        W18417   2.190  21.005  16.593
14350W        W18418   0.690  20.439  16.825
14351W        W18419   0.049  19.967  16.396
14352W        W18420   1.085  19.939  17.588
14353W        W18421   3.356  19.722  17.842
14354W        W18422   0.972  21.166  16.287
14355W        W18423   2.093  20.855  17.421
14356W        W18424   1.313  19.495  16.646
14357W        W18425   1.605  20.279  16.289
14358W        W18426   2.602  21.052  18.137
14359W        W18427   1.681  20.372  18.147
14360W        W18428   1.662  20.088  17.625
14361W        W18429   0.071  19.479  18.147
14362W        W18430   2.903  21.014  17.746
14363W        W18431   0.484  18.596  15.744
14364W        W18432   1.011  20.854  16.743
14365W        W18433   3.474  20.637  16.033
14366W        W18434   2.887  19.037  16.600
14367W        W18435   3.172  18.990  14.695
14368W        W18436   3.637  19.791  17.001
14369W        W18437   1.604  21.498  16.754
14370W        W18438   3.378  20.964  15.192
14371W        W18439   0.507  21.750  14.946
14372W        W18440   0.900  21.796  15.622
14373W        W18441   0.697  18.550  17.048
14374W        W18442   3.320  19.568  17.323
14375W        W18443   2.725  19.990  15.782
14376W        W18444   2.691  19.678  14.809
14377W        W18445   1.899  20.822  16.949
14378W        W18446   1.705  19.152  16.148
14379W        W18447   2.305  21.239  17.142
14380W        W18448   3.176  20.030  15.564
14381W        W18449   2.078  18.688  15.580
14382W        W18450   0.735  21.382  15.263
14383W        W18451   0.106  18.881  15.862
14384W        W18452   2.892  19.488  16.336
14385W        W18453   0.350  21.105  16.251
14386W        W18454   1.691  21.455  15.121
14387W        W18455   3.083  19.481  14.585
14388W        W18456   0.106  21.239  16.749
14389W        W18457   0.897  20.811  17.229
14390W        W18458   1.270  20.171  15.848
14391W        W18459   1.292  18.576  16.941
14392W        W18460   3.521  18.338  16.238
14393W        W18461   0.740  20.210  14.706
14394W        W18462   0.395  19.243  14.885
14395W        W18463   0.457  21.199  15.679
14396W        W18464   1.588  20.682  15.927
14397W        W18465   2.920  21.541  17.641
14398W        W18466   1.846  19.183  15.325
14399W        W18467   3.229  21.581  16.097
14400W        W18468   2.906  19.434  17.695
14401W        W18469   3.619  21.090  15.829
14402W        W18470   2.246  20.382  17.313
14403W        W18471   0.012  19.933  15.519
14404W        W18472   1.123  20.348  17.092
14405W        W18473   2.327  19.612  15.470
14406W        W18474   2.204  20.102  15.574
14407W        W18475   0.547  19.522  17.048
14408W        W18476   0.532  19.398  17.970
14409W        W18477   0.422  18.315  16.129
14410W        W18478   2.190  18.662  16.690
14411W        W18479   1.838  18.847  17.853
14412W        W18480   2.193  18.996  15.031
14413W        W18481   3.376  21.389  17.785
14414W        W18482   2.343  18.470  17.824
14415W        W18483   3.362  20.771  17.946
14416W        W18484   2.792  18.938  17.542
14417W        W18485   2.592  18.876  15.812
14418W        W18486   2.985  20.010  18.216
14419W        W18487   0.725  21.586  16.202
14420W        W18488   1.383  19.303  15.188
14421W        W18489   0.952  18.587  17.852
14422W        W18490   3.004  19.071  15.533
14423W        W18491   3.371  19.553  15.478
14424W        W18492   1.114  21.770  17.949
14425W        W18493   1.040  18.306  15.184
14426W        W18494   3.361  18.840  16.219
14427W        W18495   3.511  21.089  14.664
14428W        W18496   0.418  20.292  16.366
14429W        W18497   2.335  18.879  14.596
14430W        W18498   3.469  21.211  16.316
14431W        W18499   3.508  18.405  17.066
14432W        W18500   1.953  19.617  17.620
14433W        W18501   2.046  20.956  15.323
14434W        W18502   2.446  20.250  18.063
14435W        W18503   2.120  18.227  16.372
14436W        W18504   0.732  19.130  16.435
14437W        W18505   0.286  20.330  17.209
14438W        W18506   2.145  21.523  15.915
14439W        W18507   3.339  19.120  16.787
14440W        W18508   1.976  21.467  17.554
14441W        W18509   3.319  20.526  14.759
14442W        W18510   1.754  20.009  15.820
14443W        W18511   3.606  18.520  17.561
14444W        W18512   1.755  20.355  17.155
14445W        W18513   1.972  19.241  16.600
14446W        W18514   2.824  19.539  15.438
14447W        W18515   3.111  19.272  15.080
14448W        W18516   2.920  21.312  15.469
14449W        W18517   2.754  20.915  16.265
14450W        W18518   2.650  19.994  15.243
14451W        W18519   2.083  20.204  16.229
14452W        W18520   2.964  19.992  16.296
14453W        W18521   0.339  19.007  16.720
14454W        W18522   3.117  20.059  17.547
14455W        W18523   3.468  21.677  16.693
14456W        W18524   1.398  21.121  16.095
14457W        W18525   2.405  21.654  17.419
14458W        W18526   2.399  18.984  17.183
14459W        W18527   1.606  21.692  17.244
14460W        W18528   3.303  18.646  15.710
14461W        W18529   3.094  19.965  17.011
14462W        W18530   0.077  19.286  17.049
14463W        W18531   2.937  19.081  16.067
14464W        W18532   3.348  19.232  17.844
14465W        W18533   2.233  20.931  16.062
14466W        W18534   1.489  21.522  15.675
14467W        W18535   0.604  18.702  14.933
14468W        W18536   1.708  18.356  16.743
14469W        W18537   0.736  21.476  14.591
14470W        W18538   1.110  19.942  15.342
14471W        W18539   1.764  20.571  17.655
14472W        W18540   1.594  18.929  15.645
14473W        W18541   2.950  18.526  16.073
14474W        W18542   2.670  21.808  16.401
14475W        W18543   2.082  21.456  16.741
14476W        W18544   1.478  20.493  16.702
14477W        W18545   3.248  21.216  16.828
14478W        W18546   0.942  18.719  15.597
14479W        W18547   1.464  21.016  16.557
14480W        W18548   0.947  18.947  14.622
14481W        W18549   1.748  19.556  17.016
14482W        W18550   2.596  18.422  16.886
14483W        W18551   0.016  20.265  16.771
14484W        W18552   1.720  20.083  14.929
14485W        W18553   0.988  18.398  14.699
14486W        W18554   1.726  19.479  15.750
14487W        W18555   2.696  18.455  17.449
14488W        W18556   1.284  20.467  17.558
14489W        W18557   2.088  20.249  17.775
14490W        W18558   2.705  20.279  17.668
14491W        W18559   1.989  18.419  18.173
14492W        W18560   1.211  19.035  16.566
14493W        W18561   0.637  18.991  15.964
14494W        W18562   0.423  21.703  15.640
14495W        W18563   1.755  21.033  17.765
14496W        W18564   0.790  20.518  15.124
14497W        W18565   2.470  19.903  16.345
14498W        W18566   2.750  19.702  16.744
14499W        W18567   1.955  20.376  16.678
14500W        W18568   2.425  20.750  14.810
14501W        W18569   2.097  18.771  16.138
14502W        W18570   3.576  19.049  15.406
14503W        W18571   0.070  21.638  17.437
14504W        W18572   0.487  20.864  16.969
14505W        W18573   0.054  21.710  15.201
14506W        W18574   1.953  18.980  17.007
14507W        W18575   1.316  21.003  14.856
14508W        W18576   3.221  21.385  15.042
14509W        W18577   2.196  20.038  15.056
14510W        W18578   1.039  19.229  15.573
14511W        W18579   1.871  19.139  14.625
14512W        W18580   2.455  20.704  17.803
14513W        W18581   2.808  18.610  15.420
14514W        W18582   0.138  18.458  14.868
14515W        W18583   1.424  20.777  17.158
14516W        W18584   1.223  20.693  16.250
14517W        W18585   0.965  20.645  14.648
14518W        W18586   0.206  20.886  15.416
14519W        W18587   0.710  19.956  17.858
14520W        W18588   1.414  18.516  18.044
14521W        W18589   2.123  18.658  17.400
14522W        W18590   1.318  18.426  15.681
14523W        W18591   2.377  18.503  15.186
14524W        W18592   0.322  18.435  16.763
14525W        W18593   0.370  19.398  16.133
14526W        W18594   3.059  18.506  16.539
14527W        W18595   0.481  19.004  15.353
14528W        W18596   3.052  18.692  16.969
14529W        W18597   3.448  19.895  14.654
14530W        W18598   0.740  18.653  16.473
14531W        W18599   1.854  19.225  17.413
14532W        W18600   0.002  18.915  14.891
14533W        W18601   0.788  20.304  17.452
14534W        W18602   2.146  19.702  16.631
14535W        W18603   2.013  21.781  14.927
14536W        W18604   0.159  20.288  14.624
14537W        W18605   0.894  20.699  17.750
14538W        W18606   0.415  19.866  17.381
14539W        W18607   1.406  19.971  17.175
14540W        W18608   3.174  18.330  17.437
14541W        W18609   3.572  19.940  17.428
14542W        W18610   3.560  20.140  15.114
14543W        W18611   2.423  20.472  15.213
14544W        W18612   2.897  21.772  14.908
14545W        W18613   2.074  19.762  18.050
14546W        W18614   0.404  20.729  18.090
14547W        W18615   3.610  18.651  18.042
14548W        W18616   3.328  19.579  16.663
14549W        W18617   1.636  21.709  18.140
14550W        W18618   1.491  18.338  14.867
14551W        W18619   3.030  20.937  14.810
14552W        W18620   0.799  19.030  17.696
14553W        W18621   1.233  21.024  17.558
14554W        W18622   3.359  19.015  17.356
14555W        W18623   2.570  21.674  15.324
14556W        W18624   2.809  20.293  16.691
14557W        W18625   1.059  18.709  17.358
14558W        W18626   1.528  19.778  18.115
14559W        W18627   1.031  20.957  15.309
14560W        W18628   2.786  20.455  15.573
14561W        W18629   0.554  19.081  17.297
14562W        W18630   1.883  21.143  15.761
14563W        W18631   3.633  19.703  15.942
14564W        W18632   1.855  18.336  17.661
14565W        W18633   2.635  21.041  16.740
14566W        W18634   2.938  21.385  16.448
14567W        W18635   2.157  21.187  14.876
14568W        W18636   0.167  21.079  17.718
14569W        W18637   0.910  19.071  16.956
14570W        W18638   0.880  18.419  16.066
14571W        W18639   2.501  19.261  16.758
14572W        W18640   1.299  20.432  14.958
14573W        W18641   3.297  20.374  16.457
14574W        W18642   0.624  21.132  17.880
14575W        W18643   3.011  21.814  15.677
14576W        W18644   1.110  18.834  16.122
14577W        W18645   0.879  20.327  16.212
14578W        W18646   1.192  21.738  16.962
14579W        W18647   3.259  21.834  17.994
14580W        W18648   2.418  20.022  16.927
14581W        W18649   0.267  19.820  14.842
14582W        W18650   3.401  21.478  15.539
14583W        W18651   3.238  18.802  15.158
14584W        W18652   1.377  18.321  17.561
14585W        W18653   3.083  21.123  16.019
14586W        W18654   3.112  19.679  15.924
14587W        W18655   1.229  19.352  16.140
14588W        W18656   1.474  19.614  17.464
14589W        W18657   2.585  20.767  17.327
14590W        W18658   1.235  19.221  17.439
14591W        W18659   1.214  21.687  16.055
14592W        W18660   0.531  21.646  17.689
14593W        W18661   0.643  21.007  14.819
14594W        W18662   3.160  20.765  15.629
14595W        W18663   0.764  19.557  17.515
14596W        W18664   3.537  19.487  14.996
14597W        W18665   1.282  20.544  15.467
14598W        W18666   2.381  19.926  17.548
14599W        W18667   2.272  19.554  17.092
14600W        W18668   0.832  19.926  17.121
14601W        W18669   3.042  21.814  16.950
14602W        W18670   2.833  18.448  17.944
14603W        W18671   0.497  18.598  17.531
14604W        W18672   0.836  19.621  16.584
14605W        W18673   1.205  19.435  14.706
14606W        W18674   0.008  21.194  17.251
14607W        W18675   1.593  19.903  16.694
14608W        W18676   1.416  18.928  14.799
14609W        W18677   0.551  19.744  15.580
14610W        W18678   0.322  21.596  17.017
14611W        W18679   3.117  19.822  15.125
14612W        W18680   3.212  18.738  17.811
14613W        W18681   2.648  20.947  15.774
14614W        W18682   0.246  19.871  17.951
14615W        W18683   3.212  18.335  15.247
14616W        W18684   2.732  20.810  15.258
14617W        W18685   1.634  19.868  15.343
14618W        W18686   2.821  18.672  14.866
14619W        W18687   2.886  19.279  17.052
14620W        W18688   0.595  19.872  16.259
14621W        W18689   0.889  20.811  15.908
14622W        W18690   2.652  19.431  15.873
14623W        W18691   1.675  18.810  16.569
14624W        W18692   3.637  20.721  17.080
14625W        W18693   3.555  18.708  16.641
14626W        W18694   0.094  21.538  16.017
14627W        W18695   0.603  20.725  15.553
14628W        W18696   0.518  18.342  18.106
14629W        W18697   1.637  21.195  18.208
14630W        W18698   3.392  20.163  15.998
14631W        W18699   2.746  20.340  14.878
14632W        W18700   2.041  21.861  17.090
14633W        W18701   2.898  20.583  18.127
14634W        W18702   1.713  18.293  15.407
14635W        W18703   2.426  19.162  16.266
14636W        W18704   0.112  20.749  16.598
14637W        W18705   1.365  18.711  15.239
14638W        W18706   1.169  20.195  18.088
14639W        W18707   2.163  19.176  15.802
14640W        W18708   2.368  20.586  16.924
14641W        W18709   0.522  21.191  17.359
14642W        W18710   1.113  21.174  18.082
14643W        W18711   0.964  18.971  15.096
14644W        W18712   2.481  19.113  15.421
14645W        W18713   2.439  21.221  17.658
14646W        W18714   1.124  19.813  16.257
14647W        W18715   0.779  21.511  17.122
14648W        W18716   3.524  21.628  14.723
14649W        W18717   0.387  20.300  17.719
14650W        W18718   2.382  20.562  16.407
14651W        W18719   0.818  20.211  15.649
14652W        W18720   1.189  21.218  17.044
14653W        W18721   1.567  18.637  16.085
14654W        W18722   0.178  20.621  15.015
14655W        W18723   1.697  19.572  14.885
14656W        W18724   0.343  20.121  15.904
14657W        W18725   1.633  18.763  17.368
14658W        W18726   3.305  18.472  14.795
14659W        W18727   3.398  20.218  17.894
14660W        W18728   2.052  21.475  18.046
14661W        W18729   3.610  20.569  17.568
14662W        W18730   3.018  21.367  18.179
14663W        W18731   0.757  21.823  16.657
14664W        W18732   3.616  20.445  15.531
14665W        W18733   2.146  19.712  16.044
14666W        W18734   1.913  18.324  15.934
14667W        W18735   0.972  21.308  15.771
14668W        W18736   1.471  19.049  16.996
14669W        W18737   1.171  18.418  16.465
14670W        W18738   0.234  21.240  15.013
14671W        W18739   2.050  20.604  15.731
14672W        W18740   0.925  21.399  17.610
14673W        W18741   0.402  20.222  15.306
14674W        W18742   0.287  18.765  16.305
14675W        W18743   1.835  20.730  16.362
14676W        W18744   0.087  18.584  15.382
14677W        W18745   2.751  19.790  17.309
14678W        W18746   2.628  19.176  14.881
14679W        W18747   3.145  20.848  16.529
14680W        W18748   1.806  21.332  16.360
14681W        W18749   1.218  21.436  15.271
14682W        W18750   2.500  18.339  14.701
14683W        W18751   0.300  21.599  16.442
14684W        W18752   2.497  19.357  18.077
14685W        W18753   0.480  18.887  18.076
14686W        W18754   0.211  19.487  15.409
14687W        W18755   0.902  19.476  15.134
14688W        W18756   2.665  19.803  17.951
14689W        W18757   1.008  20.084  16.660
14690W        W18758   2.482  18.370  15.780
14691W        W18759   1.613  21.801  16.283
14692W        W18760   2.827  21.263  17.220
14693W        W18761   2.411  21.412  16.331
14694W        W18762   2.430  20.392  15.925
14695W        W18763   1.892  18.617  14.996
14696W        W18764   3.573  18.245  15.718
14697W        W18765   1.261  19.880  14.881
14698W        W18766   3.427  19.217  15.871
14699W        W18767   2.119  20.387  14.748
14700W        W18768   3.055  20.587  17.496
14701W        W18769   2.709  21.288  14.963
14702W        W18770   1.324  18.963  17.869
14703W        W18771   1.144  19.547  17.110
14704W        W18772   3.236  21.042  17.387
14705W        W18773   2.336  18.992  17.764
14706W        W18774   0.180  19.463  17.541
14707W        W18775   1.940  19.940  17.267
14708W        W18776   0.297  20.698  15.924
14709W        W18777   0.444  19.995  16.814
14710W        W18778   2.761  20.281  17.164
14711W        W18779   2.533  21.661  17.975
14712W        W18780   2.429  19.400  17.528
14713W        W18781   2.706  21.454  15.933
14714W        W18782   1.708  21.174  17.256
14715W        W18783   1.193  21.529  16.525
14716W        W18784   2.998  20.700  16.944
14717W        W18785   2.048  20.772  18.081
14718W        W18786   0.653  20.725  16.420
14719W        W18787   2.999  20.484  16.065
14720W        W18788   2.640  21.550  16.816
14721W        W18789   0.618  21.279  16.686
14722W        W18790   1.639  19.331  17.896
14723W        W18791   2.090  21.497  15.407
14724W        W18792   1.398  20.752  18.045
14725W        W18793   1.524  20.990  15.422
14726W        W18794   0.745  19.730  14.681
14727W        W18795   0.084  21.816  21.580
14728W        W18796   0.460  20.709  21.103
14729W        W18797   3.165  20.439  18.873
14730W        W18798   3.295  21.524  20.900
14731W        W18799   1.213  21.515  18.426
14732W        W18800   1.296  19.667  19.409
14733W        W18801   0.811  19.515  19.573
14734W        W18802   1.802  20.330  19.007
14735W        W18803   1.477  21.422  21.362
14736W        W18804   0.126  18.983  21.325
14737W        W18805   0.888  18.263  21.127
14738W        W18806   2.582  18.651  20.014
14739W        W18807   2.231  19.522  18.584
14740W        W18808   2.801  18.956  21.675
14741W        W18809   0.167  18.748  20.800
14742W        W18810   0.266  21.367  21.821
14743W        W18811   1.788  20.757  18.553
14744W        W18812   0.220  19.540  20.246
14745W        W18813   1.113  19.431  21.483
14746W        W18814   3.572  19.290  19.982
14747W        W18815   3.336  20.333  20.841
14748W        W18816   1.644  19.666  19.868
14749W        W18817   2.190  21.005  20.237
14750W        W18818   0.690  20.439  20.469
14751W        W18819   0.049  19.967  20.040
14752W        W18820   1.085  19.939  21.232
14753W        W18821   3.356  19.722  21.486
14754W        W18822   0.972  21.166  19.931
14755W        W18823   2.093  20.855  21.065
14756W        W18824   1.313  19.495  20.290
14757W        W18825   1.605  20.279  19.933
14758W        W18826   2.602  21.052  21.781
14759W        W18827   1.681  20.372  21.791
14760W        W18828   1.662  20.088  21.269
14761W        W18829   0.071  19.479  21.791
14762W        W18830   2.903  21.014  21.390
14763W        W18831   0.484  18.596  19.388
14764W        W18832   1.011  20.854  20.387
14765W        W18833   3.474  20.637  19.677
14766W        W18834   2.887  19.037  20.244
14767W        W18835   3.172  18.990  18.339
14768W        W18836   3.637  19.791  20.645
14769W        W18837   1.604  21.498  20.398
14770W        W18838   3.378  20.964  18.836
14771W        W18839   0.507  21.750  18.590
14772W        W18840   0.900  21.796  19.266
14773W        W18841   0.697  18.550  20.692
14774W        W18842   3.320  19.568  20.967
14775W        W18843   2.725  19.990  19.426
14776W        W18844   2.691  19.678  18.453
14777W        W18845   1.899  20.822  20.593
14778W        W18846   1.705  19.152  19.792
14779W        W18847   2.305  21.239  20.786
14780W        W18848   3.176  20.030  19.208
14781W        W18849   2.078  18.688  19.224
14782W        W18850   0.735  21.382  18.907
14783W        W18851   0.106  18.881  19.506
14784W        W18852   2.892  19.488  19.980
14785W        W18853   0.350  21.105  19.895
14786W        W18854   1.691  21.455  18.765
14787W        W18855   3.083  19.481  18.229
14788W        W18856   0.106  21.239  20.393
14789W        W18857   0.897  20.811  20.873
14790W        W18858   1.270  20.171  19.492
14791W        W18859   1.292  18.576  20.585
14792W        W18860   3.521  18.338  19.882
14793W        W18861   0.740  20.210  18.350
14794W        W18862   0.395  19.243  18.529
14795W        W18863   0.457  21.199  19.323
14796W        W18864   1.588  20.682  19.571
14797W        W18865   2.920  21.541  21.285
14798W        W18866   1.846  19.183  18.969
14799W        W18867   3.229  21.581  19.741
14800W        W18868   2.906  19.434  21.339
14801W        W18869   3.619  21.090  19.473
14802W        W18870   2.246  20.382  20.957
14803W        W18871   0.012  19.933  19.163
14804W        W18872   1.123  20.348  20.736
14805W        W18873   2.327  19.612  19.114
14806W        W18874   2.204  20.102  19.218
14807W        W18875   0.547  19.522  20.692
14808W        W18876   0.532  19.398  21.614
14809W        W18877   0.422  18.315  19.773
14810W        W18878   2.190  18.662  20.334
14811W        W18879   1.838  18.847  21.497
14812W        W18880   2.193  18.996  18.675
14813W        W18881   3.376  21.389  21.429
14814W        W18882   2.343  18.470  21.468
14815W        W18883   3.362  20.771  21.590
14816W        W18884   2.792  18.938  21.186
14817W        W18885   2.592  18.876  19.456
14818W        W18886   2.985  20.010  21.860
14819W        W18887   0.725  21.586  19.846
14820W        W18888   1.383  19.303  18.832
14821W        W18889   0.952  18.587  21.496
14822W        W18890   3.004  19.071  19.177
14823W        W18891   3.371  19.553  19.122
14824W        W18892   1.114  21.770  21.593
14825W        W18893   1.040  18.306  18.828
14826W        W18894   3.361  18.840  19.863
14827W        W18895   3.511  21.089  18.308
14828W        W18896   0.418  20.292  20.010
14829W        W18897   2.335  18.879  18.240
14830W        W18898   3.469  21.211  19.960
14831W        W18899   3.508  18.405  20.710
14832W        W18900   1.953  19.617  21.264
14833W        W18901   2.046  20.956  18.967
14834W        W18902   2.446  20.250  21.707
14835W        W18903   2.120  18.227  20.016
14836W        W18904   0.732  19.130  20.079
14837W        W18905   0.286  20.330  20.853
14838W        W18906   2.145  21.523  19.559
14839W        W18907   3.339  19.120  20.431
14840W        W18908   1.976  21.467  21.198
14841W        W18909   3.319  20.526  18.403
14842W        W18910   1.754  20.009  19.464
14843W        W18911   3.606  18.520  21.205
14844W        W18912   1.755  20.355  20.799
14845W        W18913   1.972  19.241  20.244
14846W        W18914   2.824  19.539  19.082
14847W        W18915   3.111  19.272  18.724
14848W        W18916   2.920  21.312  19.113
14849W        W18917   2.754  20.915  19.909
14850W        W18918   2.650  19.994  18.887
14851W        W18919   2.083  20.204  19.873
14852W        W18920   2.964  19.992  19.940
14853W        W18921   0.339  19.007  20.364
14854W        W18922   3.117  20.059  21.191
14855W        W18923   3.468  21.677  20.337
14856W        W18924   1.398  21.121  19.739
14857W        W18925   2.405  21.654  21.063
14858W        W18926   2.399  18.984  20.827
14859W        W18927   1.606  21.692  20.888
14860W        W18928   3.303  18.646  19.354
14861W        W18929   3.094  19.965  20.655
14862W        W18930   0.077  19.286  20.693
14863W        W18931   2.937  19.081  19.711
14864W        W18932   3.348  19.232  21.488
14865W        W18933   2.233  20.931  19.706
14866W        W18934   1.489  21.522  19.319
14867W        W18935   0.604  18.702  18.577
14868W        W18936   1.708  18.356  20.387
14869W        W18937   0.736  21.476  18.235
14870W        W18938   1.110  19.942  18.986
14871W        W18939   1.764  20.571  21.299
14872W        W18940   1.594  18.929  19.289
14873W        W18941   2.950  18.526  19.717
14874W        W18942   2.670  21.808  20.045
14875W        W18943   2.082  21.456  20.385
14876W        W18944   1.478  20.493  20.346
14877W        W18945   3.248  21.216  20.472
14878W        W18946   0.942  18.719  19.241
14879W        W18947   1.464  21.016  20.201
14880W        W18948   0.947  18.947  18.266
14881W        W18949   1.748  19.556  20.660
14882W        W18950   2.596  18.422  20.530
14883W        W18951   0.016  20.265  20.415
14884W        W18952   1.720  20.083  18.573
14885W        W18953   0.988  18.398  18.343
14886W        W18954   1.726  19.479  19.394
14887W        W18955   2.696  18.455  21.093
14888W        W18956   1.284  20.467  21.202
14889W        W18957   2.088  20.249  21.419
14890W        W18958   2.705  20.279  21.312
14891W        W18959   1.989  18.419  21.817
14892W        W18960   1.211  19.035  20.210
14893W        W18961   0.637  18.991  19.608
14894W        W18962   0.423  21.703  19.284
14895W        W18963   1.755  21.033  21.409
14896W        W18964   0.790  20.518  18.768
14897W        W18965   2.470  19.903  19.989
14898W        W18966   2.750  19.702  20.388
14899W        W18967   1.955  20.376  20.322
14900W        W18968   2.425  20.750  18.454
14901W        W18969   2.097  18.771  19.782
14902W        W18970   3.576  19.049  19.050
14903W        W18971   0.070  21.638  21.081
14904W        W18972   0.487  20.864  20.613
14905W        W18973   0.054  21.710  18.845
14906W        W18974   1.953  18.980  20.651
14907W        W18975   1.316  21.003  18.500
14908W        W18976   3.221  21.385  18.686
14909W        W18977   2.196  20.038  18.700
14910W        W18978   1.039  19.229  19.217
14911W        W18979   1.871  19.139  18.269
14912W        W18980   2.455  20.704  21.447
14913W        W18981   2.808  18.610  19.064
14914W        W18982   0.138  18.458  18.512
14915W        W18983   1.424  20.777  20.802
14916W        W18984   1.223  20.693  19.894
14917W        W18985   0.965  20.645  18.292
14918W        W18986   0.206  20.886  19.060
14919W        W18987   0.710  19.956  21.502
14920W        W18988   1.414  18.516  21.688
14921W        W18989   2.123  18.658  21.044
14922W        W18990   1.318  18.426  19.325
14923W        W18991   2.377  18.503  18.830
14924W        W18992   0.322  18.435  20.407
14925W        W18993   0.370  19.398  19.777
14926W        W18994   3.059  18.506  20.183
14927W        W18995   0.481  19.004  18.997
14928W        W18996   3.052  18.692  20.613
14929W        W18997   3.448  19.895  18.298
14930W        W18998   0.740  18.653  20.117
14931W        W18999   1.854  19.225  21.057
14932W        W19000   0.002  18.915  18.535
14933W        W19001   0.788  20.304  21.096
14934W        W19002   2.146  19.702  20.275
14935W        W19003   2.013  21.781  18.571
14936W        W19004   0.159  20.288  18.268
14937W        W19005   0.894  20.699  21.394
14938W        W19006   0.415  19.866  21.025
14939W        W19007   1.406  19.971  20.819
14940W        W19008   3.174  18.330  21.081
14941W        W19009   3.572  19.940  21.072
14942W        W19010   3.560  20.140  18.758
14943W        W19011   2.423  20.472  18.857
14944W        W19012   2.897  21.772  18.552
14945W        W19013   2.074  19.762  21.694
14946W        W19014   0.404  20.729  21.734
14947W        W19015   3.610  18.651  21.686
14948W        W19016   3.328  19.579  20.307
14949W        W19017   1.636  21.709  21.784
14950W        W19018   1.491  18.338  18.511
14951W        W19019   3.030  20.937  18.454
14952W        W19020   0.799  19.030  21.340
14953W        W19021   1.233  21.024  21.202
14954W        W19022   3.359  19.015  21.000
14955W        W19023   2.570  21.674  18.968
14956W        W19024   2.809  20.293  20.335
14957W        W19025   1.059  18.709  21.002
14958W        W19026   1.528  19.778  21.759
14959W        W19027   1.031  20.957  18.953
14960W        W19028   2.786  20.455  19.217
14961W        W19029   0.554  19.081  20.941
14962W        W19030   1.883  21.143  19.405
14963W        W19031   3.633  19.703  19.586
14964W        W19032   1.855  18.336  21.305
14965W        W19033   2.635  21.041  20.384
14966W        W19034   2.938  21.385  20.092
14967W        W19035   2.157  21.187  18.520
14968W        W19036   0.167  21.079  21.362
14969W        W19037   0.910  19.071  20.600
14970W        W19038   0.880  18.419  19.710
14971W        W19039   2.501  19.261  20.402
14972W        W19040   1.299  20.432  18.602
14973W        W19041   3.297  20.374  20.101
14974W        W19042   0.624  21.132  21.524
14975W        W19043   3.011  21.814  19.321
14976W        W19044   1.110  18.834  19.766
14977W        W19045   0.879  20.327  19.856
14978W        W19046   1.192  21.738  20.606
14979W        W19047   3.259  21.834  21.638
14980W        W19048   2.418  20.022  20.571
14981W        W19049   0.267  19.820  18.486
14982W        W19050   3.401  21.478  19.183
14983W        W19051   3.238  18.802  18.802
14984W        W19052   1.377  18.321  21.205
14985W        W19053   3.083  21.123  19.663
14986W        W19054   3.112  19.679  19.568
14987W        W19055   1.229  19.352  19.784
14988W        W19056   1.474  19.614  21.108
14989W        W19057   2.585  20.767  20.971
14990W        W19058   1.235  19.221  21.083
14991W        W19059   1.214  21.687  19.699
14992W        W19060   0.531  21.646  21.333
14993W        W19061   0.643  21.007  18.463
14994W        W19062   3.160  20.765  19.273
14995W        W19063   0.764  19.557  21.159
14996W        W19064   3.537  19.487  18.640
14997W        W19065   1.282  20.544  19.111
14998W        W19066   2.381  19.926  21.192
14999W        W19067   2.272  19.554  20.736
15000W        W19068   0.832  19.926  20.765
15001W        W19069   3.042  21.814  20.594
15002W        W19070   2.833  18.448  21.588
15003W        W19071   0.497  18.598  21.175
15004W        W19072   0.836  19.621  20.228
15005W        W19073   1.205  19.435  18.350
15006W        W19074   0.008  21.194  20.895
15007W        W19075   1.593  19.903  20.338
15008W        W19076   1.416  18.928  18.443
15009W        W19077   0.551  19.744  19.224
15010W        W19078   0.322  21.596  20.661
15011W        W19079   3.117  19.822  18.769
15012W        W19080   3.212  18.738  21.455
15013W        W19081   2.648  20.947  19.418
15014W        W19082   0.246  19.871  21.595
15015W        W19083   3.212  18.335  18.891
15016W        W19084   2.732  20.810  18.902
15017W        W19085   1.634  19.868  18.987
15018W        W19086   2.821  18.672  18.510
15019W        W19087   2.886  19.279  20.696
15020W        W19088   0.595  19.872  19.903
15021W        W19089   0.889  20.811  19.552
15022W        W19090   2.652  19.431  19.517
15023W        W19091   1.675  18.810  20.213
15024W        W19092   3.637  20.721  20.724
15025W        W19093   3.555  18.708  20.285
15026W        W19094   0.094  21.538  19.661
15027W        W19095   0.603  20.725  19.197
15028W        W19096   0.518  18.342  21.750
15029W        W19097   1.637  21.195  21.852
15030W        W19098   3.392  20.163  19.642
15031W        W19099   2.746  20.340  18.522
15032W        W19100   2.041  21.861  20.734
15033W        W19101   2.898  20.583  21.771
15034W        W19102   1.713  18.293  19.051
15035W        W19103   2.426  19.162  19.910
15036W        W19104   0.112  20.749  20.242
15037W        W19105   1.365  18.711  18.883
15038W        W19106   1.169  20.195  21.732
15039W        W19107   2.163  19.176  19.446
15040W        W19108   2.368  20.586  20.568
15041W        W19109   0.522  21.191  21.003
15042W        W19110   1.113  21.174  21.726
15043W        W19111   0.964  18.971  18.740
15044W        W19112   2.481  19.113  19.065
15045W        W19113   2.439  21.221  21.302
15046W        W19114   1.124  19.813  19.901
15047W        W19115   0.779  21.511  20.766
15048W        W19116   3.524  21.628  18.367
15049W        W19117   0.387  20.300  21.363
15050W        W19118   2.382  20.562  20.051
15051W        W19119   0.818  20.211  19.293
15052W        W19120   1.189  21.218  20.688
15053W        W19121   1.567  18.637  19.729
15054W        W19122   0.178  20.621  18.659
15055W        W19123   1.697  19.572  18.529
15056W        W19124   0.343  20.121  19.548
15057W        W19125   1.633  18.763  21.012
15058W        W19126   3.305  18.472  18.439
15059W        W19127   3.398  20.218  21.538
15060W        W19128   2.052  21.475  21.690
15061W        W19129   3.610  20.569  21.212
15062W        W19130   3.018  21.367  21.823
15063W        W19131   0.757  21.823  20.301
15064W        W19132   3.616  20.445  19.175
15065W        W19133   2.146  19.712  19.688
15066W        W19134   1.913  18.324  19.578
15067W        W19135   0.972  21.308  19.415
15068W        W19136   1.471  19.049  20.640
15069W        W19137   1.171  18.418  20.109
15070W        W19138   0.234  21.240  18.657
15071W        W19139   2.050  20.604  19.375
15072W        W19140   0.925  21.399  21.254
15073W        W19141   0.402  20.222  18.950
15074W        W19142   0.287  18.765  19.949
15075W        W19143   1.835  20.730  20.006
15076W        W19144   0.087  18.584  19.026
15077W        W19145   2.751  19.790  20.953
15078W        W19146   2.628  19.176  18.525
15079W        W19147   3.145  20.848  20.173
15080W        W19148   1.806  21.332  20.004
15081W        W19149   1.218  21.436  18.915
15082W        W19150   2.500  18.339  18.345
15083W        W19151   0.300  21.599  20.086
15084W        W19152   2.497  19.357  21.721
15085W        W19153   0.480  18.887  21.720
15086W        W19154   0.211  19.487  19.053
15087W        W19155   0.902  19.476  18.778
15088W        W19156   2.665  19.803  21.595
15089W        W19157   1.008  20.084  20.304
15090W        W19158   2.482  18.370  19.424
15091W        W19159   1.613  21.801  19.927
15092W        W19160   2.827  21.263  20.864
15093W        W19161   2.411  21.412  19.975
15094W        W19162   2.430  20.392  19.569
15095W        W19163   1.892  18.617  18.640
15096W        W19164   3.573  18.245  19.362
15097W        W19165   1.261  19.880  18.525
15098W        W19166   3.427  19.217  19.515
15099W        W19167   2.119  20.387  18.392
15100W        W19168   3.055  20.587  21.140
15101W        W19169   2.709  21.288  18.607
15102W        W19170   1.324  18.963  21.513
15103W        W19171   1.144  19.547  20.754
15104W        W19172   3.236  21.042  21.031
15105W        W19173   2.336  18.992  21.408
15106W        W19174   0.180  19.463  21.185
15107W        W19175   1.940  19.940  20.911
15108W        W19176   0.297  20.698  19.568
15109W        W19177   0.444  19.995  20.458
15110W        W19178   2.761  20.281  20.808
15111W        W19179   2.533  21.661  21.619
15112W        W19180   2.429  19.400  21.172
15113W        W19181   2.706  21.454  19.577
15114W        W19182   1.708  21.174  20.900
15115W        W19183   1.193  21.529  20.169
15116W        W19184   2.998  20.700  20.588
15117W        W19185   2.048  20.772  21.725
15118W        W19186   0.653  20.725  20.064
15119W        W19187   2.999  20.484  19.709
15120W        W19188   2.640  21.550  20.460
15121W        W19189   0.618  21.279  20.330
15122W        W19190   1.639  19.331  21.540
15123W        W19191   2.090  21.497  19.051
15124W        W19192   1.398  20.752  21.689
15125W        W19193   1.524  20.990  19.066
15126W        W19194   0.745  19.730  18.325
15127W        W19195   3.165  20.439  22.518
15128W        W19196   1.213  21.515  22.071
15129W        W19197   1.296  19.667  23.054
15130W        W19198   0.811  19.515  23.218
15131W        W19199   1.802  20.330  22.652
15132W        W19200   2.231  19.522  22.229
15133W        W19201   1.788  20.757  22.198
15134W        W19202   0.484  18.596  23.033
15135W        W19203   3.172  18.990  21.984
15136W        W19204   3.378  20.964  22.481
15137W        W19205   0.507  21.750  22.235
15138W        W19206   0.900  21.796  22.911
15139W        W19207   2.725  19.990  23.071
15140W        W19208   2.691  19.678  22.098
15141W        W19209   3.176  20.030  22.853
15142W        W19210   2.078  18.688  22.869
15143W        W19211   0.735  21.382  22.552
15144W        W19212   1.691  21.455  22.410
15145W        W19213   3.083  19.481  21.874
15146W        W19214   1.270  20.171  23.137
15147W        W19215   0.740  20.210  21.995
15148W        W19216   0.395  19.243  22.174
15149W        W19217   0.457  21.199  22.968
15150W        W19218   1.588  20.682  23.216
15151W        W19219   1.846  19.183  22.614
15152W        W19220   0.012  19.933  22.808
15153W        W19221   2.327  19.612  22.759
15154W        W19222   2.204  20.102  22.863
15155W        W19223   2.193  18.996  22.320
15156W        W19224   2.592  18.876  23.101
15157W        W19225   1.383  19.303  22.477
15158W        W19226   3.004  19.071  22.822
15159W        W19227   3.371  19.553  22.767
15160W        W19228   1.040  18.306  22.473
15161W        W19229   3.511  21.089  21.953
15162W        W19230   2.335  18.879  21.885
15163W        W19231   2.046  20.956  22.612
15164W        W19232   2.145  21.523  23.204
15165W        W19233   3.319  20.526  22.048
15166W        W19234   1.754  20.009  23.109
15167W        W19235   2.824  19.539  22.727
15168W        W19236   3.111  19.272  22.369
15169W        W19237   2.920  21.312  22.758
15170W        W19238   2.650  19.994  22.532
15171W        W19239   3.303  18.646  22.999
15172W        W19240   1.489  21.522  22.964
15173W        W19241   0.604  18.702  22.222
15174W        W19242   0.736  21.476  21.880
15175W        W19243   1.110  19.942  22.631
15176W        W19244   1.594  18.929  22.934
15177W        W19245   0.942  18.719  22.886
15178W        W19246   0.947  18.947  21.911
15179W        W19247   1.720  20.083  22.218
15180W        W19248   0.988  18.398  21.988
15181W        W19249   1.726  19.479  23.039
15182W        W19250   0.637  18.991  23.253
15183W        W19251   0.423  21.703  22.929
15184W        W19252   0.790  20.518  22.413
15185W        W19253   2.425  20.750  22.099
15186W        W19254   3.576  19.049  22.695
15187W        W19255   0.054  21.710  22.490
15188W        W19256   1.316  21.003  22.145
15189W        W19257   3.221  21.385  22.331
15190W        W19258   2.196  20.038  22.345
15191W        W19259   1.039  19.229  22.862
15192W        W19260   1.871  19.139  21.914
15193W        W19261   2.808  18.610  22.709
15194W        W19262   0.138  18.458  22.157
15195W        W19263   0.965  20.645  21.937
15196W        W19264   0.206  20.886  22.705
15197W        W19265   1.318  18.426  22.970
15198W        W19266   2.377  18.503  22.475
15199W        W19267   0.481  19.004  22.642
15200W        W19268   3.448  19.895  21.943
15201W        W19269   0.002  18.915  22.180
15202W        W19270   2.013  21.781  22.216
15203W        W19271   0.159  20.288  21.913
15204W        W19272   3.560  20.140  22.403
15205W        W19273   2.423  20.472  22.502
15206W        W19274   2.897  21.772  22.197
15207W        W19275   1.491  18.338  22.156
15208W        W19276   3.030  20.937  22.099
15209W        W19277   2.570  21.674  22.613
15210W        W19278   1.031  20.957  22.598
15211W        W19279   2.786  20.455  22.862
15212W        W19280   1.883  21.143  23.050
15213W        W19281   3.633  19.703  23.231
15214W        W19282   2.157  21.187  22.165
15215W        W19283   1.299  20.432  22.247
15216W        W19284   3.011  21.814  22.966
15217W        W19285   0.267  19.820  22.131
15218W        W19286   3.401  21.478  22.828
15219W        W19287   3.238  18.802  22.447
15220W        W19288   3.112  19.679  23.213
15221W        W19289   0.643  21.007  22.108
15222W        W19290   3.160  20.765  22.918
15223W        W19291   3.537  19.487  22.285
15224W        W19292   1.282  20.544  22.756
15225W        W19293   1.205  19.435  21.995
15226W        W19294   1.416  18.928  22.088
15227W        W19295   0.551  19.744  22.869
15228W        W19296   3.117  19.822  22.414
15229W        W19297   2.648  20.947  23.063
15230W        W19298   3.212  18.335  22.536
15231W        W19299   2.732  20.810  22.547
15232W        W19300   1.634  19.868  22.632
15233W        W19301   2.821  18.672  22.155
15234W        W19302   0.889  20.811  23.197
15235W        W19303   2.652  19.431  23.162
15236W        W19304   0.094  21.538  23.306
15237W        W19305   0.603  20.725  22.842
15238W        W19306   3.392  20.163  23.287
15239W        W19307   2.746  20.340  22.167
15240W        W19308   1.713  18.293  22.696
15241W        W19309   1.365  18.711  22.528
15242W        W19310   2.163  19.176  23.091
15243W        W19311   0.964  18.971  22.385
15244W        W19312   2.481  19.113  22.710
15245W        W19313   3.524  21.628  22.012
15246W        W19314   0.178  20.621  22.304
15247W        W19315   1.697  19.572  22.174
15248W        W19316   0.343  20.121  23.193
15249W        W19317   3.305  18.472  22.084
15250W        W19318   3.616  20.445  22.820
15251W        W19319   1.913  18.324  23.223
15252W        W19320   0.972  21.308  23.060
15253W        W19321   0.234  21.240  22.302
15254W        W19322   2.050  20.604  23.020
15255W        W19323   0.402  20.222  22.595
15256W        W19324   0.087  18.584  22.671
15257W        W19325   2.628  19.176  22.170
15258W        W19326   1.218  21.436  22.560
15259W        W19327   2.500  18.339  21.990
15260W        W19328   0.211  19.487  22.698
15261W        W19329   0.902  19.476  22.423
15262W        W19330   2.430  20.392  23.214
15263W        W19331   1.892  18.617  22.285
15264W        W19332   3.573  18.245  23.007
15265W        W19333   1.261  19.880  22.170
15266W        W19334   3.427  19.217  23.160
15267W        W19335   2.119  20.387  22.037
15268W        W19336   2.709  21.288  22.252
15269W        W19337   0.297  20.698  23.213
15270W        W19338   2.706  21.454  23.222
15271W        W19339   2.090  21.497  22.696
15272W        W19340   1.524  20.990  22.711
15273W        W19341   0.745  19.730  21.970
15274W        W19342   0.126  22.628   3.104
15275W        W19343   0.888  21.908   2.906
15276W        W19344   2.582  22.296   1.793
15277W        W19345   2.231  23.167   0.363
15278W        W19346   2.801  22.601   3.454
15279W        W19347   0.167  22.393   2.579
15280W        W19348   1.113  23.076   3.262
15281W        W19349   3.572  22.935   1.761
15282W        W19350   1.313  23.140   2.069
15283W        W19351   0.071  23.124   3.570
15284W        W19352   0.484  22.241   1.167
15285W        W19353   2.887  22.682   2.023
15286W        W19354   3.172  22.635   0.118
15287W        W19355   0.697  22.195   2.471
15288W        W19356   3.320  23.213   2.746
15289W        W19357   1.705  22.797   1.571
15290W        W19358   2.078  22.333   1.003
15291W        W19359   0.106  22.526   1.285
15292W        W19360   2.892  23.133   1.759
15293W        W19361   3.083  23.126   0.008
15294W        W19362   1.292  22.221   2.364
15295W        W19363   3.521  21.983   1.661
15296W        W19364   0.395  22.888   0.308
15297W        W19365   1.846  22.828   0.748
15298W        W19366   2.906  23.079   3.118
15299W        W19367   2.327  23.257   0.893
15300W        W19368   0.547  23.167   2.471
15301W        W19369   0.422  21.960   1.552
15302W        W19370   2.190  22.307   2.113
15303W        W19371   1.838  22.492   3.276
15304W        W19372   2.193  22.641   0.454
15305W        W19373   2.343  22.115   3.247
15306W        W19374   2.792  22.583   2.965
15307W        W19375   2.592  22.521   1.235
15308W        W19376   1.383  22.948   0.611
15309W        W19377   0.952  22.232   3.275
15310W        W19378   3.004  22.716   0.956
15311W        W19379   3.371  23.198   0.901
15312W        W19380   1.040  21.951   0.607
15313W        W19381   3.361  22.485   1.642
15314W        W19382   2.335  22.524   0.019
15315W        W19383   3.508  22.050   2.489
15316W        W19384   2.120  21.872   1.795
15317W        W19385   0.732  22.775   1.858
15318W        W19386   3.339  22.765   2.210
15319W        W19387   3.606  22.165   2.984
15320W        W19388   1.972  22.886   2.023
15321W        W19389   3.111  22.917   0.503
15322W        W19390   0.339  22.652   2.143
15323W        W19391   2.399  22.629   2.606
15324W        W19392   3.303  22.291   1.133
15325W        W19393   0.077  22.931   2.472
15326W        W19394   2.937  22.726   1.490
15327W        W19395   3.348  22.877   3.267
15328W        W19396   0.604  22.347   0.356
15329W        W19397   1.708  22.001   2.166
15330W        W19398   1.594  22.574   1.068
15331W        W19399   2.950  22.171   1.496
15332W        W19400   0.942  22.364   1.020
15333W        W19401   0.947  22.592   0.045
15334W        W19402   1.748  23.201   2.439
15335W        W19403   2.596  22.067   2.309
15336W        W19404   0.988  22.043   0.122
15337W        W19405   1.726  23.124   1.173
15338W        W19406   2.696  22.100   2.872
15339W        W19407   1.989  22.064   3.596
15340W        W19408   1.211  22.680   1.989
15341W        W19409   0.637  22.636   1.387
15342W        W19410   2.097  22.416   1.561
15343W        W19411   3.576  22.694   0.829
15344W        W19412   1.953  22.625   2.430
15345W        W19413   1.039  22.874   0.996
15346W        W19414   1.871  22.784   0.048
15347W        W19415   2.808  22.255   0.843
15348W        W19416   0.138  22.103   0.291
15349W        W19417   1.414  22.161   3.467
15350W        W19418   2.123  22.303   2.823
15351W        W19419   1.318  22.071   1.104
15352W        W19420   2.377  22.148   0.609
15353W        W19421   0.322  22.080   2.186
15354W        W19422   3.059  22.151   1.962
15355W        W19423   0.481  22.649   0.776
15356W        W19424   3.052  22.337   2.392
15357W        W19425   0.740  22.298   1.896
15358W        W19426   1.854  22.870   2.836
15359W        W19427   0.002  22.560   0.314
15360W        W19428   3.174  21.975   2.860
15361W        W19429   3.610  22.296   3.465
15362W        W19430   3.328  23.224   2.086
15363W        W19431   1.491  21.983   0.290
15364W        W19432   0.799  22.675   3.119
15365W        W19433   3.359  22.660   2.779
15366W        W19434   1.059  22.354   2.781
15367W        W19435   0.554  22.726   2.720
15368W        W19436   1.855  21.981   3.084
15369W        W19437   0.910  22.716   2.379
15370W        W19438   0.880  22.064   1.489
15371W        W19439   2.501  22.906   2.181
15372W        W19440   1.110  22.479   1.545
15373W        W19441   3.238  22.447   0.581
15374W        W19442   1.377  21.966   2.984
15375W        W19443   1.229  22.997   1.563
15376W        W19444   1.235  22.866   2.862
15377W        W19445   3.537  23.132   0.419
15378W        W19446   2.272  23.199   2.515
15379W        W19447   2.833  22.093   3.367
15380W        W19448   0.497  22.243   2.954
15381W        W19449   0.836  23.266   2.007
15382W        W19450   1.205  23.080   0.129
15383W        W19451   1.416  22.573   0.222
15384W        W19452   3.212  22.383   3.234
15385W        W19453   3.212  21.980   0.670
15386W        W19454   2.821  22.317   0.289
15387W        W19455   2.886  22.924   2.475
15388W        W19456   1.675  22.455   1.992
15389W        W19457   3.555  22.353   2.064
15390W        W19458   0.518  21.987   3.529
15391W        W19459   1.713  21.938   0.830
15392W        W19460   2.426  22.807   1.689
15393W        W19461   1.365  22.356   0.662
15394W        W19462   2.163  22.821   1.225
15395W        W19463   0.964  22.616   0.519
15396W        W19464   2.481  22.758   0.844
15397W        W19465   1.567  22.282   1.508
15398W        W19466   1.697  23.217   0.308
15399W        W19467   1.633  22.408   2.791
15400W        W19468   3.305  22.117   0.218
15401W        W19469   1.913  21.969   1.357
15402W        W19470   1.471  22.694   2.419
15403W        W19471   1.171  22.063   1.888
15404W        W19472   0.287  22.410   1.728
15405W        W19473   0.087  22.229   0.805
15406W        W19474   2.628  22.821   0.304
15407W        W19475   2.500  21.984   0.124
15408W        W19476   2.497  23.002   3.500
15409W        W19477   0.480  22.532   3.499
15410W        W19478   0.211  23.132   0.832
15411W        W19479   2.482  22.015   1.203
15412W        W19480   1.892  22.262   0.419
15413W        W19481   3.573  21.890   1.141
15414W        W19482   3.427  22.862   1.294
15415W        W19483   1.324  22.608   3.292
15416W        W19484   1.144  23.192   2.533
15417W        W19485   2.336  22.637   3.187
15418W        W19486   0.180  23.108   2.964
15419W        W19487   2.429  23.045   2.951
15420W        W19488   1.639  22.976   3.319
15421W        W19489   0.126  22.628   6.748
15422W        W19490   0.888  21.908   6.550
15423W        W19491   2.582  22.296   5.437
15424W        W19492   2.231  23.167   4.007
15425W        W19493   2.801  22.601   7.098
15426W        W19494   0.167  22.393   6.223
15427W        W19495   1.113  23.076   6.906
15428W        W19496   3.572  22.935   5.405
15429W        W19497   1.313  23.140   5.713
15430W        W19498   0.071  23.124   7.214
15431W        W19499   0.484  22.241   4.811
15432W        W19500   2.887  22.682   5.667
15433W        W19501   3.172  22.635   3.762
15434W        W19502   0.697  22.195   6.115
15435W        W19503   3.320  23.213   6.390
15436W        W19504   1.705  22.797   5.215
15437W        W19505   2.078  22.333   4.647
15438W        W19506   0.106  22.526   4.929
15439W        W19507   2.892  23.133   5.403
15440W        W19508   3.083  23.126   3.652
15441W        W19509   1.292  22.221   6.008
15442W        W19510   3.521  21.983   5.305
15443W        W19511   0.395  22.888   3.952
15444W        W19512   1.846  22.828   4.392
15445W        W19513   2.906  23.079   6.762
15446W        W19514   2.327  23.257   4.537
15447W        W19515   0.547  23.167   6.115
15448W        W19516   0.422  21.960   5.196
15449W        W19517   2.190  22.307   5.757
15450W        W19518   1.838  22.492   6.920
15451W        W19519   2.193  22.641   4.098
15452W        W19520   2.343  22.115   6.891
15453W        W19521   2.792  22.583   6.609
15454W        W19522   2.592  22.521   4.879
15455W        W19523   1.383  22.948   4.255
15456W        W19524   0.952  22.232   6.919
15457W        W19525   3.004  22.716   4.600
15458W        W19526   3.371  23.198   4.545
15459W        W19527   1.040  21.951   4.251
15460W        W19528   3.361  22.485   5.286
15461W        W19529   2.335  22.524   3.663
15462W        W19530   3.508  22.050   6.133
15463W        W19531   2.120  21.872   5.439
15464W        W19532   0.732  22.775   5.502
15465W        W19533   3.339  22.765   5.854
15466W        W19534   3.606  22.165   6.628
15467W        W19535   1.972  22.886   5.667
15468W        W19536   3.111  22.917   4.147
15469W        W19537   0.339  22.652   5.787
15470W        W19538   2.399  22.629   6.250
15471W        W19539   3.303  22.291   4.777
15472W        W19540   0.077  22.931   6.116
15473W        W19541   2.937  22.726   5.134
15474W        W19542   3.348  22.877   6.911
15475W        W19543   0.604  22.347   4.000
15476W        W19544   1.708  22.001   5.810
15477W        W19545   1.594  22.574   4.712
15478W        W19546   2.950  22.171   5.140
15479W        W19547   0.942  22.364   4.664
15480W        W19548   0.947  22.592   3.689
15481W        W19549   1.748  23.201   6.083
15482W        W19550   2.596  22.067   5.953
15483W        W19551   0.988  22.043   3.766
15484W        W19552   1.726  23.124   4.817
15485W        W19553   2.696  22.100   6.516
15486W        W19554   1.989  22.064   7.240
15487W        W19555   1.211  22.680   5.633
15488W        W19556   0.637  22.636   5.031
15489W        W19557   2.097  22.416   5.205
15490W        W19558   3.576  22.694   4.473
15491W        W19559   1.953  22.625   6.074
15492W        W19560   1.039  22.874   4.640
15493W        W19561   1.871  22.784   3.692
15494W        W19562   2.808  22.255   4.487
15495W        W19563   0.138  22.103   3.935
15496W        W19564   1.414  22.161   7.111
15497W        W19565   2.123  22.303   6.467
15498W        W19566   1.318  22.071   4.748
15499W        W19567   2.377  22.148   4.253
15500W        W19568   0.322  22.080   5.830
15501W        W19569   3.059  22.151   5.606
15502W        W19570   0.481  22.649   4.420
15503W        W19571   3.052  22.337   6.036
15504W        W19572   0.740  22.298   5.540
15505W        W19573   1.854  22.870   6.480
15506W        W19574   0.002  22.560   3.958
15507W        W19575   3.174  21.975   6.504
15508W        W19576   3.610  22.296   7.109
15509W        W19577   3.328  23.224   5.730
15510W        W19578   1.491  21.983   3.934
15511W        W19579   0.799  22.675   6.763
15512W        W19580   3.359  22.660   6.423
15513W        W19581   1.059  22.354   6.425
15514W        W19582   0.554  22.726   6.364
15515W        W19583   1.855  21.981   6.728
15516W        W19584   0.910  22.716   6.023
15517W        W19585   0.880  22.064   5.133
15518W        W19586   2.501  22.906   5.825
15519W        W19587   1.110  22.479   5.189
15520W        W19588   3.238  22.447   4.225
15521W        W19589   1.377  21.966   6.628
15522W        W19590   1.229  22.997   5.207
15523W        W19591   1.235  22.866   6.506
15524W        W19592   3.537  23.132   4.063
15525W        W19593   2.272  23.199   6.159
15526W        W19594   2.833  22.093   7.011
15527W        W19595   0.497  22.243   6.598
15528W        W19596   0.836  23.266   5.651
15529W        W19597   1.205  23.080   3.773
15530W        W19598   1.416  22.573   3.866
15531W        W19599   3.212  22.383   6.878
15532W        W19600   3.212  21.980   4.314
15533W        W19601   2.821  22.317   3.933
15534W        W19602   2.886  22.924   6.119
15535W        W19603   1.675  22.455   5.636
15536W        W19604   3.555  22.353   5.708
15537W        W19605   0.518  21.987   7.173
15538W        W19606   1.713  21.938   4.474
15539W        W19607   2.426  22.807   5.333
15540W        W19608   1.365  22.356   4.306
15541W        W19609   2.163  22.821   4.869
15542W        W19610   0.964  22.616   4.163
15543W        W19611   2.481  22.758   4.488
15544W        W19612   1.567  22.282   5.152
15545W        W19613   1.697  23.217   3.952
15546W        W19614   1.633  22.408   6.435
15547W        W19615   3.305  22.117   3.862
15548W        W19616   1.913  21.969   5.001
15549W        W19617   1.471  22.694   6.063
15550W        W19618   1.171  22.063   5.532
15551W        W19619   0.287  22.410   5.372
15552W        W19620   0.087  22.229   4.449
15553W        W19621   2.628  22.821   3.948
15554W        W19622   2.500  21.984   3.768
15555W        W19623   2.497  23.002   7.144
15556W        W19624   0.480  22.532   7.143
15557W        W19625   0.211  23.132   4.476
15558W        W19626   2.482  22.015   4.847
15559W        W19627   1.892  22.262   4.063
15560W        W19628   3.573  21.890   4.785
15561W        W19629   3.427  22.862   4.938
15562W        W19630   1.324  22.608   6.936
15563W        W19631   1.144  23.192   6.177
15564W        W19632   2.336  22.637   6.831
15565W        W19633   0.180  23.108   6.608
15566W        W19634   2.429  23.045   6.595
15567W        W19635   1.639  22.976   6.963
15568W        W19636   0.126  22.628  10.393
15569W        W19637   0.888  21.908  10.195
15570W        W19638   2.582  22.296   9.082
15571W        W19639   2.231  23.167   7.652
15572W        W19640   2.801  22.601  10.743
15573W        W19641   0.167  22.393   9.868
15574W        W19642   1.113  23.076  10.551
15575W        W19643   3.572  22.935   9.050
15576W        W19644   1.313  23.140   9.358
15577W        W19645   0.071  23.124  10.859
15578W        W19646   0.484  22.241   8.456
15579W        W19647   2.887  22.682   9.312
15580W        W19648   3.172  22.635   7.407
15581W        W19649   0.697  22.195   9.760
15582W        W19650   3.320  23.213  10.035
15583W        W19651   1.705  22.797   8.860
15584W        W19652   2.078  22.333   8.292
15585W        W19653   0.106  22.526   8.574
15586W        W19654   2.892  23.133   9.048
15587W        W19655   3.083  23.126   7.297
15588W        W19656   1.292  22.221   9.653
15589W        W19657   3.521  21.983   8.950
15590W        W19658   0.395  22.888   7.597
15591W        W19659   1.846  22.828   8.037
15592W        W19660   2.906  23.079  10.407
15593W        W19661   2.327  23.257   8.182
15594W        W19662   0.547  23.167   9.760
15595W        W19663   0.422  21.960   8.841
15596W        W19664   2.190  22.307   9.402
15597W        W19665   1.838  22.492  10.565
15598W        W19666   2.193  22.641   7.743
15599W        W19667   2.343  22.115  10.536
15600W        W19668   2.792  22.583  10.254
15601W        W19669   2.592  22.521   8.524
15602W        W19670   1.383  22.948   7.900
15603W        W19671   0.952  22.232  10.564
15604W        W19672   3.004  22.716   8.245
15605W        W19673   3.371  23.198   8.190
15606W        W19674   1.040  21.951   7.896
15607W        W19675   3.361  22.485   8.931
15608W        W19676   2.335  22.524   7.308
15609W        W19677   3.508  22.050   9.778
15610W        W19678   2.120  21.872   9.084
15611W        W19679   0.732  22.775   9.147
15612W        W19680   3.339  22.765   9.499
15613W        W19681   3.606  22.165  10.273
15614W        W19682   1.972  22.886   9.312
15615W        W19683   3.111  22.917   7.792
15616W        W19684   0.339  22.652   9.432
15617W        W19685   2.399  22.629   9.895
15618W        W19686   3.303  22.291   8.422
15619W        W19687   0.077  22.931   9.761
15620W        W19688   2.937  22.726   8.779
15621W        W19689   3.348  22.877  10.556
15622W        W19690   0.604  22.347   7.645
15623W        W19691   1.708  22.001   9.455
15624W        W19692   1.594  22.574   8.357
15625W        W19693   2.950  22.171   8.785
15626W        W19694   0.942  22.364   8.309
15627W        W19695   0.947  22.592   7.334
15628W        W19696   1.748  23.201   9.728
15629W        W19697   2.596  22.067   9.598
15630W        W19698   0.988  22.043   7.411
15631W        W19699   1.726  23.124   8.462
15632W        W19700   2.696  22.100  10.161
15633W        W19701   1.989  22.064  10.885
15634W        W19702   1.211  22.680   9.278
15635W        W19703   0.637  22.636   8.676
15636W        W19704   2.097  22.416   8.850
15637W        W19705   3.576  22.694   8.118
15638W        W19706   1.953  22.625   9.719
15639W        W19707   1.039  22.874   8.285
15640W        W19708   1.871  22.784   7.337
15641W        W19709   2.808  22.255   8.132
15642W        W19710   0.138  22.103   7.580
15643W        W19711   1.414  22.161  10.756
15644W        W19712   2.123  22.303  10.112
15645W        W19713   1.318  22.071   8.393
15646W        W19714   2.377  22.148   7.898
15647W        W19715   0.322  22.080   9.475
15648W        W19716   3.059  22.151   9.251
15649W        W19717   0.481  22.649   8.065
15650W        W19718   3.052  22.337   9.681
15651W        W19719   0.740  22.298   9.185
15652W        W19720   1.854  22.870  10.125
15653W        W19721   0.002  22.560   7.603
15654W        W19722   3.174  21.975  10.149
15655W        W19723   3.610  22.296  10.754
15656W        W19724   3.328  23.224   9.375
15657W        W19725   1.491  21.983   7.579
15658W        W19726   0.799  22.675  10.408
15659W        W19727   3.359  22.660  10.068
15660W        W19728   1.059  22.354  10.070
15661W        W19729   0.554  22.726  10.009
15662W        W19730   1.855  21.981  10.373
15663W        W19731   0.910  22.716   9.668
15664W        W19732   0.880  22.064   8.778
15665W        W19733   2.501  22.906   9.470
15666W        W19734   1.110  22.479   8.834
15667W        W19735   3.238  22.447   7.870
15668W        W19736   1.377  21.966  10.273
15669W        W19737   1.229  22.997   8.852
15670W        W19738   1.235  22.866  10.151
15671W        W19739   3.537  23.132   7.708
15672W        W19740   2.272  23.199   9.804
15673W        W19741   2.833  22.093  10.656
15674W        W19742   0.497  22.243  10.243
15675W        W19743   0.836  23.266   9.296
15676W        W19744   1.205  23.080   7.418
15677W        W19745   1.416  22.573   7.511
15678W        W19746   3.212  22.383  10.523
15679W        W19747   3.212  21.980   7.959
15680W        W19748   2.821  22.317   7.578
15681W        W19749   2.886  22.924   9.764
15682W        W19750   1.675  22.455   9.281
15683W        W19751   3.555  22.353   9.353
15684W        W19752   0.518  21.987  10.818
15685W        W19753   1.713  21.938   8.119
15686W        W19754   2.426  22.807   8.978
15687W        W19755   1.365  22.356   7.951
15688W        W19756   2.163  22.821   8.514
15689W        W19757   0.964  22.616   7.808
15690W        W19758   2.481  22.758   8.133
15691W        W19759   1.567  22.282   8.797
15692W        W19760   1.697  23.217   7.597
15693W        W19761   1.633  22.408  10.080
15694W        W19762   3.305  22.117   7.507
15695W        W19763   1.913  21.969   8.646
15696W        W19764   1.471  22.694   9.708
15697W        W19765   1.171  22.063   9.177
15698W        W19766   0.287  22.410   9.017
15699W        W19767   0.087  22.229   8.094
15700W        W19768   2.628  22.821   7.593
15701W        W19769   2.500  21.984   7.413
15702W        W19770   2.497  23.002  10.789
15703W        W19771   0.480  22.532  10.788
15704W        W19772   0.211  23.132   8.121
15705W        W19773   2.482  22.015   8.492
15706W        W19774   1.892  22.262   7.708
15707W        W19775   3.573  21.890   8.430
15708W        W19776   3.427  22.862   8.583
15709W        W19777   1.324  22.608  10.581
15710W        W19778   1.144  23.192   9.822
15711W        W19779   2.336  22.637  10.476
15712W        W19780   0.180  23.108  10.253
15713W        W19781   2.429  23.045  10.240
15714W        W19782   1.639  22.976  10.608
15715W        W19783   0.126  22.628  14.037
15716W        W19784   0.888  21.908  13.839
15717W        W19785   2.582  22.296  12.726
15718W        W19786   2.231  23.167  11.296
15719W        W19787   2.801  22.601  14.387
15720W        W19788   0.167  22.393  13.512
15721W        W19789   1.113  23.076  14.195
15722W        W19790   3.572  22.935  12.694
15723W        W19791   1.313  23.140  13.002
15724W        W19792   0.071  23.124  14.503
15725W        W19793   0.484  22.241  12.100
15726W        W19794   2.887  22.682  12.956
15727W        W19795   3.172  22.635  11.051
15728W        W19796   0.697  22.195  13.404
15729W        W19797   3.320  23.213  13.679
15730W        W19798   1.705  22.797  12.504
15731W        W19799   2.078  22.333  11.936
15732W        W19800   0.106  22.526  12.218
15733W        W19801   2.892  23.133  12.692
15734W        W19802   3.083  23.126  10.941
15735W        W19803   1.292  22.221  13.297
15736W        W19804   3.521  21.983  12.594
15737W        W19805   0.395  22.888  11.241
15738W        W19806   1.846  22.828  11.681
15739W        W19807   2.906  23.079  14.051
15740W        W19808   2.327  23.257  11.826
15741W        W19809   0.547  23.167  13.404
15742W        W19810   0.422  21.960  12.485
15743W        W19811   2.190  22.307  13.046
15744W        W19812   1.838  22.492  14.209
15745W        W19813   2.193  22.641  11.387
15746W        W19814   2.343  22.115  14.180
15747W        W19815   2.792  22.583  13.898
15748W        W19816   2.592  22.521  12.168
15749W        W19817   1.383  22.948  11.544
15750W        W19818   0.952  22.232  14.208
15751W        W19819   3.004  22.716  11.889
15752W        W19820   3.371  23.198  11.834
15753W        W19821   1.040  21.951  11.540
15754W        W19822   3.361  22.485  12.575
15755W        W19823   2.335  22.524  10.952
15756W        W19824   3.508  22.050  13.422
15757W        W19825   2.120  21.872  12.728
15758W        W19826   0.732  22.775  12.791
15759W        W19827   3.339  22.765  13.143
15760W        W19828   3.606  22.165  13.917
15761W        W19829   1.972  22.886  12.956
15762W        W19830   3.111  22.917  11.436
15763W        W19831   0.339  22.652  13.076
15764W        W19832   2.399  22.629  13.539
15765W        W19833   3.303  22.291  12.066
15766W        W19834   0.077  22.931  13.405
15767W        W19835   2.937  22.726  12.423
15768W        W19836   3.348  22.877  14.200
15769W        W19837   0.604  22.347  11.289
15770W        W19838   1.708  22.001  13.099
15771W        W19839   1.594  22.574  12.001
15772W        W19840   2.950  22.171  12.429
15773W        W19841   0.942  22.364  11.953
15774W        W19842   0.947  22.592  10.978
15775W        W19843   1.748  23.201  13.372
15776W        W19844   2.596  22.067  13.242
15777W        W19845   0.988  22.043  11.055
15778W        W19846   1.726  23.124  12.106
15779W        W19847   2.696  22.100  13.805
15780W        W19848   1.989  22.064  14.529
15781W        W19849   1.211  22.680  12.922
15782W        W19850   0.637  22.636  12.320
15783W        W19851   2.097  22.416  12.494
15784W        W19852   3.576  22.694  11.762
15785W        W19853   1.953  22.625  13.363
15786W        W19854   1.039  22.874  11.929
15787W        W19855   1.871  22.784  10.981
15788W        W19856   2.808  22.255  11.776
15789W        W19857   0.138  22.103  11.224
15790W        W19858   1.414  22.161  14.400
15791W        W19859   2.123  22.303  13.756
15792W        W19860   1.318  22.071  12.037
15793W        W19861   2.377  22.148  11.542
15794W        W19862   0.322  22.080  13.119
15795W        W19863   3.059  22.151  12.895
15796W        W19864   0.481  22.649  11.709
15797W        W19865   3.052  22.337  13.325
15798W        W19866   0.740  22.298  12.829
15799W        W19867   1.854  22.870  13.769
15800W        W19868   0.002  22.560  11.247
15801W        W19869   3.174  21.975  13.793
15802W        W19870   3.610  22.296  14.398
15803W        W19871   3.328  23.224  13.019
15804W        W19872   1.491  21.983  11.223
15805W        W19873   0.799  22.675  14.052
15806W        W19874   3.359  22.660  13.712
15807W        W19875   1.059  22.354  13.714
15808W        W19876   0.554  22.726  13.653
15809W        W19877   1.855  21.981  14.017
15810W        W19878   0.910  22.716  13.312
15811W        W19879   0.880  22.064  12.422
15812W        W19880   2.501  22.906  13.114
15813W        W19881   1.110  22.479  12.478
15814W        W19882   3.238  22.447  11.514
15815W        W19883   1.377  21.966  13.917
15816W        W19884   1.229  22.997  12.496
15817W        W19885   1.235  22.866  13.795
15818W        W19886   3.537  23.132  11.352
15819W        W19887   2.272  23.199  13.448
15820W        W19888   2.833  22.093  14.300
15821W        W19889   0.497  22.243  13.887
15822W        W19890   0.836  23.266  12.940
15823W        W19891   1.205  23.080  11.062
15824W        W19892   1.416  22.573  11.155
15825W        W19893   3.212  22.383  14.167
15826W        W19894   3.212  21.980  11.603
15827W        W19895   2.821  22.317  11.222
15828W        W19896   2.886  22.924  13.408
15829W        W19897   1.675  22.455  12.925
15830W        W19898   3.555  22.353  12.997
15831W        W19899   0.518  21.987  14.462
15832W        W19900   1.713  21.938  11.763
15833W        W19901   2.426  22.807  12.622
15834W        W19902   1.365  22.356  11.595
15835W        W19903   2.163  22.821  12.158
15836W        W19904   0.964  22.616  11.452
15837W        W19905   2.481  22.758  11.777
15838W        W19906   1.567  22.282  12.441
15839W        W19907   1.697  23.217  11.241
15840W        W19908   1.633  22.408  13.724
15841W        W19909   3.305  22.117  11.151
15842W        W19910   1.913  21.969  12.290
15843W        W19911   1.471  22.694  13.352
15844W        W19912   1.171  22.063  12.821
15845W        W19913   0.287  22.410  12.661
15846W        W19914   0.087  22.229  11.738
15847W        W19915   2.628  22.821  11.237
15848W        W19916   2.500  21.984  11.057
15849W        W19917   2.497  23.002  14.433
15850W        W19918   0.480  22.532  14.432
15851W        W19919   0.211  23.132  11.765
15852W        W19920   2.482  22.015  12.136
15853W        W19921   1.892  22.262  11.352
15854W        W19922   3.573  21.890  12.074
15855W        W19923   3.427  22.862  12.227
15856W        W19924   1.324  22.608  14.225
15857W        W19925   1.144  23.192  13.466
15858W        W19926   2.336  22.637  14.120
15859W        W19927   0.180  23.108  13.897
15860W        W19928   2.429  23.045  13.884
15861W        W19929   1.639  22.976  14.252
15862W        W19930   0.126  22.628  17.681
15863W        W19931   0.888  21.908  17.483
15864W        W19932   2.582  22.296  16.370
15865W        W19933   2.231  23.167  14.940
15866W        W19934   2.801  22.601  18.031
15867W        W19935   0.167  22.393  17.156
15868W        W19936   1.113  23.076  17.839
15869W        W19937   3.572  22.935  16.338
15870W        W19938   1.313  23.140  16.646
15871W        W19939   0.071  23.124  18.147
15872W        W19940   0.484  22.241  15.744
15873W        W19941   2.887  22.682  16.600
15874W        W19942   3.172  22.635  14.695
15875W        W19943   0.697  22.195  17.048
15876W        W19944   3.320  23.213  17.323
15877W        W19945   1.705  22.797  16.148
15878W        W19946   2.078  22.333  15.580
15879W        W19947   0.106  22.526  15.862
15880W        W19948   2.892  23.133  16.336
15881W        W19949   3.083  23.126  14.585
15882W        W19950   1.292  22.221  16.941
15883W        W19951   3.521  21.983  16.238
15884W        W19952   0.395  22.888  14.885
15885W        W19953   1.846  22.828  15.325
15886W        W19954   2.906  23.079  17.695
15887W        W19955   2.327  23.257  15.470
15888W        W19956   0.547  23.167  17.048
15889W        W19957   0.422  21.960  16.129
15890W        W19958   2.190  22.307  16.690
15891W        W19959   1.838  22.492  17.853
15892W        W19960   2.193  22.641  15.031
15893W        W19961   2.343  22.115  17.824
15894W        W19962   2.792  22.583  17.542
15895W        W19963   2.592  22.521  15.812
15896W        W19964   1.383  22.948  15.188
15897W        W19965   0.952  22.232  17.852
15898W        W19966   3.004  22.716  15.533
15899W        W19967   3.371  23.198  15.478
15900W        W19968   1.040  21.951  15.184
15901W        W19969   3.361  22.485  16.219
15902W        W19970   2.335  22.524  14.596
15903W        W19971   3.508  22.050  17.066
15904W        W19972   2.120  21.872  16.372
15905W        W19973   0.732  22.775  16.435
15906W        W19974   3.339  22.765  16.787
15907W        W19975   3.606  22.165  17.561
15908W        W19976   1.972  22.886  16.600
15909W        W19977   3.111  22.917  15.080
15910W        W19978   0.339  22.652  16.720
15911W        W19979   2.399  22.629  17.183
15912W        W19980   3.303  22.291  15.710
15913W        W19981   0.077  22.931  17.049
15914W        W19982   2.937  22.726  16.067
15915W        W19983   3.348  22.877  17.844
15916W        W19984   0.604  22.347  14.933
15917W        W19985   1.708  22.001  16.743
15918W        W19986   1.594  22.574  15.645
15919W        W19987   2.950  22.171  16.073
15920W        W19988   0.942  22.364  15.597
15921W        W19989   0.947  22.592  14.622
15922W        W19990   1.748  23.201  17.016
15923W        W19991   2.596  22.067  16.886
15924W        W19992   0.988  22.043  14.699
15925W        W19993   1.726  23.124  15.750
15926W        W19994   2.696  22.100  17.449
15927W        W19995   1.989  22.064  18.173
15928W        W19996   1.211  22.680  16.566
15929W        W19997   0.637  22.636  15.964
15930W        W19998   2.097  22.416  16.138
15931W        W19999   3.576  22.694  15.406
15932W        W20000   1.953  22.625  17.007
15933W        W20001   1.039  22.874  15.573
15934W        W20002   1.871  22.784  14.625
15935W        W20003   2.808  22.255  15.420
15936W        W20004   0.138  22.103  14.868
15937W        W20005   1.414  22.161  18.044
15938W        W20006   2.123  22.303  17.400
15939W        W20007   1.318  22.071  15.681
15940W        W20008   2.377  22.148  15.186
15941W        W20009   0.322  22.080  16.763
15942W        W20010   3.059  22.151  16.539
15943W        W20011   0.481  22.649  15.353
15944W        W20012   3.052  22.337  16.969
15945W        W20013   0.740  22.298  16.473
15946W        W20014   1.854  22.870  17.413
15947W        W20015   0.002  22.560  14.891
15948W        W20016   3.174  21.975  17.437
15949W        W20017   3.610  22.296  18.042
15950W        W20018   3.328  23.224  16.663
15951W        W20019   1.491  21.983  14.867
15952W        W20020   0.799  22.675  17.696
15953W        W20021   3.359  22.660  17.356
15954W        W20022   1.059  22.354  17.358
15955W        W20023   0.554  22.726  17.297
15956W        W20024   1.855  21.981  17.661
15957W        W20025   0.910  22.716  16.956
15958W        W20026   0.880  22.064  16.066
15959W        W20027   2.501  22.906  16.758
15960W        W20028   1.110  22.479  16.122
15961W        W20029   3.238  22.447  15.158
15962W        W20030   1.377  21.966  17.561
15963W        W20031   1.229  22.997  16.140
15964W        W20032   1.235  22.866  17.439
15965W        W20033   3.537  23.132  14.996
15966W        W20034   2.272  23.199  17.092
15967W        W20035   2.833  22.093  17.944
15968W        W20036   0.497  22.243  17.531
15969W        W20037   0.836  23.266  16.584
15970W        W20038   1.205  23.080  14.706
15971W        W20039   1.416  22.573  14.799
15972W        W20040   3.212  22.383  17.811
15973W        W20041   3.212  21.980  15.247
15974W        W20042   2.821  22.317  14.866
15975W        W20043   2.886  22.924  17.052
15976W        W20044   1.675  22.455  16.569
15977W        W20045   3.555  22.353  16.641
15978W        W20046   0.518  21.987  18.106
15979W        W20047   1.713  21.938  15.407
15980W        W20048   2.426  22.807  16.266
15981W        W20049   1.365  22.356  15.239
15982W        W20050   2.163  22.821  15.802
15983W        W20051   0.964  22.616  15.096
15984W        W20052   2.481  22.758  15.421
15985W        W20053   1.567  22.282  16.085
15986W        W20054   1.697  23.217  14.885
15987W        W20055   1.633  22.408  17.368
15988W        W20056   3.305  22.117  14.795
15989W        W20057   1.913  21.969  15.934
15990W        W20058   1.471  22.694  16.996
15991W        W20059   1.171  22.063  16.465
15992W        W20060   0.287  22.410  16.305
15993W        W20061   0.087  22.229  15.382
15994W        W20062   2.628  22.821  14.881
15995W        W20063   2.500  21.984  14.701
15996W        W20064   2.497  23.002  18.077
15997W        W20065   0.480  22.532  18.076
15998W        W20066   0.211  23.132  15.409
15999W        W20067   2.482  22.015  15.780
16000W        W20068   1.892  22.262  14.996
16001W        W20069   3.573  21.890  15.718
16002W        W20070   3.427  22.862  15.871
16003W        W20071   1.324  22.608  17.869
16004W        W20072   1.144  23.192  17.110
16005W        W20073   2.336  22.637  17.764
16006W        W20074   0.180  23.108  17.541
16007W        W20075   2.429  23.045  17.528
16008W        W20076   1.639  22.976  17.896
16009W        W20077   0.126  22.628  21.325
16010W        W20078   0.888  21.908  21.127
16011W        W20079   2.582  22.296  20.014
16012W        W20080   2.231  23.167  18.584
16013W        W20081   2.801  22.601  21.675
16014W        W20082   0.167  22.393  20.800
16015W        W20083   1.113  23.076  21.483
16016W        W20084   3.572  22.935  19.982
16017W        W20085   1.313  23.140  20.290
16018W        W20086   0.071  23.124  21.791
16019W        W20087   0.484  22.241  19.388
16020W        W20088   2.887  22.682  20.244
16021W        W20089   3.172  22.635  18.339
16022W        W20090   0.697  22.195  20.692
16023W        W20091   3.320  23.213  20.967
16024W        W20092   1.705  22.797  19.792
16025W        W20093   2.078  22.333  19.224
16026W        W20094   0.106  22.526  19.506
16027W        W20095   2.892  23.133  19.980
16028W        W20096   3.083  23.126  18.229
16029W        W20097   1.292  22.221  20.585
16030W        W20098   3.521  21.983  19.882
16031W        W20099   0.395  22.888  18.529
16032W        W20100   1.846  22.828  18.969
16033W        W20101   2.906  23.079  21.339
16034W        W20102   2.327  23.257  19.114
16035W        W20103   0.547  23.167  20.692
16036W        W20104   0.422  21.960  19.773
16037W        W20105   2.190  22.307  20.334
16038W        W20106   1.838  22.492  21.497
16039W        W20107   2.193  22.641  18.675
16040W        W20108   2.343  22.115  21.468
16041W        W20109   2.792  22.583  21.186
16042W        W20110   2.592  22.521  19.456
16043W        W20111   1.383  22.948  18.832
16044W        W20112   0.952  22.232  21.496
16045W        W20113   3.004  22.716  19.177
16046W        W20114   3.371  23.198  19.122
16047W        W20115   1.040  21.951  18.828
16048W        W20116   3.361  22.485  19.863
16049W        W20117   2.335  22.524  18.240
16050W        W20118   3.508  22.050  20.710
16051W        W20119   2.120  21.872  20.016
16052W        W20120   0.732  22.775  20.079
16053W        W20121   3.339  22.765  20.431
16054W        W20122   3.606  22.165  21.205
16055W        W20123   1.972  22.886  20.244
16056W        W20124   3.111  22.917  18.724
16057W        W20125   0.339  22.652  20.364
16058W        W20126   2.399  22.629  20.827
16059W        W20127   3.303  22.291  19.354
16060W        W20128   0.077  22.931  20.693
16061W        W20129   2.937  22.726  19.711
16062W        W20130   3.348  22.877  21.488
16063W        W20131   0.604  22.347  18.577
16064W        W20132   1.708  22.001  20.387
16065W        W20133   1.594  22.574  19.289
16066W        W20134   2.950  22.171  19.717
16067W        W20135   0.942  22.364  19.241
16068W        W20136   0.947  22.592  18.266
16069W        W20137   1.748  23.201  20.660
16070W        W20138   2.596  22.067  20.530
16071W        W20139   0.988  22.043  18.343
16072W        W20140   1.726  23.124  19.394
16073W        W20141   2.696  22.100  21.093
16074W        W20142   1.989  22.064  21.817
16075W        W20143   1.211  22.680  20.210
16076W        W20144   0.637  22.636  19.608
16077W        W20145   2.097  22.416  19.782
16078W        W20146   3.576  22.694  19.050
16079W        W20147   1.953  22.625  20.651
16080W        W20148   1.039  22.874  19.217
16081W        W20149   1.871  22.784  18.269
16082W        W20150   2.808  22.255  19.064
16083W        W20151   0.138  22.103  18.512
16084W        W20152   1.414  22.161  21.688
16085W        W20153   2.123  22.303  21.044
16086W        W20154   1.318  22.071  19.325
16087W        W20155   2.377  22.148  18.830
16088W        W20156   0.322  22.080  20.407
16089W        W20157   3.059  22.151  20.183
16090W        W20158   0.481  22.649  18.997
16091W        W20159   3.052  22.337  20.613
16092W        W20160   0.740  22.298  20.117
16093W        W20161   1.854  22.870  21.057
16094W        W20162   0.002  22.560  18.535
16095W        W20163   3.174  21.975  21.081
16096W        W20164   3.610  22.296  21.686
16097W        W20165   3.328  23.224  20.307
16098W        W20166   1.491  21.983  18.511
16099W        W20167   0.799  22.675  21.340
16100W        W20168   3.359  22.660  21.000
16101W        W20169   1.059  22.354  21.002
16102W        W20170   0.554  22.726  20.941
16103W        W20171   1.855  21.981  21.305
16104W        W20172   0.910  22.716  20.600
16105W        W20173   0.880  22.064  19.710
16106W        W20174   2.501  22.906  20.402
16107W        W20175   1.110  22.479  19.766
16108W        W20176   3.238  22.447  18.802
16109W        W20177   1.377  21.966  21.205
16110W        W20178   1.229  22.997  19.784
16111W        W20179   1.235  22.866  21.083
16112W        W20180   3.537  23.132  18.640
16113W        W20181   2.272  23.199  20.736
16114W        W20182   2.833  22.093  21.588
16115W        W20183   0.497  22.243  21.175
16116W        W20184   0.836  23.266  20.228
16117W        W20185   1.205  23.080  18.350
16118W        W20186   1.416  22.573  18.443
16119W        W20187   3.212  22.383  21.455
16120W        W20188   3.212  21.980  18.891
16121W        W20189   2.821  22.317  18.510
16122W        W20190   2.886  22.924  20.696
16123W        W20191   1.675  22.455  20.213
16124W        W20192   3.555  22.353  20.285
16125W        W20193   0.518  21.987  21.750
16126W        W20194   1.713  21.938  19.051
16127W        W20195   2.426  22.807  19.910
16128W        W20196   1.365  22.356  18.883
16129W        W20197   2.163  22.821  19.446
16130W        W20198   0.964  22.616  18.740
16131W        W20199   2.481  22.758  19.065
16132W        W20200   1.567  22.282  19.729
16133W        W20201   1.697  23.217  18.529
16134W        W20202   1.633  22.408  21.012
16135W        W20203   3.305  22.117  18.439
16136W        W20204   1.913  21.969  19.578
16137W        W20205   1.471  22.694  20.640
16138W        W20206   1.171  22.063  20.109
16139W        W20207   0.287  22.410  19.949
16140W        W20208   0.087  22.229  19.026
16141W        W20209   2.628  22.821  18.525
16142W        W20210   2.500  21.984  18.345
16143W        W20211   2.497  23.002  21.721
16144W        W20212   0.480  22.532  21.720
16145W        W20213   0.211  23.132  19.053
16146W        W20214   2.482  22.015  19.424
16147W        W20215   1.892  22.262  18.640
16148W        W20216   3.573  21.890  19.362
16149W        W20217   3.427  22.862  19.515
16150W        W20218   1.324  22.608  21.513
16151W        W20219   1.144  23.192  20.754
16152W        W20220   2.336  22.637  21.408
16153W        W20221   0.180  23.108  21.185
16154W        W20222   2.429  23.045  21.172
16155W        W20223   1.639  22.976  21.540
16156W        W20224   2.231  23.167  22.229
16157W        W20225   0.484  22.241  23.033
16158W        W20226   3.172  22.635  21.984
16159W        W20227   2.078  22.333  22.869
16160W        W20228   3.083  23.126  21.874
16161W        W20229   0.395  22.888  22.174
16162W        W20230   1.846  22.828  22.614
16163W        W20231   2.327  23.257  22.759
16164W        W20232   2.193  22.641  22.320
16165W        W20233   2.592  22.521  23.101
16166W        W20234   1.383  22.948  22.477
16167W        W20235   3.004  22.716  22.822
16168W        W20236   3.371  23.198  22.767
16169W        W20237   1.040  21.951  22.473
16170W        W20238   2.335  22.524  21.885
16171W        W20239   3.111  22.917  22.369
16172W        W20240   3.303  22.291  22.999
16173W        W20241   0.604  22.347  22.222
16174W        W20242   1.594  22.574  22.934
16175W        W20243   0.942  22.364  22.886
16176W        W20244   0.947  22.592  21.911
16177W        W20245   0.988  22.043  21.988
16178W        W20246   1.726  23.124  23.039
16179W        W20247   0.637  22.636  23.253
16180W        W20248   3.576  22.694  22.695
16181W        W20249   1.039  22.874  22.862
16182W        W20250   1.871  22.784  21.914
16183W        W20251   2.808  22.255  22.709
16184W        W20252   0.138  22.103  22.157
16185W        W20253   1.318  22.071  22.970
16186W        W20254   2.377  22.148  22.475
16187W        W20255   0.481  22.649  22.642
16188W        W20256   0.002  22.560  22.180
16189W        W20257   1.491  21.983  22.156
16190W        W20258   3.238  22.447  22.447
16191W        W20259   3.537  23.132  22.285
16192W        W20260   1.205  23.080  21.995
16193W        W20261   1.416  22.573  22.088
16194W        W20262   3.212  21.980  22.536
16195W        W20263   2.821  22.317  22.155
16196W        W20264   1.713  21.938  22.696
16197W        W20265   1.365  22.356  22.528
16198W        W20266   2.163  22.821  23.091
16199W        W20267   0.964  22.616  22.385
16200W        W20268   2.481  22.758  22.710
16201W        W20269   1.697  23.217  22.174
16202W        W20270   3.305  22.117  22.084
16203W        W20271   1.913  21.969  23.223
16204W        W20272   0.087  22.229  22.671
16205W        W20273   2.628  22.821  22.170
16206W        W20274   2.500  21.984  21.990
16207W        W20275   0.211  23.132  22.698
16208W        W20276   1.892  22.262  22.285
16209W        W20277   3.573  21.890  23.007
16210W        W20278   3.427  22.862  23.160
16211W        W20279   3.728   3.595   3.359
16212W        W20280   4.104   2.488   2.882
16213W        W20281   6.809   2.218   0.652
16214W        W20282   6.939   3.303   2.679
16215W        W20283   4.857   3.294   0.205
16216W        W20284   4.940   1.446   1.188
16217W        W20285   4.455   1.294   1.352
16218W        W20286   5.446   2.109   0.786
16219W        W20287   5.121   3.201   3.141
16220W        W20288   3.770   0.762   3.104
16221W        W20289   4.532   0.042   2.906
16222W        W20290   6.226   0.430   1.793
16223W        W20291   5.875   1.301   0.363
16224W        W20292   6.445   0.735   3.454
16225W        W20293   3.811   0.527   2.579
16226W        W20294   3.910   3.146   3.600
16227W        W20295   5.432   2.536   0.332
16228W        W20296   3.864   1.319   2.025
16229W        W20297   4.757   1.210   3.262
16230W        W20298   7.216   1.069   1.761
16231W        W20299   6.980   2.112   2.620
16232W        W20300   5.288   1.445   1.647
16233W        W20301   5.834   2.784   2.016
16234W        W20302   4.334   2.218   2.248
16235W        W20303   3.693   1.746   1.819
16236W        W20304   4.729   1.718   3.011
16237W        W20305   7.000   1.501   3.265
16238W        W20306   4.616   2.945   1.710
16239W        W20307   5.737   2.634   2.844
16240W        W20308   4.957   1.274   2.069
16241W        W20309   5.249   2.058   1.712
16242W        W20310   6.246   2.831   3.560
16243W        W20311   5.325   2.151   3.570
16244W        W20312   5.306   1.867   3.048
16245W        W20313   3.715   1.258   3.570
16246W        W20314   6.547   2.793   3.169
16247W        W20315   4.128   0.375   1.167
16248W        W20316   4.655   2.633   2.166
16249W        W20317   7.118   2.416   1.456
16250W        W20318   6.531   0.816   2.023
16251W        W20319   6.816   0.769   0.118
16252W        W20320   7.281   1.570   2.424
16253W        W20321   5.248   3.277   2.177
16254W        W20322   7.022   2.743   0.615
16255W        W20323   4.151   3.529   0.369
16256W        W20324   4.544   3.575   1.045
16257W        W20325   4.341   0.329   2.471
16258W        W20326   6.964   1.347   2.746
16259W        W20327   6.369   1.769   1.205
16260W        W20328   6.335   1.457   0.232
16261W        W20329   5.543   2.601   2.372
16262W        W20330   5.349   0.931   1.571
16263W        W20331   5.949   3.018   2.565
16264W        W20332   6.820   1.809   0.987
16265W        W20333   5.722   0.467   1.003
16266W        W20334   4.379   3.161   0.686
16267W        W20335   3.750   0.660   1.285
16268W        W20336   6.536   1.267   1.759
16269W        W20337   3.994   2.884   1.674
16270W        W20338   5.335   3.234   0.544
16271W        W20339   6.727   1.260   0.008
16272W        W20340   3.750   3.018   2.172
16273W        W20341   4.541   2.590   2.652
16274W        W20342   4.914   1.950   1.271
16275W        W20343   4.936   0.355   2.364
16276W        W20344   7.165   0.117   1.661
16277W        W20345   4.384   1.989   0.129
16278W        W20346   4.039   1.022   0.308
16279W        W20347   4.101   2.978   1.102
16280W        W20348   5.232   2.461   1.350
16281W        W20349   6.564   3.320   3.064
16282W        W20350   5.490   0.962   0.748
16283W        W20351   6.873   3.360   1.520
16284W        W20352   6.550   1.213   3.118
16285W        W20353   7.263   2.869   1.252
16286W        W20354   5.890   2.161   2.736
16287W        W20355   3.656   1.712   0.942
16288W        W20356   4.767   2.127   2.515
16289W        W20357   5.971   1.391   0.893
16290W        W20358   5.848   1.881   0.997
16291W        W20359   4.191   1.301   2.471
16292W        W20360   4.176   1.177   3.393
16293W        W20361   4.066   0.094   1.552
16294W        W20362   5.834   0.441   2.113
16295W        W20363   5.482   0.626   3.276
16296W        W20364   5.837   0.775   0.454
16297W        W20365   7.020   3.168   3.208
16298W        W20366   5.987   0.249   3.247
16299W        W20367   7.006   2.550   3.369
16300W        W20368   6.436   0.717   2.965
16301W        W20369   6.236   0.655   1.235
16302W        W20370   6.629   1.789   3.639
16303W        W20371   4.369   3.365   1.625
16304W        W20372   5.027   1.082   0.611
16305W        W20373   4.596   0.366   3.275
16306W        W20374   6.648   0.850   0.956
16307W        W20375   7.015   1.332   0.901
16308W        W20376   4.758   3.549   3.372
16309W        W20377   4.684   0.085   0.607
16310W        W20378   7.005   0.619   1.642
16311W        W20379   7.155   2.868   0.087
16312W        W20380   4.062   2.071   1.789
16313W        W20381   5.979   0.658   0.019
16314W        W20382   7.113   2.990   1.739
16315W        W20383   7.152   0.184   2.489
16316W        W20384   5.597   1.396   3.043
16317W        W20385   5.690   2.735   0.746
16318W        W20386   6.090   2.029   3.486
16319W        W20387   5.764   0.006   1.795
16320W        W20388   4.376   0.909   1.858
16321W        W20389   3.930   2.109   2.632
16322W        W20390   5.789   3.302   1.338
16323W        W20391   6.983   0.899   2.210
16324W        W20392   5.620   3.246   2.977
16325W        W20393   6.963   2.305   0.182
16326W        W20394   5.398   1.788   1.243
16327W        W20395   7.250   0.299   2.984
16328W        W20396   5.399   2.134   2.578
16329W        W20397   5.616   1.020   2.023
16330W        W20398   6.468   1.318   0.861
16331W        W20399   6.755   1.051   0.503
16332W        W20400   6.564   3.091   0.892
16333W        W20401   6.398   2.694   1.688
16334W        W20402   6.294   1.773   0.666
16335W        W20403   5.727   1.983   1.652
16336W        W20404   6.608   1.771   1.719
16337W        W20405   3.983   0.786   2.143
16338W        W20406   6.761   1.838   2.970
16339W        W20407   7.112   3.456   2.116
16340W        W20408   5.042   2.900   1.518
16341W        W20409   6.049   3.433   2.842
16342W        W20410   6.043   0.763   2.606
16343W        W20411   5.250   3.471   2.667
16344W        W20412   6.947   0.425   1.133
16345W        W20413   6.738   1.744   2.434
16346W        W20414   3.721   1.065   2.472
16347W        W20415   6.581   0.860   1.490
16348W        W20416   6.992   1.011   3.267
16349W        W20417   5.877   2.710   1.485
16350W        W20418   5.133   3.301   1.098
16351W        W20419   4.248   0.481   0.356
16352W        W20420   5.352   0.135   2.166
16353W        W20421   4.380   3.255   0.014
16354W        W20422   4.754   1.721   0.765
16355W        W20423   5.408   2.350   3.078
16356W        W20424   5.238   0.708   1.068
16357W        W20425   6.594   0.305   1.496
16358W        W20426   6.314   3.587   1.824
16359W        W20427   5.726   3.235   2.164
16360W        W20428   5.122   2.272   2.125
16361W        W20429   6.892   2.995   2.251
16362W        W20430   4.586   0.498   1.020
16363W        W20431   5.108   2.795   1.980
16364W        W20432   4.591   0.726   0.045
16365W        W20433   5.392   1.335   2.439
16366W        W20434   6.240   0.201   2.309
16367W        W20435   3.660   2.044   2.194
16368W        W20436   5.364   1.862   0.352
16369W        W20437   4.632   0.177   0.122
16370W        W20438   5.370   1.258   1.173
16371W        W20439   6.340   0.234   2.872
16372W        W20440   4.928   2.246   2.981
16373W        W20441   5.732   2.028   3.198
16374W        W20442   6.349   2.058   3.091
16375W        W20443   5.633   0.198   3.596
16376W        W20444   4.855   0.814   1.989
16377W        W20445   4.281   0.770   1.387
16378W        W20446   4.067   3.482   1.063
16379W        W20447   5.399   2.812   3.188
16380W        W20448   4.434   2.297   0.547
16381W        W20449   6.114   1.682   1.768
16382W        W20450   6.394   1.481   2.167
16383W        W20451   5.599   2.155   2.101
16384W        W20452   6.069   2.529   0.233
16385W        W20453   5.741   0.550   1.561
16386W        W20454   7.220   0.828   0.829
16387W        W20455   3.714   3.417   2.860
16388W        W20456   4.131   2.643   2.392
16389W        W20457   3.698   3.489   0.624
16390W        W20458   5.597   0.759   2.430
16391W        W20459   4.960   2.782   0.279
16392W        W20460   6.865   3.164   0.465
16393W        W20461   5.840   1.817   0.479
16394W        W20462   4.683   1.008   0.996
16395W        W20463   5.515   0.918   0.048
16396W        W20464   6.099   2.483   3.226
16397W        W20465   6.452   0.389   0.843
16398W        W20466   3.782   0.237   0.291
16399W        W20467   5.068   2.556   2.581
16400W        W20468   4.867   2.472   1.673
16401W        W20469   4.609   2.424   0.071
16402W        W20470   3.850   2.665   0.839
16403W        W20471   4.354   1.735   3.281
16404W        W20472   5.058   0.295   3.467
16405W        W20473   5.767   0.437   2.823
16406W        W20474   4.962   0.205   1.104
16407W        W20475   6.021   0.282   0.609
16408W        W20476   3.966   0.214   2.186
16409W        W20477   4.014   1.177   1.556
16410W        W20478   6.703   0.285   1.962
16411W        W20479   4.125   0.783   0.776
16412W        W20480   6.696   0.471   2.392
16413W        W20481   7.092   1.674   0.077
16414W        W20482   4.384   0.432   1.896
16415W        W20483   5.498   1.004   2.836
16416W        W20484   3.646   0.694   0.314
16417W        W20485   4.432   2.083   2.875
16418W        W20486   5.790   1.481   2.054
16419W        W20487   5.657   3.560   0.350
16420W        W20488   3.803   2.067   0.047
16421W        W20489   4.538   2.478   3.173
16422W        W20490   4.059   1.645   2.804
16423W        W20491   5.050   1.750   2.598
16424W        W20492   6.818   0.109   2.860
16425W        W20493   7.216   1.719   2.851
16426W        W20494   7.204   1.919   0.537
16427W        W20495   6.067   2.251   0.636
16428W        W20496   6.541   3.551   0.331
16429W        W20497   5.718   1.541   3.473
16430W        W20498   4.048   2.508   3.513
16431W        W20499   7.254   0.430   3.465
16432W        W20500   6.972   1.358   2.086
16433W        W20501   5.280   3.488   3.563
16434W        W20502   5.135   0.117   0.290
16435W        W20503   6.674   2.716   0.233
16436W        W20504   4.443   0.809   3.119
16437W        W20505   4.877   2.803   2.981
16438W        W20506   7.003   0.794   2.779
16439W        W20507   6.214   3.453   0.747
16440W        W20508   6.453   2.072   2.114
16441W        W20509   4.703   0.488   2.781
16442W        W20510   5.172   1.557   3.538
16443W        W20511   4.675   2.736   0.732
16444W        W20512   6.430   2.234   0.996
16445W        W20513   4.198   0.860   2.720
16446W        W20514   5.527   2.922   1.184
16447W        W20515   7.277   1.482   1.365
16448W        W20516   5.499   0.115   3.084
16449W        W20517   6.279   2.820   2.163
16450W        W20518   6.582   3.164   1.871
16451W        W20519   5.801   2.966   0.299
16452W        W20520   3.811   2.858   3.141
16453W        W20521   4.554   0.850   2.379
16454W        W20522   4.524   0.198   1.489
16455W        W20523   6.145   1.040   2.181
16456W        W20524   4.943   2.211   0.381
16457W        W20525   6.941   2.153   1.880
16458W        W20526   4.268   2.911   3.303
16459W        W20527   6.655   3.593   1.100
16460W        W20528   4.754   0.613   1.545
16461W        W20529   4.523   2.106   1.635
16462W        W20530   4.836   3.517   2.385
16463W        W20531   6.903   3.613   3.417
16464W        W20532   6.062   1.801   2.350
16465W        W20533   3.911   1.599   0.265
16466W        W20534   7.045   3.257   0.962
16467W        W20535   6.882   0.581   0.581
16468W        W20536   5.021   0.100   2.984
16469W        W20537   6.727   2.902   1.442
16470W        W20538   6.756   1.458   1.347
16471W        W20539   4.873   1.131   1.563
16472W        W20540   5.118   1.393   2.887
16473W        W20541   6.229   2.546   2.750
16474W        W20542   4.879   1.000   2.862
16475W        W20543   4.858   3.466   1.478
16476W        W20544   4.175   3.425   3.112
16477W        W20545   4.287   2.786   0.242
16478W        W20546   6.804   2.544   1.052
16479W        W20547   4.408   1.336   2.938
16480W        W20548   7.181   1.266   0.419
16481W        W20549   4.926   2.323   0.890
16482W        W20550   6.025   1.705   2.971
16483W        W20551   5.916   1.333   2.515
16484W        W20552   4.476   1.705   2.544
16485W        W20553   6.686   3.593   2.373
16486W        W20554   6.477   0.227   3.367
16487W        W20555   4.141   0.377   2.954
16488W        W20556   4.480   1.400   2.007
16489W        W20557   4.849   1.214   0.129
16490W        W20558   3.652   2.973   2.674
16491W        W20559   5.237   1.682   2.117
16492W        W20560   5.060   0.707   0.222
16493W        W20561   4.195   1.523   1.003
16494W        W20562   3.966   3.375   2.440
16495W        W20563   6.761   1.601   0.548
16496W        W20564   6.856   0.517   3.234
16497W        W20565   6.292   2.726   1.197
16498W        W20566   3.890   1.650   3.374
16499W        W20567   6.856   0.114   0.670
16500W        W20568   6.376   2.589   0.681
16501W        W20569   5.278   1.647   0.766
16502W        W20570   6.465   0.451   0.289
16503W        W20571   6.530   1.058   2.475
16504W        W20572   4.239   1.651   1.682
16505W        W20573   4.533   2.590   1.331
16506W        W20574   6.296   1.210   1.296
16507W        W20575   5.319   0.589   1.992
16508W        W20576   7.281   2.500   2.503
16509W        W20577   7.199   0.487   2.064
16510W        W20578   3.738   3.317   1.440
16511W        W20579   4.247   2.504   0.976
16512W        W20580   4.162   0.121   3.529
16513W        W20581   5.281   2.974   3.631
16514W        W20582   7.036   1.942   1.421
16515W        W20583   6.390   2.119   0.301
16516W        W20584   5.685   3.640   2.513
16517W        W20585   6.542   2.362   3.550
16518W        W20586   5.357   0.072   0.830
16519W        W20587   6.070   0.941   1.689
16520W        W20588   3.756   2.528   2.021
16521W        W20589   5.009   0.490   0.662
16522W        W20590   4.813   1.974   3.511
16523W        W20591   5.807   0.955   1.225
16524W        W20592   6.012   2.365   2.347
16525W        W20593   4.166   2.970   2.782
16526W        W20594   4.757   2.953   3.505
16527W        W20595   4.608   0.750   0.519
16528W        W20596   6.125   0.892   0.844
16529W        W20597   6.083   3.000   3.081
16530W        W20598   4.768   1.592   1.680
16531W        W20599   4.423   3.290   2.545
16532W        W20600   7.168   3.407   0.146
16533W        W20601   4.031   2.079   3.142
16534W        W20602   6.026   2.341   1.830
16535W        W20603   4.462   1.990   1.072
16536W        W20604   4.833   2.997   2.467
16537W        W20605   5.211   0.416   1.508
16538W        W20606   3.822   2.400   0.438
16539W        W20607   5.341   1.351   0.308
16540W        W20608   3.987   1.900   1.327
16541W        W20609   5.277   0.542   2.791
16542W        W20610   6.949   0.251   0.218
16543W        W20611   7.042   1.997   3.317
16544W        W20612   5.696   3.254   3.469
16545W        W20613   7.254   2.348   2.991
16546W        W20614   6.662   3.146   3.602
16547W        W20615   4.401   3.602   2.080
16548W        W20616   7.260   2.224   0.954
16549W        W20617   5.790   1.491   1.467
16550W        W20618   5.557   0.103   1.357
16551W        W20619   4.616   3.087   1.194
16552W        W20620   5.115   0.828   2.419
16553W        W20621   4.815   0.197   1.888
16554W        W20622   3.878   3.019   0.436
16555W        W20623   5.694   2.383   1.154
16556W        W20624   4.569   3.178   3.033
16557W        W20625   4.046   2.001   0.729
16558W        W20626   3.931   0.544   1.728
16559W        W20627   5.479   2.509   1.785
16560W        W20628   3.731   0.363   0.805
16561W        W20629   6.395   1.569   2.732
16562W        W20630   6.272   0.955   0.304
16563W        W20631   6.789   2.627   1.952
16564W        W20632   5.450   3.111   1.783
16565W        W20633   4.862   3.215   0.694
16566W        W20634   6.144   0.118   0.124
16567W        W20635   3.944   3.378   1.865
16568W        W20636   6.141   1.136   3.500
16569W        W20637   4.124   0.666   3.499
16570W        W20638   3.855   1.266   0.832
16571W        W20639   4.546   1.255   0.557
16572W        W20640   6.309   1.582   3.374
16573W        W20641   4.652   1.863   2.083
16574W        W20642   6.126   0.149   1.203
16575W        W20643   5.257   3.580   1.706
16576W        W20644   6.471   3.042   2.643
16577W        W20645   6.055   3.191   1.754
16578W        W20646   6.074   2.171   1.348
16579W        W20647   5.536   0.396   0.419
16580W        W20648   7.217   0.024   1.141
16581W        W20649   4.905   1.659   0.304
16582W        W20650   7.071   0.996   1.294
16583W        W20651   5.763   2.166   0.171
16584W        W20652   6.699   2.366   2.919
16585W        W20653   6.353   3.067   0.386
16586W        W20654   4.968   0.742   3.292
16587W        W20655   4.788   1.326   2.533
16588W        W20656   6.880   2.821   2.810
16589W        W20657   5.980   0.771   3.187
16590W        W20658   3.824   1.242   2.964
16591W        W20659   5.584   1.719   2.690
16592W        W20660   3.941   2.477   1.347
16593W        W20661   4.088   1.774   2.237
16594W        W20662   6.405   2.060   2.587
16595W        W20663   6.177   3.440   3.398
16596W        W20664   6.073   1.179   2.951
16597W        W20665   6.350   3.233   1.356
16598W        W20666   5.352   2.953   2.679
16599W        W20667   4.837   3.308   1.948
16600W        W20668   6.642   2.479   2.367
16601W        W20669   5.692   2.551   3.504
16602W        W20670   4.297   2.504   1.843
16603W        W20671   6.643   2.263   1.488
16604W        W20672   6.284   3.329   2.239
16605W        W20673   4.262   3.058   2.109
16606W        W20674   5.283   1.110   3.319
16607W        W20675   5.734   3.276   0.830
16608W        W20676   5.042   2.531   3.468
16609W        W20677   5.168   2.769   0.845
16610W        W20678   4.389   1.509   0.104
16611W        W20679   3.728   3.595   7.003
16612W        W20680   4.104   2.488   6.526
16613W        W20681   6.809   2.218   4.296
16614W        W20682   6.939   3.303   6.323
16615W        W20683   4.857   3.294   3.849
16616W        W20684   4.940   1.446   4.832
16617W        W20685   4.455   1.294   4.996
16618W        W20686   5.446   2.109   4.430
16619W        W20687   5.121   3.201   6.785
16620W        W20688   3.770   0.762   6.748
16621W        W20689   4.532   0.042   6.550
16622W        W20690   6.226   0.430   5.437
16623W        W20691   5.875   1.301   4.007
16624W        W20692   6.445   0.735   7.098
16625W        W20693   3.811   0.527   6.223
16626W        W20694   3.910   3.146   7.244
16627W        W20695   5.432   2.536   3.976
16628W        W20696   3.864   1.319   5.669
16629W        W20697   4.757   1.210   6.906
16630W        W20698   7.216   1.069   5.405
16631W        W20699   6.980   2.112   6.264
16632W        W20700   5.288   1.445   5.291
16633W        W20701   5.834   2.784   5.660
16634W        W20702   4.334   2.218   5.892
16635W        W20703   3.693   1.746   5.463
16636W        W20704   4.729   1.718   6.655
16637W        W20705   7.000   1.501   6.909
16638W        W20706   4.616   2.945   5.354
16639W        W20707   5.737   2.634   6.488
16640W        W20708   4.957   1.274   5.713
16641W        W20709   5.249   2.058   5.356
16642W        W20710   6.246   2.831   7.204
16643W        W20711   5.325   2.151   7.214
16644W        W20712   5.306   1.867   6.692
16645W        W20713   3.715   1.258   7.214
16646W        W20714   6.547   2.793   6.813
16647W        W20715   4.128   0.375   4.811
16648W        W20716   4.655   2.633   5.810
16649W        W20717   7.118   2.416   5.100
16650W        W20718   6.531   0.816   5.667
16651W        W20719   6.816   0.769   3.762
16652W        W20720   7.281   1.570   6.068
16653W        W20721   5.248   3.277   5.821
16654W        W20722   7.022   2.743   4.259
16655W        W20723   4.151   3.529   4.013
16656W        W20724   4.544   3.575   4.689
16657W        W20725   4.341   0.329   6.115
16658W        W20726   6.964   1.347   6.390
16659W        W20727   6.369   1.769   4.849
16660W        W20728   6.335   1.457   3.876
16661W        W20729   5.543   2.601   6.016
16662W        W20730   5.349   0.931   5.215
16663W        W20731   5.949   3.018   6.209
16664W        W20732   6.820   1.809   4.631
16665W        W20733   5.722   0.467   4.647
16666W        W20734   4.379   3.161   4.330
16667W        W20735   3.750   0.660   4.929
16668W        W20736   6.536   1.267   5.403
16669W        W20737   3.994   2.884   5.318
16670W        W20738   5.335   3.234   4.188
16671W        W20739   6.727   1.260   3.652
16672W        W20740   3.750   3.018   5.816
16673W        W20741   4.541   2.590   6.296
16674W        W20742   4.914   1.950   4.915
16675W        W20743   4.936   0.355   6.008
16676W        W20744   7.165   0.117   5.305
16677W        W20745   4.384   1.989   3.773
16678W        W20746   4.039   1.022   3.952
16679W        W20747   4.101   2.978   4.746
16680W        W20748   5.232   2.461   4.994
16681W        W20749   6.564   3.320   6.708
16682W        W20750   5.490   0.962   4.392
16683W        W20751   6.873   3.360   5.164
16684W        W20752   6.550   1.213   6.762
16685W        W20753   7.263   2.869   4.896
16686W        W20754   5.890   2.161   6.380
16687W        W20755   3.656   1.712   4.586
16688W        W20756   4.767   2.127   6.159
16689W        W20757   5.971   1.391   4.537
16690W        W20758   5.848   1.881   4.641
16691W        W20759   4.191   1.301   6.115
16692W        W20760   4.176   1.177   7.037
16693W        W20761   4.066   0.094   5.196
16694W        W20762   5.834   0.441   5.757
16695W        W20763   5.482   0.626   6.920
16696W        W20764   5.837   0.775   4.098
16697W        W20765   7.020   3.168   6.852
16698W        W20766   5.987   0.249   6.891
16699W        W20767   7.006   2.550   7.013
16700W        W20768   6.436   0.717   6.609
16701W        W20769   6.236   0.655   4.879
16702W        W20770   6.629   1.789   7.283
16703W        W20771   4.369   3.365   5.269
16704W        W20772   5.027   1.082   4.255
16705W        W20773   4.596   0.366   6.919
16706W        W20774   6.648   0.850   4.600
16707W        W20775   7.015   1.332   4.545
16708W        W20776   4.758   3.549   7.016
16709W        W20777   4.684   0.085   4.251
16710W        W20778   7.005   0.619   5.286
16711W        W20779   7.155   2.868   3.731
16712W        W20780   4.062   2.071   5.433
16713W        W20781   5.979   0.658   3.663
16714W        W20782   7.113   2.990   5.383
16715W        W20783   7.152   0.184   6.133
16716W        W20784   5.597   1.396   6.687
16717W        W20785   5.690   2.735   4.390
16718W        W20786   6.090   2.029   7.130
16719W        W20787   5.764   0.006   5.439
16720W        W20788   4.376   0.909   5.502
16721W        W20789   3.930   2.109   6.276
16722W        W20790   5.789   3.302   4.982
16723W        W20791   6.983   0.899   5.854
16724W        W20792   5.620   3.246   6.621
16725W        W20793   6.963   2.305   3.826
16726W        W20794   5.398   1.788   4.887
16727W        W20795   7.250   0.299   6.628
16728W        W20796   5.399   2.134   6.222
16729W        W20797   5.616   1.020   5.667
16730W        W20798   6.468   1.318   4.505
16731W        W20799   6.755   1.051   4.147
16732W        W20800   6.564   3.091   4.536
16733W        W20801   6.398   2.694   5.332
16734W        W20802   6.294   1.773   4.310
16735W        W20803   5.727   1.983   5.296
16736W        W20804   6.608   1.771   5.363
16737W        W20805   3.983   0.786   5.787
16738W        W20806   6.761   1.838   6.614
16739W        W20807   7.112   3.456   5.760
16740W        W20808   5.042   2.900   5.162
16741W        W20809   6.049   3.433   6.486
16742W        W20810   6.043   0.763   6.250
16743W        W20811   5.250   3.471   6.311
16744W        W20812   6.947   0.425   4.777
16745W        W20813   6.738   1.744   6.078
16746W        W20814   3.721   1.065   6.116
16747W        W20815   6.581   0.860   5.134
16748W        W20816   6.992   1.011   6.911
16749W        W20817   5.877   2.710   5.129
16750W        W20818   5.133   3.301   4.742
16751W        W20819   4.248   0.481   4.000
16752W        W20820   5.352   0.135   5.810
16753W        W20821   4.380   3.255   3.658
16754W        W20822   4.754   1.721   4.409
16755W        W20823   5.408   2.350   6.722
16756W        W20824   5.238   0.708   4.712
16757W        W20825   6.594   0.305   5.140
16758W        W20826   6.314   3.587   5.468
16759W        W20827   5.726   3.235   5.808
16760W        W20828   5.122   2.272   5.769
16761W        W20829   6.892   2.995   5.895
16762W        W20830   4.586   0.498   4.664
16763W        W20831   5.108   2.795   5.624
16764W        W20832   4.591   0.726   3.689
16765W        W20833   5.392   1.335   6.083
16766W        W20834   6.240   0.201   5.953
16767W        W20835   3.660   2.044   5.838
16768W        W20836   5.364   1.862   3.996
16769W        W20837   4.632   0.177   3.766
16770W        W20838   5.370   1.258   4.817
16771W        W20839   6.340   0.234   6.516
16772W        W20840   4.928   2.246   6.625
16773W        W20841   5.732   2.028   6.842
16774W        W20842   6.349   2.058   6.735
16775W        W20843   5.633   0.198   7.240
16776W        W20844   4.855   0.814   5.633
16777W        W20845   4.281   0.770   5.031
16778W        W20846   4.067   3.482   4.707
16779W        W20847   5.399   2.812   6.832
16780W        W20848   4.434   2.297   4.191
16781W        W20849   6.114   1.682   5.412
16782W        W20850   6.394   1.481   5.811
16783W        W20851   5.599   2.155   5.745
16784W        W20852   6.069   2.529   3.877
16785W        W20853   5.741   0.550   5.205
16786W        W20854   7.220   0.828   4.473
16787W        W20855   3.714   3.417   6.504
16788W        W20856   4.131   2.643   6.036
16789W        W20857   3.698   3.489   4.268
16790W        W20858   5.597   0.759   6.074
16791W        W20859   4.960   2.782   3.923
16792W        W20860   6.865   3.164   4.109
16793W        W20861   5.840   1.817   4.123
16794W        W20862   4.683   1.008   4.640
16795W        W20863   5.515   0.918   3.692
16796W        W20864   6.099   2.483   6.870
16797W        W20865   6.452   0.389   4.487
16798W        W20866   3.782   0.237   3.935
16799W        W20867   5.068   2.556   6.225
16800W        W20868   4.867   2.472   5.317
16801W        W20869   4.609   2.424   3.715
16802W        W20870   3.850   2.665   4.483
16803W        W20871   4.354   1.735   6.925
16804W        W20872   5.058   0.295   7.111
16805W        W20873   5.767   0.437   6.467
16806W        W20874   4.962   0.205   4.748
16807W        W20875   6.021   0.282   4.253
16808W        W20876   3.966   0.214   5.830
16809W        W20877   4.014   1.177   5.200
16810W        W20878   6.703   0.285   5.606
16811W        W20879   4.125   0.783   4.420
16812W        W20880   6.696   0.471   6.036
16813W        W20881   7.092   1.674   3.721
16814W        W20882   4.384   0.432   5.540
16815W        W20883   5.498   1.004   6.480
16816W        W20884   3.646   0.694   3.958
16817W        W20885   4.432   2.083   6.519
16818W        W20886   5.790   1.481   5.698
16819W        W20887   5.657   3.560   3.994
16820W        W20888   3.803   2.067   3.691
16821W        W20889   4.538   2.478   6.817
16822W        W20890   4.059   1.645   6.448
16823W        W20891   5.050   1.750   6.242
16824W        W20892   6.818   0.109   6.504
16825W        W20893   7.216   1.719   6.495
16826W        W20894   7.204   1.919   4.181
16827W        W20895   6.067   2.251   4.280
16828W        W20896   6.541   3.551   3.975
16829W        W20897   5.718   1.541   7.117
16830W        W20898   4.048   2.508   7.157
16831W        W20899   7.254   0.430   7.109
16832W        W20900   6.972   1.358   5.730
16833W        W20901   5.280   3.488   7.207
16834W        W20902   5.135   0.117   3.934
16835W        W20903   6.674   2.716   3.877
16836W        W20904   4.443   0.809   6.763
16837W        W20905   4.877   2.803   6.625
16838W        W20906   7.003   0.794   6.423
16839W        W20907   6.214   3.453   4.391
16840W        W20908   6.453   2.072   5.758
16841W        W20909   4.703   0.488   6.425
16842W        W20910   5.172   1.557   7.182
16843W        W20911   4.675   2.736   4.376
16844W        W20912   6.430   2.234   4.640
16845W        W20913   4.198   0.860   6.364
16846W        W20914   5.527   2.922   4.828
16847W        W20915   7.277   1.482   5.009
16848W        W20916   5.499   0.115   6.728
16849W        W20917   6.279   2.820   5.807
16850W        W20918   6.582   3.164   5.515
16851W        W20919   5.801   2.966   3.943
16852W        W20920   3.811   2.858   6.785
16853W        W20921   4.554   0.850   6.023
16854W        W20922   4.524   0.198   5.133
16855W        W20923   6.145   1.040   5.825
16856W        W20924   4.943   2.211   4.025
16857W        W20925   6.941   2.153   5.524
16858W        W20926   4.268   2.911   6.947
16859W        W20927   6.655   3.593   4.744
16860W        W20928   4.754   0.613   5.189
16861W        W20929   4.523   2.106   5.279
16862W        W20930   4.836   3.517   6.029
16863W        W20931   6.903   3.613   7.061
16864W        W20932   6.062   1.801   5.994
16865W        W20933   3.911   1.599   3.909
16866W        W20934   7.045   3.257   4.606
16867W        W20935   6.882   0.581   4.225
16868W        W20936   5.021   0.100   6.628
16869W        W20937   6.727   2.902   5.086
16870W        W20938   6.756   1.458   4.991
16871W        W20939   4.873   1.131   5.207
16872W        W20940   5.118   1.393   6.531
16873W        W20941   6.229   2.546   6.394
16874W        W20942   4.879   1.000   6.506
16875W        W20943   4.858   3.466   5.122
16876W        W20944   4.175   3.425   6.756
16877W        W20945   4.287   2.786   3.886
16878W        W20946   6.804   2.544   4.696
16879W        W20947   4.408   1.336   6.582
16880W        W20948   7.181   1.266   4.063
16881W        W20949   4.926   2.323   4.534
16882W        W20950   6.025   1.705   6.615
16883W        W20951   5.916   1.333   6.159
16884W        W20952   4.476   1.705   6.188
16885W        W20953   6.686   3.593   6.017
16886W        W20954   6.477   0.227   7.011
16887W        W20955   4.141   0.377   6.598
16888W        W20956   4.480   1.400   5.651
16889W        W20957   4.849   1.214   3.773
16890W        W20958   3.652   2.973   6.318
16891W        W20959   5.237   1.682   5.761
16892W        W20960   5.060   0.707   3.866
16893W        W20961   4.195   1.523   4.647
16894W        W20962   3.966   3.375   6.084
16895W        W20963   6.761   1.601   4.192
16896W        W20964   6.856   0.517   6.878
16897W        W20965   6.292   2.726   4.841
16898W        W20966   3.890   1.650   7.018
16899W        W20967   6.856   0.114   4.314
16900W        W20968   6.376   2.589   4.325
16901W        W20969   5.278   1.647   4.410
16902W        W20970   6.465   0.451   3.933
16903W        W20971   6.530   1.058   6.119
16904W        W20972   4.239   1.651   5.326
16905W        W20973   4.533   2.590   4.975
16906W        W20974   6.296   1.210   4.940
16907W        W20975   5.319   0.589   5.636
16908W        W20976   7.281   2.500   6.147
16909W        W20977   7.199   0.487   5.708
16910W        W20978   3.738   3.317   5.084
16911W        W20979   4.247   2.504   4.620
16912W        W20980   4.162   0.121   7.173
16913W        W20981   5.281   2.974   7.275
16914W        W20982   7.036   1.942   5.065
16915W        W20983   6.390   2.119   3.945
16916W        W20984   5.685   3.640   6.157
16917W        W20985   6.542   2.362   7.194
16918W        W20986   5.357   0.072   4.474
16919W        W20987   6.070   0.941   5.333
16920W        W20988   3.756   2.528   5.665
16921W        W20989   5.009   0.490   4.306
16922W        W20990   4.813   1.974   7.155
16923W        W20991   5.807   0.955   4.869
16924W        W20992   6.012   2.365   5.991
16925W        W20993   4.166   2.970   6.426
16926W        W20994   4.757   2.953   7.149
16927W        W20995   4.608   0.750   4.163
16928W        W20996   6.125   0.892   4.488
16929W        W20997   6.083   3.000   6.725
16930W        W20998   4.768   1.592   5.324
16931W        W20999   4.423   3.290   6.189
16932W        W21000   7.168   3.407   3.790
16933W        W21001   4.031   2.079   6.786
16934W        W21002   6.026   2.341   5.474
16935W        W21003   4.462   1.990   4.716
16936W        W21004   4.833   2.997   6.111
16937W        W21005   5.211   0.416   5.152
16938W        W21006   3.822   2.400   4.082
16939W        W21007   5.341   1.351   3.952
16940W        W21008   3.987   1.900   4.971
16941W        W21009   5.277   0.542   6.435
16942W        W21010   6.949   0.251   3.862
16943W        W21011   7.042   1.997   6.961
16944W        W21012   5.696   3.254   7.113
16945W        W21013   7.254   2.348   6.635
16946W        W21014   6.662   3.146   7.246
16947W        W21015   4.401   3.602   5.724
16948W        W21016   7.260   2.224   4.598
16949W        W21017   5.790   1.491   5.111
16950W        W21018   5.557   0.103   5.001
16951W        W21019   4.616   3.087   4.838
16952W        W21020   5.115   0.828   6.063
16953W        W21021   4.815   0.197   5.532
16954W        W21022   3.878   3.019   4.080
16955W        W21023   5.694   2.383   4.798
16956W        W21024   4.569   3.178   6.677
16957W        W21025   4.046   2.001   4.373
16958W        W21026   3.931   0.544   5.372
16959W        W21027   5.479   2.509   5.429
16960W        W21028   3.731   0.363   4.449
16961W        W21029   6.395   1.569   6.376
16962W        W21030   6.272   0.955   3.948
16963W        W21031   6.789   2.627   5.596
16964W        W21032   5.450   3.111   5.427
16965W        W21033   4.862   3.215   4.338
16966W        W21034   6.144   0.118   3.768
16967W        W21035   3.944   3.378   5.509
16968W        W21036   6.141   1.136   7.144
16969W        W21037   4.124   0.666   7.143
16970W        W21038   3.855   1.266   4.476
16971W        W21039   4.546   1.255   4.201
16972W        W21040   6.309   1.582   7.018
16973W        W21041   4.652   1.863   5.727
16974W        W21042   6.126   0.149   4.847
16975W        W21043   5.257   3.580   5.350
16976W        W21044   6.471   3.042   6.287
16977W        W21045   6.055   3.191   5.398
16978W        W21046   6.074   2.171   4.992
16979W        W21047   5.536   0.396   4.063
16980W        W21048   7.217   0.024   4.785
16981W        W21049   4.905   1.659   3.948
16982W        W21050   7.071   0.996   4.938
16983W        W21051   5.763   2.166   3.815
16984W        W21052   6.699   2.366   6.563
16985W        W21053   6.353   3.067   4.030
16986W        W21054   4.968   0.742   6.936
16987W        W21055   4.788   1.326   6.177
16988W        W21056   6.880   2.821   6.454
16989W        W21057   5.980   0.771   6.831
16990W        W21058   3.824   1.242   6.608
16991W        W21059   5.584   1.719   6.334
16992W        W21060   3.941   2.477   4.991
16993W        W21061   4.088   1.774   5.881
16994W        W21062   6.405   2.060   6.231
16995W        W21063   6.177   3.440   7.042
16996W        W21064   6.073   1.179   6.595
16997W        W21065   6.350   3.233   5.000
16998W        W21066   5.352   2.953   6.323
16999W        W21067   4.837   3.308   5.592
17000W        W21068   6.642   2.479   6.011
17001W        W21069   5.692   2.551   7.148
17002W        W21070   4.297   2.504   5.487
17003W        W21071   6.643   2.263   5.132
17004W        W21072   6.284   3.329   5.883
17005W        W21073   4.262   3.058   5.753
17006W        W21074   5.283   1.110   6.963
17007W        W21075   5.734   3.276   4.474
17008W        W21076   5.042   2.531   7.112
17009W        W21077   5.168   2.769   4.489
17010W        W21078   4.389   1.509   3.748
17011W        W21079   3.728   3.595  10.648
17012W        W21080   4.104   2.488  10.171
17013W        W21081   6.809   2.218   7.941
17014W        W21082   6.939   3.303   9.968
17015W        W21083   4.857   3.294   7.494
17016W        W21084   4.940   1.446   8.477
17017W        W21085   4.455   1.294   8.641
17018W        W21086   5.446   2.109   8.075
17019W        W21087   5.121   3.201  10.430
17020W        W21088   3.770   0.762  10.393
17021W        W21089   4.532   0.042  10.195
17022W        W21090   6.226   0.430   9.082
17023W        W21091   5.875   1.301   7.652
17024W        W21092   6.445   0.735  10.743
17025W        W21093   3.811   0.527   9.868
17026W        W21094   3.910   3.146  10.889
17027W        W21095   5.432   2.536   7.621
17028W        W21096   3.864   1.319   9.314
17029W        W21097   4.757   1.210  10.551
17030W        W21098   7.216   1.069   9.050
17031W        W21099   6.980   2.112   9.909
17032W        W21100   5.288   1.445   8.936
17033W        W21101   5.834   2.784   9.305
17034W        W21102   4.334   2.218   9.537
17035W        W21103   3.693   1.746   9.108
17036W        W21104   4.729   1.718  10.300
17037W        W21105   7.000   1.501  10.554
17038W        W21106   4.616   2.945   8.999
17039W        W21107   5.737   2.634  10.133
17040W        W21108   4.957   1.274   9.358
17041W        W21109   5.249   2.058   9.001
17042W        W21110   6.246   2.831  10.849
17043W        W21111   5.325   2.151  10.859
17044W        W21112   5.306   1.867  10.337
17045W        W21113   3.715   1.258  10.859
17046W        W21114   6.547   2.793  10.458
17047W        W21115   4.128   0.375   8.456
17048W        W21116   4.655   2.633   9.455
17049W        W21117   7.118   2.416   8.745
17050W        W21118   6.531   0.816   9.312
17051W        W21119   6.816   0.769   7.407
17052W        W21120   7.281   1.570   9.713
17053W        W21121   5.248   3.277   9.466
17054W        W21122   7.022   2.743   7.904
17055W        W21123   4.151   3.529   7.658
17056W        W21124   4.544   3.575   8.334
17057W        W21125   4.341   0.329   9.760
17058W        W21126   6.964   1.347  10.035
17059W        W21127   6.369   1.769   8.494
17060W        W21128   6.335   1.457   7.521
17061W        W21129   5.543   2.601   9.661
17062W        W21130   5.349   0.931   8.860
17063W        W21131   5.949   3.018   9.854
17064W        W21132   6.820   1.809   8.276
17065W        W21133   5.722   0.467   8.292
17066W        W21134   4.379   3.161   7.975
17067W        W21135   3.750   0.660   8.574
17068W        W21136   6.536   1.267   9.048
17069W        W21137   3.994   2.884   8.963
17070W        W21138   5.335   3.234   7.833
17071W        W21139   6.727   1.260   7.297
17072W        W21140   3.750   3.018   9.461
17073W        W21141   4.541   2.590   9.941
17074W        W21142   4.914   1.950   8.560
17075W        W21143   4.936   0.355   9.653
17076W        W21144   7.165   0.117   8.950
17077W        W21145   4.384   1.989   7.418
17078W        W21146   4.039   1.022   7.597
17079W        W21147   4.101   2.978   8.391
17080W        W21148   5.232   2.461   8.639
17081W        W21149   6.564   3.320  10.353
17082W        W21150   5.490   0.962   8.037
17083W        W21151   6.873   3.360   8.809
17084W        W21152   6.550   1.213  10.407
17085W        W21153   7.263   2.869   8.541
17086W        W21154   5.890   2.161  10.025
17087W        W21155   3.656   1.712   8.231
17088W        W21156   4.767   2.127   9.804
17089W        W21157   5.971   1.391   8.182
17090W        W21158   5.848   1.881   8.286
17091W        W21159   4.191   1.301   9.760
17092W        W21160   4.176   1.177  10.682
17093W        W21161   4.066   0.094   8.841
17094W        W21162   5.834   0.441   9.402
17095W        W21163   5.482   0.626  10.565
17096W        W21164   5.837   0.775   7.743
17097W        W21165   7.020   3.168  10.497
17098W        W21166   5.987   0.249  10.536
17099W        W21167   7.006   2.550  10.658
17100W        W21168   6.436   0.717  10.254
17101W        W21169   6.236   0.655   8.524
17102W        W21170   6.629   1.789  10.928
17103W        W21171   4.369   3.365   8.914
17104W        W21172   5.027   1.082   7.900
17105W        W21173   4.596   0.366  10.564
17106W        W21174   6.648   0.850   8.245
17107W        W21175   7.015   1.332   8.190
17108W        W21176   4.758   3.549  10.661
17109W        W21177   4.684   0.085   7.896
17110W        W21178   7.005   0.619   8.931
17111W        W21179   7.155   2.868   7.376
17112W        W21180   4.062   2.071   9.078
17113W        W21181   5.979   0.658   7.308
17114W        W21182   7.113   2.990   9.028
17115W        W21183   7.152   0.184   9.778
17116W        W21184   5.597   1.396  10.332
17117W        W21185   5.690   2.735   8.035
17118W        W21186   6.090   2.029  10.775
17119W        W21187   5.764   0.006   9.084
17120W        W21188   4.376   0.909   9.147
17121W        W21189   3.930   2.109   9.921
17122W        W21190   5.789   3.302   8.627
17123W        W21191   6.983   0.899   9.499
17124W        W21192   5.620   3.246  10.266
17125W        W21193   6.963   2.305   7.471
17126W        W21194   5.398   1.788   8.532
17127W        W21195   7.250   0.299  10.273
17128W        W21196   5.399   2.134   9.867
17129W        W21197   5.616   1.020   9.312
17130W        W21198   6.468   1.318   8.150
17131W        W21199   6.755   1.051   7.792
17132W        W21200   6.564   3.091   8.181
17133W        W21201   6.398   2.694   8.977
17134W        W21202   6.294   1.773   7.955
17135W        W21203   5.727   1.983   8.941
17136W        W21204   6.608   1.771   9.008
17137W        W21205   3.983   0.786   9.432
17138W        W21206   6.761   1.838  10.259
17139W        W21207   7.112   3.456   9.405
17140W        W21208   5.042   2.900   8.807
17141W        W21209   6.049   3.433  10.131
17142W        W21210   6.043   0.763   9.895
17143W        W21211   5.250   3.471   9.956
17144W        W21212   6.947   0.425   8.422
17145W        W21213   6.738   1.744   9.723
17146W        W21214   3.721   1.065   9.761
17147W        W21215   6.581   0.860   8.779
17148W        W21216   6.992   1.011  10.556
17149W        W21217   5.877   2.710   8.774
17150W        W21218   5.133   3.301   8.387
17151W        W21219   4.248   0.481   7.645
17152W        W21220   5.352   0.135   9.455
17153W        W21221   4.380   3.255   7.303
17154W        W21222   4.754   1.721   8.054
17155W        W21223   5.408   2.350  10.367
17156W        W21224   5.238   0.708   8.357
17157W        W21225   6.594   0.305   8.785
17158W        W21226   6.314   3.587   9.113
17159W        W21227   5.726   3.235   9.453
17160W        W21228   5.122   2.272   9.414
17161W        W21229   6.892   2.995   9.540
17162W        W21230   4.586   0.498   8.309
17163W        W21231   5.108   2.795   9.269
17164W        W21232   4.591   0.726   7.334
17165W        W21233   5.392   1.335   9.728
17166W        W21234   6.240   0.201   9.598
17167W        W21235   3.660   2.044   9.483
17168W        W21236   5.364   1.862   7.641
17169W        W21237   4.632   0.177   7.411
17170W        W21238   5.370   1.258   8.462
17171W        W21239   6.340   0.234  10.161
17172W        W21240   4.928   2.246  10.270
17173W        W21241   5.732   2.028  10.487
17174W        W21242   6.349   2.058  10.380
17175W        W21243   5.633   0.198  10.885
17176W        W21244   4.855   0.814   9.278
17177W        W21245   4.281   0.770   8.676
17178W        W21246   4.067   3.482   8.352
17179W        W21247   5.399   2.812  10.477
17180W        W21248   4.434   2.297   7.836
17181W        W21249   6.114   1.682   9.057
17182W        W21250   6.394   1.481   9.456
17183W        W21251   5.599   2.155   9.390
17184W        W21252   6.069   2.529   7.522
17185W        W21253   5.741   0.550   8.850
17186W        W21254   7.220   0.828   8.118
17187W        W21255   3.714   3.417  10.149
17188W        W21256   4.131   2.643   9.681
17189W        W21257   3.698   3.489   7.913
17190W        W21258   5.597   0.759   9.719
17191W        W21259   4.960   2.782   7.568
17192W        W21260   6.865   3.164   7.754
17193W        W21261   5.840   1.817   7.768
17194W        W21262   4.683   1.008   8.285
17195W        W21263   5.515   0.918   7.337
17196W        W21264   6.099   2.483  10.515
17197W        W21265   6.452   0.389   8.132
17198W        W21266   3.782   0.237   7.580
17199W        W21267   5.068   2.556   9.870
17200W        W21268   4.867   2.472   8.962
17201W        W21269   4.609   2.424   7.360
17202W        W21270   3.850   2.665   8.128
17203W        W21271   4.354   1.735  10.570
17204W        W21272   5.058   0.295  10.756
17205W        W21273   5.767   0.437  10.112
17206W        W21274   4.962   0.205   8.393
17207W        W21275   6.021   0.282   7.898
17208W        W21276   3.966   0.214   9.475
17209W        W21277   4.014   1.177   8.845
17210W        W21278   6.703   0.285   9.251
17211W        W21279   4.125   0.783   8.065
17212W        W21280   6.696   0.471   9.681
17213W        W21281   7.092   1.674   7.366
17214W        W21282   4.384   0.432   9.185
17215W        W21283   5.498   1.004  10.125
17216W        W21284   3.646   0.694   7.603
17217W        W21285   4.432   2.083  10.164
17218W        W21286   5.790   1.481   9.343
17219W        W21287   5.657   3.560   7.639
17220W        W21288   3.803   2.067   7.336
17221W        W21289   4.538   2.478  10.462
17222W        W21290   4.059   1.645  10.093
17223W        W21291   5.050   1.750   9.887
17224W        W21292   6.818   0.109  10.149
17225W        W21293   7.216   1.719  10.140
17226W        W21294   7.204   1.919   7.826
17227W        W21295   6.067   2.251   7.925
17228W        W21296   6.541   3.551   7.620
17229W        W21297   5.718   1.541  10.762
17230W        W21298   4.048   2.508  10.802
17231W        W21299   7.254   0.430  10.754
17232W        W21300   6.972   1.358   9.375
17233W        W21301   5.280   3.488  10.852
17234W        W21302   5.135   0.117   7.579
17235W        W21303   6.674   2.716   7.522
17236W        W21304   4.443   0.809  10.408
17237W        W21305   4.877   2.803  10.270
17238W        W21306   7.003   0.794  10.068
17239W        W21307   6.214   3.453   8.036
17240W        W21308   6.453   2.072   9.403
17241W        W21309   4.703   0.488  10.070
17242W        W21310   5.172   1.557  10.827
17243W        W21311   4.675   2.736   8.021
17244W        W21312   6.430   2.234   8.285
17245W        W21313   4.198   0.860  10.009
17246W        W21314   5.527   2.922   8.473
17247W        W21315   7.277   1.482   8.654
17248W        W21316   5.499   0.115  10.373
17249W        W21317   6.279   2.820   9.452
17250W        W21318   6.582   3.164   9.160
17251W        W21319   5.801   2.966   7.588
17252W        W21320   3.811   2.858  10.430
17253W        W21321   4.554   0.850   9.668
17254W        W21322   4.524   0.198   8.778
17255W        W21323   6.145   1.040   9.470
17256W        W21324   4.943   2.211   7.670
17257W        W21325   6.941   2.153   9.169
17258W        W21326   4.268   2.911  10.592
17259W        W21327   6.655   3.593   8.389
17260W        W21328   4.754   0.613   8.834
17261W        W21329   4.523   2.106   8.924
17262W        W21330   4.836   3.517   9.674
17263W        W21331   6.903   3.613  10.706
17264W        W21332   6.062   1.801   9.639
17265W        W21333   3.911   1.599   7.554
17266W        W21334   7.045   3.257   8.251
17267W        W21335   6.882   0.581   7.870
17268W        W21336   5.021   0.100  10.273
17269W        W21337   6.727   2.902   8.731
17270W        W21338   6.756   1.458   8.636
17271W        W21339   4.873   1.131   8.852
17272W        W21340   5.118   1.393  10.176
17273W        W21341   6.229   2.546  10.039
17274W        W21342   4.879   1.000  10.151
17275W        W21343   4.858   3.466   8.767
17276W        W21344   4.175   3.425  10.401
17277W        W21345   4.287   2.786   7.531
17278W        W21346   6.804   2.544   8.341
17279W        W21347   4.408   1.336  10.227
17280W        W21348   7.181   1.266   7.708
17281W        W21349   4.926   2.323   8.179
17282W        W21350   6.025   1.705  10.260
17283W        W21351   5.916   1.333   9.804
17284W        W21352   4.476   1.705   9.833
17285W        W21353   6.686   3.593   9.662
17286W        W21354   6.477   0.227  10.656
17287W        W21355   4.141   0.377  10.243
17288W        W21356   4.480   1.400   9.296
17289W        W21357   4.849   1.214   7.418
17290W        W21358   3.652   2.973   9.963
17291W        W21359   5.237   1.682   9.406
17292W        W21360   5.060   0.707   7.511
17293W        W21361   4.195   1.523   8.292
17294W        W21362   3.966   3.375   9.729
17295W        W21363   6.761   1.601   7.837
17296W        W21364   6.856   0.517  10.523
17297W        W21365   6.292   2.726   8.486
17298W        W21366   3.890   1.650  10.663
17299W        W21367   6.856   0.114   7.959
17300W        W21368   6.376   2.589   7.970
17301W        W21369   5.278   1.647   8.055
17302W        W21370   6.465   0.451   7.578
17303W        W21371   6.530   1.058   9.764
17304W        W21372   4.239   1.651   8.971
17305W        W21373   4.533   2.590   8.620
17306W        W21374   6.296   1.210   8.585
17307W        W21375   5.319   0.589   9.281
17308W        W21376   7.281   2.500   9.792
17309W        W21377   7.199   0.487   9.353
17310W        W21378   3.738   3.317   8.729
17311W        W21379   4.247   2.504   8.265
17312W        W21380   4.162   0.121  10.818
17313W        W21381   5.281   2.974  10.920
17314W        W21382   7.036   1.942   8.710
17315W        W21383   6.390   2.119   7.590
17316W        W21384   5.685   3.640   9.802
17317W        W21385   6.542   2.362  10.839
17318W        W21386   5.357   0.072   8.119
17319W        W21387   6.070   0.941   8.978
17320W        W21388   3.756   2.528   9.310
17321W        W21389   5.009   0.490   7.951
17322W        W21390   4.813   1.974  10.800
17323W        W21391   5.807   0.955   8.514
17324W        W21392   6.012   2.365   9.636
17325W        W21393   4.166   2.970  10.071
17326W        W21394   4.757   2.953  10.794
17327W        W21395   4.608   0.750   7.808
17328W        W21396   6.125   0.892   8.133
17329W        W21397   6.083   3.000  10.370
17330W        W21398   4.768   1.592   8.969
17331W        W21399   4.423   3.290   9.834
17332W        W21400   7.168   3.407   7.435
17333W        W21401   4.031   2.079  10.431
17334W        W21402   6.026   2.341   9.119
17335W        W21403   4.462   1.990   8.361
17336W        W21404   4.833   2.997   9.756
17337W        W21405   5.211   0.416   8.797
17338W        W21406   3.822   2.400   7.727
17339W        W21407   5.341   1.351   7.597
17340W        W21408   3.987   1.900   8.616
17341W        W21409   5.277   0.542  10.080
17342W        W21410   6.949   0.251   7.507
17343W        W21411   7.042   1.997  10.606
17344W        W21412   5.696   3.254  10.758
17345W        W21413   7.254   2.348  10.280
17346W        W21414   6.662   3.146  10.891
17347W        W21415   4.401   3.602   9.369
17348W        W21416   7.260   2.224   8.243
17349W        W21417   5.790   1.491   8.756
17350W        W21418   5.557   0.103   8.646
17351W        W21419   4.616   3.087   8.483
17352W        W21420   5.115   0.828   9.708
17353W        W21421   4.815   0.197   9.177
17354W        W21422   3.878   3.019   7.725
17355W        W21423   5.694   2.383   8.443
17356W        W21424   4.569   3.178  10.322
17357W        W21425   4.046   2.001   8.018
17358W        W21426   3.931   0.544   9.017
17359W        W21427   5.479   2.509   9.074
17360W        W21428   3.731   0.363   8.094
17361W        W21429   6.395   1.569  10.021
17362W        W21430   6.272   0.955   7.593
17363W        W21431   6.789   2.627   9.241
17364W        W21432   5.450   3.111   9.072
17365W        W21433   4.862   3.215   7.983
17366W        W21434   6.144   0.118   7.413
17367W        W21435   3.944   3.378   9.154
17368W        W21436   6.141   1.136  10.789
17369W        W21437   4.124   0.666  10.788
17370W        W21438   3.855   1.266   8.121
17371W        W21439   4.546   1.255   7.846
17372W        W21440   6.309   1.582  10.663
17373W        W21441   4.652   1.863   9.372
17374W        W21442   6.126   0.149   8.492
17375W        W21443   5.257   3.580   8.995
17376W        W21444   6.471   3.042   9.932
17377W        W21445   6.055   3.191   9.043
17378W        W21446   6.074   2.171   8.637
17379W        W21447   5.536   0.396   7.708
17380W        W21448   7.217   0.024   8.430
17381W        W21449   4.905   1.659   7.593
17382W        W21450   7.071   0.996   8.583
17383W        W21451   5.763   2.166   7.460
17384W        W21452   6.699   2.366  10.208
17385W        W21453   6.353   3.067   7.675
17386W        W21454   4.968   0.742  10.581
17387W        W21455   4.788   1.326   9.822
17388W        W21456   6.880   2.821  10.099
17389W        W21457   5.980   0.771  10.476
17390W        W21458   3.824   1.242  10.253
17391W        W21459   5.584   1.719   9.979
17392W        W21460   3.941   2.477   8.636
17393W        W21461   4.088   1.774   9.526
17394W        W21462   6.405   2.060   9.876
17395W        W21463   6.177   3.440  10.687
17396W        W21464   6.073   1.179  10.240
17397W        W21465   6.350   3.233   8.645
17398W        W21466   5.352   2.953   9.968
17399W        W21467   4.837   3.308   9.237
17400W        W21468   6.642   2.479   9.656
17401W        W21469   5.692   2.551  10.793
17402W        W21470   4.297   2.504   9.132
17403W        W21471   6.643   2.263   8.777
17404W        W21472   6.284   3.329   9.528
17405W        W21473   4.262   3.058   9.398
17406W        W21474   5.283   1.110  10.608
17407W        W21475   5.734   3.276   8.119
17408W        W21476   5.042   2.531  10.757
17409W        W21477   5.168   2.769   8.134
17410W        W21478   4.389   1.509   7.393
17411W        W21479   3.728   3.595  14.292
17412W        W21480   4.104   2.488  13.815
17413W        W21481   6.809   2.218  11.585
17414W        W21482   6.939   3.303  13.612
17415W        W21483   4.857   3.294  11.138
17416W        W21484   4.940   1.446  12.121
17417W        W21485   4.455   1.294  12.285
17418W        W21486   5.446   2.109  11.719
17419W        W21487   5.121   3.201  14.074
17420W        W21488   3.770   0.762  14.037
17421W        W21489   4.532   0.042  13.839
17422W        W21490   6.226   0.430  12.726
17423W        W21491   5.875   1.301  11.296
17424W        W21492   6.445   0.735  14.387
17425W        W21493   3.811   0.527  13.512
17426W        W21494   3.910   3.146  14.533
17427W        W21495   5.432   2.536  11.265
17428W        W21496   3.864   1.319  12.958
17429W        W21497   4.757   1.210  14.195
17430W        W21498   7.216   1.069  12.694
17431W        W21499   6.980   2.112  13.553
17432W        W21500   5.288   1.445  12.580
17433W        W21501   5.834   2.784  12.949
17434W        W21502   4.334   2.218  13.181
17435W        W21503   3.693   1.746  12.752
17436W        W21504   4.729   1.718  13.944
17437W        W21505   7.000   1.501  14.198
17438W        W21506   4.616   2.945  12.643
17439W        W21507   5.737   2.634  13.777
17440W        W21508   4.957   1.274  13.002
17441W        W21509   5.249   2.058  12.645
17442W        W21510   6.246   2.831  14.493
17443W        W21511   5.325   2.151  14.503
17444W        W21512   5.306   1.867  13.981
17445W        W21513   3.715   1.258  14.503
17446W        W21514   6.547   2.793  14.102
17447W        W21515   4.128   0.375  12.100
17448W        W21516   4.655   2.633  13.099
17449W        W21517   7.118   2.416  12.389
17450W        W21518   6.531   0.816  12.956
17451W        W21519   6.816   0.769  11.051
17452W        W21520   7.281   1.570  13.357
17453W        W21521   5.248   3.277  13.110
17454W        W21522   7.022   2.743  11.548
17455W        W21523   4.151   3.529  11.302
17456W        W21524   4.544   3.575  11.978
17457W        W21525   4.341   0.329  13.404
17458W        W21526   6.964   1.347  13.679
17459W        W21527   6.369   1.769  12.138
17460W        W21528   6.335   1.457  11.165
17461W        W21529   5.543   2.601  13.305
17462W        W21530   5.349   0.931  12.504
17463W        W21531   5.949   3.018  13.498
17464W        W21532   6.820   1.809  11.920
17465W        W21533   5.722   0.467  11.936
17466W        W21534   4.379   3.161  11.619
17467W        W21535   3.750   0.660  12.218
17468W        W21536   6.536   1.267  12.692
17469W        W21537   3.994   2.884  12.607
17470W        W21538   5.335   3.234  11.477
17471W        W21539   6.727   1.260  10.941
17472W        W21540   3.750   3.018  13.105
17473W        W21541   4.541   2.590  13.585
17474W        W21542   4.914   1.950  12.204
17475W        W21543   4.936   0.355  13.297
17476W        W21544   7.165   0.117  12.594
17477W        W21545   4.384   1.989  11.062
17478W        W21546   4.039   1.022  11.241
17479W        W21547   4.101   2.978  12.035
17480W        W21548   5.232   2.461  12.283
17481W        W21549   6.564   3.320  13.997
17482W        W21550   5.490   0.962  11.681
17483W        W21551   6.873   3.360  12.453
17484W        W21552   6.550   1.213  14.051
17485W        W21553   7.263   2.869  12.185
17486W        W21554   5.890   2.161  13.669
17487W        W21555   3.656   1.712  11.875
17488W        W21556   4.767   2.127  13.448
17489W        W21557   5.971   1.391  11.826
17490W        W21558   5.848   1.881  11.930
17491W        W21559   4.191   1.301  13.404
17492W        W21560   4.176   1.177  14.326
17493W        W21561   4.066   0.094  12.485
17494W        W21562   5.834   0.441  13.046
17495W        W21563   5.482   0.626  14.209
17496W        W21564   5.837   0.775  11.387
17497W        W21565   7.020   3.168  14.141
17498W        W21566   5.987   0.249  14.180
17499W        W21567   7.006   2.550  14.302
17500W        W21568   6.436   0.717  13.898
17501W        W21569   6.236   0.655  12.168
17502W        W21570   6.629   1.789  14.572
17503W        W21571   4.369   3.365  12.558
17504W        W21572   5.027   1.082  11.544
17505W        W21573   4.596   0.366  14.208
17506W        W21574   6.648   0.850  11.889
17507W        W21575   7.015   1.332  11.834
17508W        W21576   4.758   3.549  14.305
17509W        W21577   4.684   0.085  11.540
17510W        W21578   7.005   0.619  12.575
17511W        W21579   7.155   2.868  11.020
17512W        W21580   4.062   2.071  12.722
17513W        W21581   5.979   0.658  10.952
17514W        W21582   7.113   2.990  12.672
17515W        W21583   7.152   0.184  13.422
17516W        W21584   5.597   1.396  13.976
17517W        W21585   5.690   2.735  11.679
17518W        W21586   6.090   2.029  14.419
17519W        W21587   5.764   0.006  12.728
17520W        W21588   4.376   0.909  12.791
17521W        W21589   3.930   2.109  13.565
17522W        W21590   5.789   3.302  12.271
17523W        W21591   6.983   0.899  13.143
17524W        W21592   5.620   3.246  13.910
17525W        W21593   6.963   2.305  11.115
17526W        W21594   5.398   1.788  12.176
17527W        W21595   7.250   0.299  13.917
17528W        W21596   5.399   2.134  13.511
17529W        W21597   5.616   1.020  12.956
17530W        W21598   6.468   1.318  11.794
17531W        W21599   6.755   1.051  11.436
17532W        W21600   6.564   3.091  11.825
17533W        W21601   6.398   2.694  12.621
17534W        W21602   6.294   1.773  11.599
17535W        W21603   5.727   1.983  12.585
17536W        W21604   6.608   1.771  12.652
17537W        W21605   3.983   0.786  13.076
17538W        W21606   6.761   1.838  13.903
17539W        W21607   7.112   3.456  13.049
17540W        W21608   5.042   2.900  12.451
17541W        W21609   6.049   3.433  13.775
17542W        W21610   6.043   0.763  13.539
17543W        W21611   5.250   3.471  13.600
17544W        W21612   6.947   0.425  12.066
17545W        W21613   6.738   1.744  13.367
17546W        W21614   3.721   1.065  13.405
17547W        W21615   6.581   0.860  12.423
17548W        W21616   6.992   1.011  14.200
17549W        W21617   5.877   2.710  12.418
17550W        W21618   5.133   3.301  12.031
17551W        W21619   4.248   0.481  11.289
17552W        W21620   5.352   0.135  13.099
17553W        W21621   4.380   3.255  10.947
17554W        W21622   4.754   1.721  11.698
17555W        W21623   5.408   2.350  14.011
17556W        W21624   5.238   0.708  12.001
17557W        W21625   6.594   0.305  12.429
17558W        W21626   6.314   3.587  12.757
17559W        W21627   5.726   3.235  13.097
17560W        W21628   5.122   2.272  13.058
17561W        W21629   6.892   2.995  13.184
17562W        W21630   4.586   0.498  11.953
17563W        W21631   5.108   2.795  12.913
17564W        W21632   4.591   0.726  10.978
17565W        W21633   5.392   1.335  13.372
17566W        W21634   6.240   0.201  13.242
17567W        W21635   3.660   2.044  13.127
17568W        W21636   5.364   1.862  11.285
17569W        W21637   4.632   0.177  11.055
17570W        W21638   5.370   1.258  12.106
17571W        W21639   6.340   0.234  13.805
17572W        W21640   4.928   2.246  13.914
17573W        W21641   5.732   2.028  14.131
17574W        W21642   6.349   2.058  14.024
17575W        W21643   5.633   0.198  14.529
17576W        W21644   4.855   0.814  12.922
17577W        W21645   4.281   0.770  12.320
17578W        W21646   4.067   3.482  11.996
17579W        W21647   5.399   2.812  14.121
17580W        W21648   4.434   2.297  11.480
17581W        W21649   6.114   1.682  12.701
17582W        W21650   6.394   1.481  13.100
17583W        W21651   5.599   2.155  13.034
17584W        W21652   6.069   2.529  11.166
17585W        W21653   5.741   0.550  12.494
17586W        W21654   7.220   0.828  11.762
17587W        W21655   3.714   3.417  13.793
17588W        W21656   4.131   2.643  13.325
17589W        W21657   3.698   3.489  11.557
17590W        W21658   5.597   0.759  13.363
17591W        W21659   4.960   2.782  11.212
17592W        W21660   6.865   3.164  11.398
17593W        W21661   5.840   1.817  11.412
17594W        W21662   4.683   1.008  11.929
17595W        W21663   5.515   0.918  10.981
17596W        W21664   6.099   2.483  14.159
17597W        W21665   6.452   0.389  11.776
17598W        W21666   3.782   0.237  11.224
17599W        W21667   5.068   2.556  13.514
17600W        W21668   4.867   2.472  12.606
17601W        W21669   4.609   2.424  11.004
17602W        W21670   3.850   2.665  11.772
17603W        W21671   4.354   1.735  14.214
17604W        W21672   5.058   0.295  14.400
17605W        W21673   5.767   0.437  13.756
17606W        W21674   4.962   0.205  12.037
17607W        W21675   6.021   0.282  11.542
17608W        W21676   3.966   0.214  13.119
17609W        W21677   4.014   1.177  12.489
17610W        W21678   6.703   0.285  12.895
17611W        W21679   4.125   0.783  11.709
17612W        W21680   6.696   0.471  13.325
17613W        W21681   7.092   1.674  11.010
17614W        W21682   4.384   0.432  12.829
17615W        W21683   5.498   1.004  13.769
17616W        W21684   3.646   0.694  11.247
17617W        W21685   4.432   2.083  13.808
17618W        W21686   5.790   1.481  12.987
17619W        W21687   5.657   3.560  11.283
17620W        W21688   3.803   2.067  10.980
17621W        W21689   4.538   2.478  14.106
17622W        W21690   4.059   1.645  13.737
17623W        W21691   5.050   1.750  13.531
17624W        W21692   6.818   0.109  13.793
17625W        W21693   7.216   1.719  13.784
17626W        W21694   7.204   1.919  11.470
17627W        W21695   6.067   2.251  11.569
17628W        W21696   6.541   3.551  11.264
17629W        W21697   5.718   1.541  14.406
17630W        W21698   4.048   2.508  14.446
17631W        W21699   7.254   0.430  14.398
17632W        W21700   6.972   1.358  13.019
17633W        W21701   5.280   3.488  14.496
17634W        W21702   5.135   0.117  11.223
17635W        W21703   6.674   2.716  11.166
17636W        W21704   4.443   0.809  14.052
17637W        W21705   4.877   2.803  13.914
17638W        W21706   7.003   0.794  13.712
17639W        W21707   6.214   3.453  11.680
17640W        W21708   6.453   2.072  13.047
17641W        W21709   4.703   0.488  13.714
17642W        W21710   5.172   1.557  14.471
17643W        W21711   4.675   2.736  11.665
17644W        W21712   6.430   2.234  11.929
17645W        W21713   4.198   0.860  13.653
17646W        W21714   5.527   2.922  12.117
17647W        W21715   7.277   1.482  12.298
17648W        W21716   5.499   0.115  14.017
17649W        W21717   6.279   2.820  13.096
17650W        W21718   6.582   3.164  12.804
17651W        W21719   5.801   2.966  11.232
17652W        W21720   3.811   2.858  14.074
17653W        W21721   4.554   0.850  13.312
17654W        W21722   4.524   0.198  12.422
17655W        W21723   6.145   1.040  13.114
17656W        W21724   4.943   2.211  11.314
17657W        W21725   6.941   2.153  12.813
17658W        W21726   4.268   2.911  14.236
17659W        W21727   6.655   3.593  12.033
17660W        W21728   4.754   0.613  12.478
17661W        W21729   4.523   2.106  12.568
17662W        W21730   4.836   3.517  13.318
17663W        W21731   6.903   3.613  14.350
17664W        W21732   6.062   1.801  13.283
17665W        W21733   3.911   1.599  11.198
17666W        W21734   7.045   3.257  11.895
17667W        W21735   6.882   0.581  11.514
17668W        W21736   5.021   0.100  13.917
17669W        W21737   6.727   2.902  12.375
17670W        W21738   6.756   1.458  12.280
17671W        W21739   4.873   1.131  12.496
17672W        W21740   5.118   1.393  13.820
17673W        W21741   6.229   2.546  13.683
17674W        W21742   4.879   1.000  13.795
17675W        W21743   4.858   3.466  12.411
17676W        W21744   4.175   3.425  14.045
17677W        W21745   4.287   2.786  11.175
17678W        W21746   6.804   2.544  11.985
17679W        W21747   4.408   1.336  13.871
17680W        W21748   7.181   1.266  11.352
17681W        W21749   4.926   2.323  11.823
17682W        W21750   6.025   1.705  13.904
17683W        W21751   5.916   1.333  13.448
17684W        W21752   4.476   1.705  13.477
17685W        W21753   6.686   3.593  13.306
17686W        W21754   6.477   0.227  14.300
17687W        W21755   4.141   0.377  13.887
17688W        W21756   4.480   1.400  12.940
17689W        W21757   4.849   1.214  11.062
17690W        W21758   3.652   2.973  13.607
17691W        W21759   5.237   1.682  13.050
17692W        W21760   5.060   0.707  11.155
17693W        W21761   4.195   1.523  11.936
17694W        W21762   3.966   3.375  13.373
17695W        W21763   6.761   1.601  11.481
17696W        W21764   6.856   0.517  14.167
17697W        W21765   6.292   2.726  12.130
17698W        W21766   3.890   1.650  14.307
17699W        W21767   6.856   0.114  11.603
17700W        W21768   6.376   2.589  11.614
17701W        W21769   5.278   1.647  11.699
17702W        W21770   6.465   0.451  11.222
17703W        W21771   6.530   1.058  13.408
17704W        W21772   4.239   1.651  12.615
17705W        W21773   4.533   2.590  12.264
17706W        W21774   6.296   1.210  12.229
17707W        W21775   5.319   0.589  12.925
17708W        W21776   7.281   2.500  13.436
17709W        W21777   7.199   0.487  12.997
17710W        W21778   3.738   3.317  12.373
17711W        W21779   4.247   2.504  11.909
17712W        W21780   4.162   0.121  14.462
17713W        W21781   5.281   2.974  14.564
17714W        W21782   7.036   1.942  12.354
17715W        W21783   6.390   2.119  11.234
17716W        W21784   5.685   3.640  13.446
17717W        W21785   6.542   2.362  14.483
17718W        W21786   5.357   0.072  11.763
17719W        W21787   6.070   0.941  12.622
17720W        W21788   3.756   2.528  12.954
17721W        W21789   5.009   0.490  11.595
17722W        W21790   4.813   1.974  14.444
17723W        W21791   5.807   0.955  12.158
17724W        W21792   6.012   2.365  13.280
17725W        W21793   4.166   2.970  13.715
17726W        W21794   4.757   2.953  14.438
17727W        W21795   4.608   0.750  11.452
17728W        W21796   6.125   0.892  11.777
17729W        W21797   6.083   3.000  14.014
17730W        W21798   4.768   1.592  12.613
17731W        W21799   4.423   3.290  13.478
17732W        W21800   7.168   3.407  11.079
17733W        W21801   4.031   2.079  14.075
17734W        W21802   6.026   2.341  12.763
17735W        W21803   4.462   1.990  12.005
17736W        W21804   4.833   2.997  13.400
17737W        W21805   5.211   0.416  12.441
17738W        W21806   3.822   2.400  11.371
17739W        W21807   5.341   1.351  11.241
17740W        W21808   3.987   1.900  12.260
17741W        W21809   5.277   0.542  13.724
17742W        W21810   6.949   0.251  11.151
17743W        W21811   7.042   1.997  14.250
17744W        W21812   5.696   3.254  14.402
17745W        W21813   7.254   2.348  13.924
17746W        W21814   6.662   3.146  14.535
17747W        W21815   4.401   3.602  13.013
17748W        W21816   7.260   2.224  11.887
17749W        W21817   5.790   1.491  12.400
17750W        W21818   5.557   0.103  12.290
17751W        W21819   4.616   3.087  12.127
17752W        W21820   5.115   0.828  13.352
17753W        W21821   4.815   0.197  12.821
17754W        W21822   3.878   3.019  11.369
17755W        W21823   5.694   2.383  12.087
17756W        W21824   4.569   3.178  13.966
17757W        W21825   4.046   2.001  11.662
17758W        W21826   3.931   0.544  12.661
17759W        W21827   5.479   2.509  12.718
17760W        W21828   3.731   0.363  11.738
17761W        W21829   6.395   1.569  13.665
17762W        W21830   6.272   0.955  11.237
17763W        W21831   6.789   2.627  12.885
17764W        W21832   5.450   3.111  12.716
17765W        W21833   4.862   3.215  11.627
17766W        W21834   6.144   0.118  11.057
17767W        W21835   3.944   3.378  12.798
17768W        W21836   6.141   1.136  14.433
17769W        W21837   4.124   0.666  14.432
17770W        W21838   3.855   1.266  11.765
17771W        W21839   4.546   1.255  11.490
17772W        W21840   6.309   1.582  14.307
17773W        W21841   4.652   1.863  13.016
17774W        W21842   6.126   0.149  12.136
17775W        W21843   5.257   3.580  12.639
17776W        W21844   6.471   3.042  13.576
17777W        W21845   6.055   3.191  12.687
17778W        W21846   6.074   2.171  12.281
17779W        W21847   5.536   0.396  11.352
17780W        W21848   7.217   0.024  12.074
17781W        W21849   4.905   1.659  11.237
17782W        W21850   7.071   0.996  12.227
17783W        W21851   5.763   2.166  11.104
17784W        W21852   6.699   2.366  13.852
17785W        W21853   6.353   3.067  11.319
17786W        W21854   4.968   0.742  14.225
17787W        W21855   4.788   1.326  13.466
17788W        W21856   6.880   2.821  13.743
17789W        W21857   5.980   0.771  14.120
17790W        W21858   3.824   1.242  13.897
17791W        W21859   5.584   1.719  13.623
17792W        W21860   3.941   2.477  12.280
17793W        W21861   4.088   1.774  13.170
17794W        W21862   6.405   2.060  13.520
17795W        W21863   6.177   3.440  14.331
17796W        W21864   6.073   1.179  13.884
17797W        W21865   6.350   3.233  12.289
17798W        W21866   5.352   2.953  13.612
17799W        W21867   4.837   3.308  12.881
17800W        W21868   6.642   2.479  13.300
17801W        W21869   5.692   2.551  14.437
17802W        W21870   4.297   2.504  12.776
17803W        W21871   6.643   2.263  12.421
17804W        W21872   6.284   3.329  13.172
17805W        W21873   4.262   3.058  13.042
17806W        W21874   5.283   1.110  14.252
17807W        W21875   5.734   3.276  11.763
17808W        W21876   5.042   2.531  14.401
17809W        W21877   5.168   2.769  11.778
17810W        W21878   4.389   1.509  11.037
17811W        W21879   3.728   3.595  17.936
17812W        W21880   4.104   2.488  17.459
17813W        W21881   6.809   2.218  15.229
17814W        W21882   6.939   3.303  17.256
17815W        W21883   4.857   3.294  14.782
17816W        W21884   4.940   1.446  15.765
17817W        W21885   4.455   1.294  15.929
17818W        W21886   5.446   2.109  15.363
17819W        W21887   5.121   3.201  17.718
17820W        W21888   3.770   0.762  17.681
17821W        W21889   4.532   0.042  17.483
17822W        W21890   6.226   0.430  16.370
17823W        W21891   5.875   1.301  14.940
17824W        W21892   6.445   0.735  18.031
17825W        W21893   3.811   0.527  17.156
17826W        W21894   3.910   3.146  18.177
17827W        W21895   5.432   2.536  14.909
17828W        W21896   3.864   1.319  16.602
17829W        W21897   4.757   1.210  17.839
17830W        W21898   7.216   1.069  16.338
17831W        W21899   6.980   2.112  17.197
17832W        W21900   5.288   1.445  16.224
17833W        W21901   5.834   2.784  16.593
17834W        W21902   4.334   2.218  16.825
17835W        W21903   3.693   1.746  16.396
17836W        W21904   4.729   1.718  17.588
17837W        W21905   7.000   1.501  17.842
17838W        W21906   4.616   2.945  16.287
17839W        W21907   5.737   2.634  17.421
17840W        W21908   4.957   1.274  16.646
17841W        W21909   5.249   2.058  16.289
17842W        W21910   6.246   2.831  18.137
17843W        W21911   5.325   2.151  18.147
17844W        W21912   5.306   1.867  17.625
17845W        W21913   3.715   1.258  18.147
17846W        W21914   6.547   2.793  17.746
17847W        W21915   4.128   0.375  15.744
17848W        W21916   4.655   2.633  16.743
17849W        W21917   7.118   2.416  16.033
17850W        W21918   6.531   0.816  16.600
17851W        W21919   6.816   0.769  14.695
17852W        W21920   7.281   1.570  17.001
17853W        W21921   5.248   3.277  16.754
17854W        W21922   7.022   2.743  15.192
17855W        W21923   4.151   3.529  14.946
17856W        W21924   4.544   3.575  15.622
17857W        W21925   4.341   0.329  17.048
17858W        W21926   6.964   1.347  17.323
17859W        W21927   6.369   1.769  15.782
17860W        W21928   6.335   1.457  14.809
17861W        W21929   5.543   2.601  16.949
17862W        W21930   5.349   0.931  16.148
17863W        W21931   5.949   3.018  17.142
17864W        W21932   6.820   1.809  15.564
17865W        W21933   5.722   0.467  15.580
17866W        W21934   4.379   3.161  15.263
17867W        W21935   3.750   0.660  15.862
17868W        W21936   6.536   1.267  16.336
17869W        W21937   3.994   2.884  16.251
17870W        W21938   5.335   3.234  15.121
17871W        W21939   6.727   1.260  14.585
17872W        W21940   3.750   3.018  16.749
17873W        W21941   4.541   2.590  17.229
17874W        W21942   4.914   1.950  15.848
17875W        W21943   4.936   0.355  16.941
17876W        W21944   7.165   0.117  16.238
17877W        W21945   4.384   1.989  14.706
17878W        W21946   4.039   1.022  14.885
17879W        W21947   4.101   2.978  15.679
17880W        W21948   5.232   2.461  15.927
17881W        W21949   6.564   3.320  17.641
17882W        W21950   5.490   0.962  15.325
17883W        W21951   6.873   3.360  16.097
17884W        W21952   6.550   1.213  17.695
17885W        W21953   7.263   2.869  15.829
17886W        W21954   5.890   2.161  17.313
17887W        W21955   3.656   1.712  15.519
17888W        W21956   4.767   2.127  17.092
17889W        W21957   5.971   1.391  15.470
17890W        W21958   5.848   1.881  15.574
17891W        W21959   4.191   1.301  17.048
17892W        W21960   4.176   1.177  17.970
17893W        W21961   4.066   0.094  16.129
17894W        W21962   5.834   0.441  16.690
17895W        W21963   5.482   0.626  17.853
17896W        W21964   5.837   0.775  15.031
17897W        W21965   7.020   3.168  17.785
17898W        W21966   5.987   0.249  17.824
17899W        W21967   7.006   2.550  17.946
17900W        W21968   6.436   0.717  17.542
17901W        W21969   6.236   0.655  15.812
17902W        W21970   6.629   1.789  18.216
17903W        W21971   4.369   3.365  16.202
17904W        W21972   5.027   1.082  15.188
17905W        W21973   4.596   0.366  17.852
17906W        W21974   6.648   0.850  15.533
17907W        W21975   7.015   1.332  15.478
17908W        W21976   4.758   3.549  17.949
17909W        W21977   4.684   0.085  15.184
17910W        W21978   7.005   0.619  16.219
17911W        W21979   7.155   2.868  14.664
17912W        W21980   4.062   2.071  16.366
17913W        W21981   5.979   0.658  14.596
17914W        W21982   7.113   2.990  16.316
17915W        W21983   7.152   0.184  17.066
17916W        W21984   5.597   1.396  17.620
17917W        W21985   5.690   2.735  15.323
17918W        W21986   6.090   2.029  18.063
17919W        W21987   5.764   0.006  16.372
17920W        W21988   4.376   0.909  16.435
17921W        W21989   3.930   2.109  17.209
17922W        W21990   5.789   3.302  15.915
17923W        W21991   6.983   0.899  16.787
17924W        W21992   5.620   3.246  17.554
17925W        W21993   6.963   2.305  14.759
17926W        W21994   5.398   1.788  15.820
17927W        W21995   7.250   0.299  17.561
17928W        W21996   5.399   2.134  17.155
17929W        W21997   5.616   1.020  16.600
17930W        W21998   6.468   1.318  15.438
17931W        W21999   6.755   1.051  15.080
17932W        W22000   6.564   3.091  15.469
17933W        W22001   6.398   2.694  16.265
17934W        W22002   6.294   1.773  15.243
17935W        W22003   5.727   1.983  16.229
17936W        W22004   6.608   1.771  16.296
17937W        W22005   3.983   0.786  16.720
17938W        W22006   6.761   1.838  17.547
17939W        W22007   7.112   3.456  16.693
17940W        W22008   5.042   2.900  16.095
17941W        W22009   6.049   3.433  17.419
17942W        W22010   6.043   0.763  17.183
17943W        W22011   5.250   3.471  17.244
17944W        W22012   6.947   0.425  15.710
17945W        W22013   6.738   1.744  17.011
17946W        W22014   3.721   1.065  17.049
17947W        W22015   6.581   0.860  16.067
17948W        W22016   6.992   1.011  17.844
17949W        W22017   5.877   2.710  16.062
17950W        W22018   5.133   3.301  15.675
17951W        W22019   4.248   0.481  14.933
17952W        W22020   5.352   0.135  16.743
17953W        W22021   4.380   3.255  14.591
17954W        W22022   4.754   1.721  15.342
17955W        W22023   5.408   2.350  17.655
17956W        W22024   5.238   0.708  15.645
17957W        W22025   6.594   0.305  16.073
17958W        W22026   6.314   3.587  16.401
17959W        W22027   5.726   3.235  16.741
17960W        W22028   5.122   2.272  16.702
17961W        W22029   6.892   2.995  16.828
17962W        W22030   4.586   0.498  15.597
17963W        W22031   5.108   2.795  16.557
17964W        W22032   4.591   0.726  14.622
17965W        W22033   5.392   1.335  17.016
17966W        W22034   6.240   0.201  16.886
17967W        W22035   3.660   2.044  16.771
17968W        W22036   5.364   1.862  14.929
17969W        W22037   4.632   0.177  14.699
17970W        W22038   5.370   1.258  15.750
17971W        W22039   6.340   0.234  17.449
17972W        W22040   4.928   2.246  17.558
17973W        W22041   5.732   2.028  17.775
17974W        W22042   6.349   2.058  17.668
17975W        W22043   5.633   0.198  18.173
17976W        W22044   4.855   0.814  16.566
17977W        W22045   4.281   0.770  15.964
17978W        W22046   4.067   3.482  15.640
17979W        W22047   5.399   2.812  17.765
17980W        W22048   4.434   2.297  15.124
17981W        W22049   6.114   1.682  16.345
17982W        W22050   6.394   1.481  16.744
17983W        W22051   5.599   2.155  16.678
17984W        W22052   6.069   2.529  14.810
17985W        W22053   5.741   0.550  16.138
17986W        W22054   7.220   0.828  15.406
17987W        W22055   3.714   3.417  17.437
17988W        W22056   4.131   2.643  16.969
17989W        W22057   3.698   3.489  15.201
17990W        W22058   5.597   0.759  17.007
17991W        W22059   4.960   2.782  14.856
17992W        W22060   6.865   3.164  15.042
17993W        W22061   5.840   1.817  15.056
17994W        W22062   4.683   1.008  15.573
17995W        W22063   5.515   0.918  14.625
17996W        W22064   6.099   2.483  17.803
17997W        W22065   6.452   0.389  15.420
17998W        W22066   3.782   0.237  14.868
17999W        W22067   5.068   2.556  17.158
18000W        W22068   4.867   2.472  16.250
18001W        W22069   4.609   2.424  14.648
18002W        W22070   3.850   2.665  15.416
18003W        W22071   4.354   1.735  17.858
18004W        W22072   5.058   0.295  18.044
18005W        W22073   5.767   0.437  17.400
18006W        W22074   4.962   0.205  15.681
18007W        W22075   6.021   0.282  15.186
18008W        W22076   3.966   0.214  16.763
18009W        W22077   4.014   1.177  16.133
18010W        W22078   6.703   0.285  16.539
18011W        W22079   4.125   0.783  15.353
18012W        W22080   6.696   0.471  16.969
18013W        W22081   7.092   1.674  14.654
18014W        W22082   4.384   0.432  16.473
18015W        W22083   5.498   1.004  17.413
18016W        W22084   3.646   0.694  14.891
18017W        W22085   4.432   2.083  17.452
18018W        W22086   5.790   1.481  16.631
18019W        W22087   5.657   3.560  14.927
18020W        W22088   3.803   2.067  14.624
18021W        W22089   4.538   2.478  17.750
18022W        W22090   4.059   1.645  17.381
18023W        W22091   5.050   1.750  17.175
18024W        W22092   6.818   0.109  17.437
18025W        W22093   7.216   1.719  17.428
18026W        W22094   7.204   1.919  15.114
18027W        W22095   6.067   2.251  15.213
18028W        W22096   6.541   3.551  14.908
18029W        W22097   5.718   1.541  18.050
18030W        W22098   4.048   2.508  18.090
18031W        W22099   7.254   0.430  18.042
18032W        W22100   6.972   1.358  16.663
18033W        W22101   5.280   3.488  18.140
18034W        W22102   5.135   0.117  14.867
18035W        W22103   6.674   2.716  14.810
18036W        W22104   4.443   0.809  17.696
18037W        W22105   4.877   2.803  17.558
18038W        W22106   7.003   0.794  17.356
18039W        W22107   6.214   3.453  15.324
18040W        W22108   6.453   2.072  16.691
18041W        W22109   4.703   0.488  17.358
18042W        W22110   5.172   1.557  18.115
18043W        W22111   4.675   2.736  15.309
18044W        W22112   6.430   2.234  15.573
18045W        W22113   4.198   0.860  17.297
18046W        W22114   5.527   2.922  15.761
18047W        W22115   7.277   1.482  15.942
18048W        W22116   5.499   0.115  17.661
18049W        W22117   6.279   2.820  16.740
18050W        W22118   6.582   3.164  16.448
18051W        W22119   5.801   2.966  14.876
18052W        W22120   3.811   2.858  17.718
18053W        W22121   4.554   0.850  16.956
18054W        W22122   4.524   0.198  16.066
18055W        W22123   6.145   1.040  16.758
18056W        W22124   4.943   2.211  14.958
18057W        W22125   6.941   2.153  16.457
18058W        W22126   4.268   2.911  17.880
18059W        W22127   6.655   3.593  15.677
18060W        W22128   4.754   0.613  16.122
18061W        W22129   4.523   2.106  16.212
18062W        W22130   4.836   3.517  16.962
18063W        W22131   6.903   3.613  17.994
18064W        W22132   6.062   1.801  16.927
18065W        W22133   3.911   1.599  14.842
18066W        W22134   7.045   3.257  15.539
18067W        W22135   6.882   0.581  15.158
18068W        W22136   5.021   0.100  17.561
18069W        W22137   6.727   2.902  16.019
18070W        W22138   6.756   1.458  15.924
18071W        W22139   4.873   1.131  16.140
18072W        W22140   5.118   1.393  17.464
18073W        W22141   6.229   2.546  17.327
18074W        W22142   4.879   1.000  17.439
18075W        W22143   4.858   3.466  16.055
18076W        W22144   4.175   3.425  17.689
18077W        W22145   4.287   2.786  14.819
18078W        W22146   6.804   2.544  15.629
18079W        W22147   4.408   1.336  17.515
18080W        W22148   7.181   1.266  14.996
18081W        W22149   4.926   2.323  15.467
18082W        W22150   6.025   1.705  17.548
18083W        W22151   5.916   1.333  17.092
18084W        W22152   4.476   1.705  17.121
18085W        W22153   6.686   3.593  16.950
18086W        W22154   6.477   0.227  17.944
18087W        W22155   4.141   0.377  17.531
18088W        W22156   4.480   1.400  16.584
18089W        W22157   4.849   1.214  14.706
18090W        W22158   3.652   2.973  17.251
18091W        W22159   5.237   1.682  16.694
18092W        W22160   5.060   0.707  14.799
18093W        W22161   4.195   1.523  15.580
18094W        W22162   3.966   3.375  17.017
18095W        W22163   6.761   1.601  15.125
18096W        W22164   6.856   0.517  17.811
18097W        W22165   6.292   2.726  15.774
18098W        W22166   3.890   1.650  17.951
18099W        W22167   6.856   0.114  15.247
18100W        W22168   6.376   2.589  15.258
18101W        W22169   5.278   1.647  15.343
18102W        W22170   6.465   0.451  14.866
18103W        W22171   6.530   1.058  17.052
18104W        W22172   4.239   1.651  16.259
18105W        W22173   4.533   2.590  15.908
18106W        W22174   6.296   1.210  15.873
18107W        W22175   5.319   0.589  16.569
18108W        W22176   7.281   2.500  17.080
18109W        W22177   7.199   0.487  16.641
18110W        W22178   3.738   3.317  16.017
18111W        W22179   4.247   2.504  15.553
18112W        W22180   4.162   0.121  18.106
18113W        W22181   5.281   2.974  18.208
18114W        W22182   7.036   1.942  15.998
18115W        W22183   6.390   2.119  14.878
18116W        W22184   5.685   3.640  17.090
18117W        W22185   6.542   2.362  18.127
18118W        W22186   5.357   0.072  15.407
18119W        W22187   6.070   0.941  16.266
18120W        W22188   3.756   2.528  16.598
18121W        W22189   5.009   0.490  15.239
18122W        W22190   4.813   1.974  18.088
18123W        W22191   5.807   0.955  15.802
18124W        W22192   6.012   2.365  16.924
18125W        W22193   4.166   2.970  17.359
18126W        W22194   4.757   2.953  18.082
18127W        W22195   4.608   0.750  15.096
18128W        W22196   6.125   0.892  15.421
18129W        W22197   6.083   3.000  17.658
18130W        W22198   4.768   1.592  16.257
18131W        W22199   4.423   3.290  17.122
18132W        W22200   7.168   3.407  14.723
18133W        W22201   4.031   2.079  17.719
18134W        W22202   6.026   2.341  16.407
18135W        W22203   4.462   1.990  15.649
18136W        W22204   4.833   2.997  17.044
18137W        W22205   5.211   0.416  16.085
18138W        W22206   3.822   2.400  15.015
18139W        W22207   5.341   1.351  14.885
18140W        W22208   3.987   1.900  15.904
18141W        W22209   5.277   0.542  17.368
18142W        W22210   6.949   0.251  14.795
18143W        W22211   7.042   1.997  17.894
18144W        W22212   5.696   3.254  18.046
18145W        W22213   7.254   2.348  17.568
18146W        W22214   6.662   3.146  18.179
18147W        W22215   4.401   3.602  16.657
18148W        W22216   7.260   2.224  15.531
18149W        W22217   5.790   1.491  16.044
18150W        W22218   5.557   0.103  15.934
18151W        W22219   4.616   3.087  15.771
18152W        W22220   5.115   0.828  16.996
18153W        W22221   4.815   0.197  16.465
18154W        W22222   3.878   3.019  15.013
18155W        W22223   5.694   2.383  15.731
18156W        W22224   4.569   3.178  17.610
18157W        W22225   4.046   2.001  15.306
18158W        W22226   3.931   0.544  16.305
18159W        W22227   5.479   2.509  16.362
18160W        W22228   3.731   0.363  15.382
18161W        W22229   6.395   1.569  17.309
18162W        W22230   6.272   0.955  14.881
18163W        W22231   6.789   2.627  16.529
18164W        W22232   5.450   3.111  16.360
18165W        W22233   4.862   3.215  15.271
18166W        W22234   6.144   0.118  14.701
18167W        W22235   3.944   3.378  16.442
18168W        W22236   6.141   1.136  18.077
18169W        W22237   4.124   0.666  18.076
18170W        W22238   3.855   1.266  15.409
18171W        W22239   4.546   1.255  15.134
18172W        W22240   6.309   1.582  17.951
18173W        W22241   4.652   1.863  16.660
18174W        W22242   6.126   0.149  15.780
18175W        W22243   5.257   3.580  16.283
18176W        W22244   6.471   3.042  17.220
18177W        W22245   6.055   3.191  16.331
18178W        W22246   6.074   2.171  15.925
18179W        W22247   5.536   0.396  14.996
18180W        W22248   7.217   0.024  15.718
18181W        W22249   4.905   1.659  14.881
18182W        W22250   7.071   0.996  15.871
18183W        W22251   5.763   2.166  14.748
18184W        W22252   6.699   2.366  17.496
18185W        W22253   6.353   3.067  14.963
18186W        W22254   4.968   0.742  17.869
18187W        W22255   4.788   1.326  17.110
18188W        W22256   6.880   2.821  17.387
18189W        W22257   5.980   0.771  17.764
18190W        W22258   3.824   1.242  17.541
18191W        W22259   5.584   1.719  17.267
18192W        W22260   3.941   2.477  15.924
18193W        W22261   4.088   1.774  16.814
18194W        W22262   6.405   2.060  17.164
18195W        W22263   6.177   3.440  17.975
18196W        W22264   6.073   1.179  17.528
18197W        W22265   6.350   3.233  15.933
18198W        W22266   5.352   2.953  17.256
18199W        W22267   4.837   3.308  16.525
18200W        W22268   6.642   2.479  16.944
18201W        W22269   5.692   2.551  18.081
18202W        W22270   4.297   2.504  16.420
18203W        W22271   6.643   2.263  16.065
18204W        W22272   6.284   3.329  16.816
18205W        W22273   4.262   3.058  16.686
18206W        W22274   5.283   1.110  17.896
18207W        W22275   5.734   3.276  15.407
18208W        W22276   5.042   2.531  18.045
18209W        W22277   5.168   2.769  15.422
18210W        W22278   4.389   1.509  14.681
18211W        W22279   3.728   3.595  21.580
18212W        W22280   4.104   2.488  21.103
18213W        W22281   6.809   2.218  18.873
18214W        W22282   6.939   3.303  20.900
18215W        W22283   4.857   3.294  18.426
18216W        W22284   4.940   1.446  19.409
18217W        W22285   4.455   1.294  19.573
18218W        W22286   5.446   2.109  19.007
18219W        W22287   5.121   3.201  21.362
18220W        W22288   3.770   0.762  21.325
18221W        W22289   4.532   0.042  21.127
18222W        W22290   6.226   0.430  20.014
18223W        W22291   5.875   1.301  18.584
18224W        W22292   6.445   0.735  21.675
18225W        W22293   3.811   0.527  20.800
18226W        W22294   3.910   3.146  21.821
18227W        W22295   5.432   2.536  18.553
18228W        W22296   3.864   1.319  20.246
18229W        W22297   4.757   1.210  21.483
18230W        W22298   7.216   1.069  19.982
18231W        W22299   6.980   2.112  20.841
18232W        W22300   5.288   1.445  19.868
18233W        W22301   5.834   2.784  20.237
18234W        W22302   4.334   2.218  20.469
18235W        W22303   3.693   1.746  20.040
18236W        W22304   4.729   1.718  21.232
18237W        W22305   7.000   1.501  21.486
18238W        W22306   4.616   2.945  19.931
18239W        W22307   5.737   2.634  21.065
18240W        W22308   4.957   1.274  20.290
18241W        W22309   5.249   2.058  19.933
18242W        W22310   6.246   2.831  21.781
18243W        W22311   5.325   2.151  21.791
18244W        W22312   5.306   1.867  21.269
18245W        W22313   3.715   1.258  21.791
18246W        W22314   6.547   2.793  21.390
18247W        W22315   4.128   0.375  19.388
18248W        W22316   4.655   2.633  20.387
18249W        W22317   7.118   2.416  19.677
18250W        W22318   6.531   0.816  20.244
18251W        W22319   6.816   0.769  18.339
18252W        W22320   7.281   1.570  20.645
18253W        W22321   5.248   3.277  20.398
18254W        W22322   7.022   2.743  18.836
18255W        W22323   4.151   3.529  18.590
18256W        W22324   4.544   3.575  19.266
18257W        W22325   4.341   0.329  20.692
18258W        W22326   6.964   1.347  20.967
18259W        W22327   6.369   1.769  19.426
18260W        W22328   6.335   1.457  18.453
18261W        W22329   5.543   2.601  20.593
18262W        W22330   5.349   0.931  19.792
18263W        W22331   5.949   3.018  20.786
18264W        W22332   6.820   1.809  19.208
18265W        W22333   5.722   0.467  19.224
18266W        W22334   4.379   3.161  18.907
18267W        W22335   3.750   0.660  19.506
18268W        W22336   6.536   1.267  19.980
18269W        W22337   3.994   2.884  19.895
18270W        W22338   5.335   3.234  18.765
18271W        W22339   6.727   1.260  18.229
18272W        W22340   3.750   3.018  20.393
18273W        W22341   4.541   2.590  20.873
18274W        W22342   4.914   1.950  19.492
18275W        W22343   4.936   0.355  20.585
18276W        W22344   7.165   0.117  19.882
18277W        W22345   4.384   1.989  18.350
18278W        W22346   4.039   1.022  18.529
18279W        W22347   4.101   2.978  19.323
18280W        W22348   5.232   2.461  19.571
18281W        W22349   6.564   3.320  21.285
18282W        W22350   5.490   0.962  18.969
18283W        W22351   6.873   3.360  19.741
18284W        W22352   6.550   1.213  21.339
18285W        W22353   7.263   2.869  19.473
18286W        W22354   5.890   2.161  20.957
18287W        W22355   3.656   1.712  19.163
18288W        W22356   4.767   2.127  20.736
18289W        W22357   5.971   1.391  19.114
18290W        W22358   5.848   1.881  19.218
18291W        W22359   4.191   1.301  20.692
18292W        W22360   4.176   1.177  21.614
18293W        W22361   4.066   0.094  19.773
18294W        W22362   5.834   0.441  20.334
18295W        W22363   5.482   0.626  21.497
18296W        W22364   5.837   0.775  18.675
18297W        W22365   7.020   3.168  21.429
18298W        W22366   5.987   0.249  21.468
18299W        W22367   7.006   2.550  21.590
18300W        W22368   6.436   0.717  21.186
18301W        W22369   6.236   0.655  19.456
18302W        W22370   6.629   1.789  21.860
18303W        W22371   4.369   3.365  19.846
18304W        W22372   5.027   1.082  18.832
18305W        W22373   4.596   0.366  21.496
18306W        W22374   6.648   0.850  19.177
18307W        W22375   7.015   1.332  19.122
18308W        W22376   4.758   3.549  21.593
18309W        W22377   4.684   0.085  18.828
18310W        W22378   7.005   0.619  19.863
18311W        W22379   7.155   2.868  18.308
18312W        W22380   4.062   2.071  20.010
18313W        W22381   5.979   0.658  18.240
18314W        W22382   7.113   2.990  19.960
18315W        W22383   7.152   0.184  20.710
18316W        W22384   5.597   1.396  21.264
18317W        W22385   5.690   2.735  18.967
18318W        W22386   6.090   2.029  21.707
18319W        W22387   5.764   0.006  20.016
18320W        W22388   4.376   0.909  20.079
18321W        W22389   3.930   2.109  20.853
18322W        W22390   5.789   3.302  19.559
18323W        W22391   6.983   0.899  20.431
18324W        W22392   5.620   3.246  21.198
18325W        W22393   6.963   2.305  18.403
18326W        W22394   5.398   1.788  19.464
18327W        W22395   7.250   0.299  21.205
18328W        W22396   5.399   2.134  20.799
18329W        W22397   5.616   1.020  20.244
18330W        W22398   6.468   1.318  19.082
18331W        W22399   6.755   1.051  18.724
18332W        W22400   6.564   3.091  19.113
18333W        W22401   6.398   2.694  19.909
18334W        W22402   6.294   1.773  18.887
18335W        W22403   5.727   1.983  19.873
18336W        W22404   6.608   1.771  19.940
18337W        W22405   3.983   0.786  20.364
18338W        W22406   6.761   1.838  21.191
18339W        W22407   7.112   3.456  20.337
18340W        W22408   5.042   2.900  19.739
18341W        W22409   6.049   3.433  21.063
18342W        W22410   6.043   0.763  20.827
18343W        W22411   5.250   3.471  20.888
18344W        W22412   6.947   0.425  19.354
18345W        W22413   6.738   1.744  20.655
18346W        W22414   3.721   1.065  20.693
18347W        W22415   6.581   0.860  19.711
18348W        W22416   6.992   1.011  21.488
18349W        W22417   5.877   2.710  19.706
18350W        W22418   5.133   3.301  19.319
18351W        W22419   4.248   0.481  18.577
18352W        W22420   5.352   0.135  20.387
18353W        W22421   4.380   3.255  18.235
18354W        W22422   4.754   1.721  18.986
18355W        W22423   5.408   2.350  21.299
18356W        W22424   5.238   0.708  19.289
18357W        W22425   6.594   0.305  19.717
18358W        W22426   6.314   3.587  20.045
18359W        W22427   5.726   3.235  20.385
18360W        W22428   5.122   2.272  20.346
18361W        W22429   6.892   2.995  20.472
18362W        W22430   4.586   0.498  19.241
18363W        W22431   5.108   2.795  20.201
18364W        W22432   4.591   0.726  18.266
18365W        W22433   5.392   1.335  20.660
18366W        W22434   6.240   0.201  20.530
18367W        W22435   3.660   2.044  20.415
18368W        W22436   5.364   1.862  18.573
18369W        W22437   4.632   0.177  18.343
18370W        W22438   5.370   1.258  19.394
18371W        W22439   6.340   0.234  21.093
18372W        W22440   4.928   2.246  21.202
18373W        W22441   5.732   2.028  21.419
18374W        W22442   6.349   2.058  21.312
18375W        W22443   5.633   0.198  21.817
18376W        W22444   4.855   0.814  20.210
18377W        W22445   4.281   0.770  19.608
18378W        W22446   4.067   3.482  19.284
18379W        W22447   5.399   2.812  21.409
18380W        W22448   4.434   2.297  18.768
18381W        W22449   6.114   1.682  19.989
18382W        W22450   6.394   1.481  20.388
18383W        W22451   5.599   2.155  20.322
18384W        W22452   6.069   2.529  18.454
18385W        W22453   5.741   0.550  19.782
18386W        W22454   7.220   0.828  19.050
18387W        W22455   3.714   3.417  21.081
18388W        W22456   4.131   2.643  20.613
18389W        W22457   3.698   3.489  18.845
18390W        W22458   5.597   0.759  20.651
18391W        W22459   4.960   2.782  18.500
18392W        W22460   6.865   3.164  18.686
18393W        W22461   5.840   1.817  18.700
18394W        W22462   4.683   1.008  19.217
18395W        W22463   5.515   0.918  18.269
18396W        W22464   6.099   2.483  21.447
18397W        W22465   6.452   0.389  19.064
18398W        W22466   3.782   0.237  18.512
18399W        W22467   5.068   2.556  20.802
18400W        W22468   4.867   2.472  19.894
18401W        W22469   4.609   2.424  18.292
18402W        W22470   3.850   2.665  19.060
18403W        W22471   4.354   1.735  21.502
18404W        W22472   5.058   0.295  21.688
18405W        W22473   5.767   0.437  21.044
18406W        W22474   4.962   0.205  19.325
18407W        W22475   6.021   0.282  18.830
18408W        W22476   3.966   0.214  20.407
18409W        W22477   4.014   1.177  19.777
18410W        W22478   6.703   0.285  20.183
18411W        W22479   4.125   0.783  18.997
18412W        W22480   6.696   0.471  20.613
18413W        W22481   7.092   1.674  18.298
18414W        W22482   4.384   0.432  20.117
18415W        W22483   5.498   1.004  21.057
18416W        W22484   3.646   0.694  18.535
18417W        W22485   4.432   2.083  21.096
18418W        W22486   5.790   1.481  20.275
18419W        W22487   5.657   3.560  18.571
18420W        W22488   3.803   2.067  18.268
18421W        W22489   4.538   2.478  21.394
18422W        W22490   4.059   1.645  21.025
18423W        W22491   5.050   1.750  20.819
18424W        W22492   6.818   0.109  21.081
18425W        W22493   7.216   1.719  21.072
18426W        W22494   7.204   1.919  18.758
18427W        W22495   6.067   2.251  18.857
18428W        W22496   6.541   3.551  18.552
18429W        W22497   5.718   1.541  21.694
18430W        W22498   4.048   2.508  21.734
18431W        W22499   7.254   0.430  21.686
18432W        W22500   6.972   1.358  20.307
18433W        W22501   5.280   3.488  21.784
18434W        W22502   5.135   0.117  18.511
18435W        W22503   6.674   2.716  18.454
18436W        W22504   4.443   0.809  21.340
18437W        W22505   4.877   2.803  21.202
18438W        W22506   7.003   0.794  21.000
18439W        W22507   6.214   3.453  18.968
18440W        W22508   6.453   2.072  20.335
18441W        W22509   4.703   0.488  21.002
18442W        W22510   5.172   1.557  21.759
18443W        W22511   4.675   2.736  18.953
18444W        W22512   6.430   2.234  19.217
18445W        W22513   4.198   0.860  20.941
18446W        W22514   5.527   2.922  19.405
18447W        W22515   7.277   1.482  19.586
18448W        W22516   5.499   0.115  21.305
18449W        W22517   6.279   2.820  20.384
18450W        W22518   6.582   3.164  20.092
18451W        W22519   5.801   2.966  18.520
18452W        W22520   3.811   2.858  21.362
18453W        W22521   4.554   0.850  20.600
18454W        W22522   4.524   0.198  19.710
18455W        W22523   6.145   1.040  20.402
18456W        W22524   4.943   2.211  18.602
18457W        W22525   6.941   2.153  20.101
18458W        W22526   4.268   2.911  21.524
18459W        W22527   6.655   3.593  19.321
18460W        W22528   4.754   0.613  19.766
18461W        W22529   4.523   2.106  19.856
18462W        W22530   4.836   3.517  20.606
18463W        W22531   6.903   3.613  21.638
18464W        W22532   6.062   1.801  20.571
18465W        W22533   3.911   1.599  18.486
18466W        W22534   7.045   3.257  19.183
18467W        W22535   6.882   0.581  18.802
18468W        W22536   5.021   0.100  21.205
18469W        W22537   6.727   2.902  19.663
18470W        W22538   6.756   1.458  19.568
18471W        W22539   4.873   1.131  19.784
18472W        W22540   5.118   1.393  21.108
18473W        W22541   6.229   2.546  20.971
18474W        W22542   4.879   1.000  21.083
18475W        W22543   4.858   3.466  19.699
18476W        W22544   4.175   3.425  21.333
18477W        W22545   4.287   2.786  18.463
18478W        W22546   6.804   2.544  19.273
18479W        W22547   4.408   1.336  21.159
18480W        W22548   7.181   1.266  18.640
18481W        W22549   4.926   2.323  19.111
18482W        W22550   6.025   1.705  21.192
18483W        W22551   5.916   1.333  20.736
18484W        W22552   4.476   1.705  20.765
18485W        W22553   6.686   3.593  20.594
18486W        W22554   6.477   0.227  21.588
18487W        W22555   4.141   0.377  21.175
18488W        W22556   4.480   1.400  20.228
18489W        W22557   4.849   1.214  18.350
18490W        W22558   3.652   2.973  20.895
18491W        W22559   5.237   1.682  20.338
18492W        W22560   5.060   0.707  18.443
18493W        W22561   4.195   1.523  19.224
18494W        W22562   3.966   3.375  20.661
18495W        W22563   6.761   1.601  18.769
18496W        W22564   6.856   0.517  21.455
18497W        W22565   6.292   2.726  19.418
18498W        W22566   3.890   1.650  21.595
18499W        W22567   6.856   0.114  18.891
18500W        W22568   6.376   2.589  18.902
18501W        W22569   5.278   1.647  18.987
18502W        W22570   6.465   0.451  18.510
18503W        W22571   6.530   1.058  20.696
18504W        W22572   4.239   1.651  19.903
18505W        W22573   4.533   2.590  19.552
18506W        W22574   6.296   1.210  19.517
18507W        W22575   5.319   0.589  20.213
18508W        W22576   7.281   2.500  20.724
18509W        W22577   7.199   0.487  20.285
18510W        W22578   3.738   3.317  19.661
18511W        W22579   4.247   2.504  19.197
18512W        W22580   4.162   0.121  21.750
18513W        W22581   5.281   2.974  21.852
18514W        W22582   7.036   1.942  19.642
18515W        W22583   6.390   2.119  18.522
18516W        W22584   5.685   3.640  20.734
18517W        W22585   6.542   2.362  21.771
18518W        W22586   5.357   0.072  19.051
18519W        W22587   6.070   0.941  19.910
18520W        W22588   3.756   2.528  20.242
18521W        W22589   5.009   0.490  18.883
18522W        W22590   4.813   1.974  21.732
18523W        W22591   5.807   0.955  19.446
18524W        W22592   6.012   2.365  20.568
18525W        W22593   4.166   2.970  21.003
18526W        W22594   4.757   2.953  21.726
18527W        W22595   4.608   0.750  18.740
18528W        W22596   6.125   0.892  19.065
18529W        W22597   6.083   3.000  21.302
18530W        W22598   4.768   1.592  19.901
18531W        W22599   4.423   3.290  20.766
18532W        W22600   7.168   3.407  18.367
18533W        W22601   4.031   2.079  21.363
18534W        W22602   6.026   2.341  20.051
18535W        W22603   4.462   1.990  19.293
18536W        W22604   4.833   2.997  20.688
18537W        W22605   5.211   0.416  19.729
18538W        W22606   3.822   2.400  18.659
18539W        W22607   5.341   1.351  18.529
18540W        W22608   3.987   1.900  19.548
18541W        W22609   5.277   0.542  21.012
18542W        W22610   6.949   0.251  18.439
18543W        W22611   7.042   1.997  21.538
18544W        W22612   5.696   3.254  21.690
18545W        W22613   7.254   2.348  21.212
18546W        W22614   6.662   3.146  21.823
18547W        W22615   4.401   3.602  20.301
18548W        W22616   7.260   2.224  19.175
18549W        W22617   5.790   1.491  19.688
18550W        W22618   5.557   0.103  19.578
18551W        W22619   4.616   3.087  19.415
18552W        W22620   5.115   0.828  20.640
18553W        W22621   4.815   0.197  20.109
18554W        W22622   3.878   3.019  18.657
18555W        W22623   5.694   2.383  19.375
18556W        W22624   4.569   3.178  21.254
18557W        W22625   4.046   2.001  18.950
18558W        W22626   3.931   0.544  19.949
18559W        W22627   5.479   2.509  20.006
18560W        W22628   3.731   0.363  19.026
18561W        W22629   6.395   1.569  20.953
18562W        W22630   6.272   0.955  18.525
18563W        W22631   6.789   2.627  20.173
18564W        W22632   5.450   3.111  20.004
18565W        W22633   4.862   3.215  18.915
18566W        W22634   6.144   0.118  18.345
18567W        W22635   3.944   3.378  20.086
18568W        W22636   6.141   1.136  21.721
18569W        W22637   4.124   0.666  21.720
18570W        W22638   3.855   1.266  19.053
18571W        W22639   4.546   1.255  18.778
18572W        W22640   6.309   1.582  21.595
18573W        W22641   4.652   1.863  20.304
18574W        W22642   6.126   0.149  19.424
18575W        W22643   5.257   3.580  19.927
18576W        W22644   6.471   3.042  20.864
18577W        W22645   6.055   3.191  19.975
18578W        W22646   6.074   2.171  19.569
18579W        W22647   5.536   0.396  18.640
18580W        W22648   7.217   0.024  19.362
18581W        W22649   4.905   1.659  18.525
18582W        W22650   7.071   0.996  19.515
18583W        W22651   5.763   2.166  18.392
18584W        W22652   6.699   2.366  21.140
18585W        W22653   6.353   3.067  18.607
18586W        W22654   4.968   0.742  21.513
18587W        W22655   4.788   1.326  20.754
18588W        W22656   6.880   2.821  21.031
18589W        W22657   5.980   0.771  21.408
18590W        W22658   3.824   1.242  21.185
18591W        W22659   5.584   1.719  20.911
18592W        W22660   3.941   2.477  19.568
18593W        W22661   4.088   1.774  20.458
18594W        W22662   6.405   2.060  20.808
18595W        W22663   6.177   3.440  21.619
18596W        W22664   6.073   1.179  21.172
18597W        W22665   6.350   3.233  19.577
18598W        W22666   5.352   2.953  20.900
18599W        W22667   4.837   3.308  20.169
18600W        W22668   6.642   2.479  20.588
18601W        W22669   5.692   2.551  21.725
18602W        W22670   4.297   2.504  20.064
18603W        W22671   6.643   2.263  19.709
18604W        W22672   6.284   3.329  20.460
18605W        W22673   4.262   3.058  20.330
18606W        W22674   5.283   1.110  21.540
18607W        W22675   5.734   3.276  19.051
18608W        W22676   5.042   2.531  21.689
18609W        W22677   5.168   2.769  19.066
18610W        W22678   4.389   1.509  18.325
18611W        W22679   6.809   2.218  22.518
18612W        W22680   4.857   3.294  22.071
18613W        W22681   4.940   1.446  23.054
18614W        W22682   4.455   1.294  23.218
18615W        W22683   5.446   2.109  22.652
18616W        W22684   5.875   1.301  22.229
18617W        W22685   5.432   2.536  22.198
18618W        W22686   4.128   0.375  23.033
18619W        W22687   6.816   0.769  21.984
18620W        W22688   7.022   2.743  22.481
18621W        W22689   4.151   3.529  22.235
18622W        W22690   4.544   3.575  22.911
18623W        W22691   6.369   1.769  23.071
18624W        W22692   6.335   1.457  22.098
18625W        W22693   6.820   1.809  22.853
18626W        W22694   5.722   0.467  22.869
18627W        W22695   4.379   3.161  22.552
18628W        W22696   5.335   3.234  22.410
18629W        W22697   6.727   1.260  21.874
18630W        W22698   4.914   1.950  23.137
18631W        W22699   4.384   1.989  21.995
18632W        W22700   4.039   1.022  22.174
18633W        W22701   4.101   2.978  22.968
18634W        W22702   5.232   2.461  23.216
18635W        W22703   5.490   0.962  22.614
18636W        W22704   3.656   1.712  22.808
18637W        W22705   5.971   1.391  22.759
18638W        W22706   5.848   1.881  22.863
18639W        W22707   5.837   0.775  22.320
18640W        W22708   6.236   0.655  23.101
18641W        W22709   5.027   1.082  22.477
18642W        W22710   6.648   0.850  22.822
18643W        W22711   7.015   1.332  22.767
18644W        W22712   4.684   0.085  22.473
18645W        W22713   7.155   2.868  21.953
18646W        W22714   5.979   0.658  21.885
18647W        W22715   5.690   2.735  22.612
18648W        W22716   5.789   3.302  23.204
18649W        W22717   6.963   2.305  22.048
18650W        W22718   5.398   1.788  23.109
18651W        W22719   6.468   1.318  22.727
18652W        W22720   6.755   1.051  22.369
18653W        W22721   6.564   3.091  22.758
18654W        W22722   6.294   1.773  22.532
18655W        W22723   6.947   0.425  22.999
18656W        W22724   5.133   3.301  22.964
18657W        W22725   4.248   0.481  22.222
18658W        W22726   4.380   3.255  21.880
18659W        W22727   4.754   1.721  22.631
18660W        W22728   5.238   0.708  22.934
18661W        W22729   4.586   0.498  22.886
18662W        W22730   4.591   0.726  21.911
18663W        W22731   5.364   1.862  22.218
18664W        W22732   4.632   0.177  21.988
18665W        W22733   5.370   1.258  23.039
18666W        W22734   4.281   0.770  23.253
18667W        W22735   4.067   3.482  22.929
18668W        W22736   4.434   2.297  22.413
18669W        W22737   6.069   2.529  22.099
18670W        W22738   7.220   0.828  22.695
18671W        W22739   3.698   3.489  22.490
18672W        W22740   4.960   2.782  22.145
18673W        W22741   6.865   3.164  22.331
18674W        W22742   5.840   1.817  22.345
18675W        W22743   4.683   1.008  22.862
18676W        W22744   5.515   0.918  21.914
18677W        W22745   6.452   0.389  22.709
18678W        W22746   3.782   0.237  22.157
18679W        W22747   4.609   2.424  21.937
18680W        W22748   3.850   2.665  22.705
18681W        W22749   4.962   0.205  22.970
18682W        W22750   6.021   0.282  22.475
18683W        W22751   4.125   0.783  22.642
18684W        W22752   7.092   1.674  21.943
18685W        W22753   3.646   0.694  22.180
18686W        W22754   5.657   3.560  22.216
18687W        W22755   3.803   2.067  21.913
18688W        W22756   7.204   1.919  22.403
18689W        W22757   6.067   2.251  22.502
18690W        W22758   6.541   3.551  22.197
18691W        W22759   5.135   0.117  22.156
18692W        W22760   6.674   2.716  22.099
18693W        W22761   6.214   3.453  22.613
18694W        W22762   4.675   2.736  22.598
18695W        W22763   6.430   2.234  22.862
18696W        W22764   5.527   2.922  23.050
18697W        W22765   7.277   1.482  23.231
18698W        W22766   5.801   2.966  22.165
18699W        W22767   4.943   2.211  22.247
18700W        W22768   6.655   3.593  22.966
18701W        W22769   3.911   1.599  22.131
18702W        W22770   7.045   3.257  22.828
18703W        W22771   6.882   0.581  22.447
18704W        W22772   6.756   1.458  23.213
18705W        W22773   4.287   2.786  22.108
18706W        W22774   6.804   2.544  22.918
18707W        W22775   7.181   1.266  22.285
18708W        W22776   4.926   2.323  22.756
18709W        W22777   4.849   1.214  21.995
18710W        W22778   5.060   0.707  22.088
18711W        W22779   4.195   1.523  22.869
18712W        W22780   6.761   1.601  22.414
18713W        W22781   6.292   2.726  23.063
18714W        W22782   6.856   0.114  22.536
18715W        W22783   6.376   2.589  22.547
18716W        W22784   5.278   1.647  22.632
18717W        W22785   6.465   0.451  22.155
18718W        W22786   4.533   2.590  23.197
18719W        W22787   6.296   1.210  23.162
18720W        W22788   3.738   3.317  23.306
18721W        W22789   4.247   2.504  22.842
18722W        W22790   7.036   1.942  23.287
18723W        W22791   6.390   2.119  22.167
18724W        W22792   5.357   0.072  22.696
18725W        W22793   5.009   0.490  22.528
18726W        W22794   5.807   0.955  23.091
18727W        W22795   4.608   0.750  22.385
18728W        W22796   6.125   0.892  22.710
18729W        W22797   7.168   3.407  22.012
18730W        W22798   3.822   2.400  22.304
18731W        W22799   5.341   1.351  22.174
18732W        W22800   3.987   1.900  23.193
18733W        W22801   6.949   0.251  22.084
18734W        W22802   7.260   2.224  22.820
18735W        W22803   5.557   0.103  23.223
18736W        W22804   4.616   3.087  23.060
18737W        W22805   3.878   3.019  22.302
18738W        W22806   5.694   2.383  23.020
18739W        W22807   4.046   2.001  22.595
18740W        W22808   3.731   0.363  22.671
18741W        W22809   6.272   0.955  22.170
18742W        W22810   4.862   3.215  22.560
18743W        W22811   6.144   0.118  21.990
18744W        W22812   3.855   1.266  22.698
18745W        W22813   4.546   1.255  22.423
18746W        W22814   6.074   2.171  23.214
18747W        W22815   5.536   0.396  22.285
18748W        W22816   7.217   0.024  23.007
18749W        W22817   4.905   1.659  22.170
18750W        W22818   7.071   0.996  23.160
18751W        W22819   5.763   2.166  22.037
18752W        W22820   6.353   3.067  22.252
18753W        W22821   3.941   2.477  23.213
18754W        W22822   6.350   3.233  23.222
18755W        W22823   5.734   3.276  22.696
18756W        W22824   5.168   2.769  22.711
18757W        W22825   4.389   1.509  21.970
18758W        W22826   3.728   7.239   3.359
18759W        W22827   4.104   6.132   2.882
18760W        W22828   6.809   5.862   0.652
18761W        W22829   6.939   6.947   2.679
18762W        W22830   4.857   6.938   0.205
18763W        W22831   4.940   5.090   1.188
18764W        W22832   4.455   4.938   1.352
18765W        W22833   5.446   5.753   0.786
18766W        W22834   5.121   6.845   3.141
18767W        W22835   3.770   4.406   3.104
18768W        W22836   4.532   3.686   2.906
18769W        W22837   6.226   4.074   1.793
18770W        W22838   5.875   4.945   0.363
18771W        W22839   6.445   4.379   3.454
18772W        W22840   3.811   4.171   2.579
18773W        W22841   3.910   6.790   3.600
18774W        W22842   5.432   6.180   0.332
18775W        W22843   3.864   4.963   2.025
18776W        W22844   4.757   4.854   3.262
18777W        W22845   7.216   4.713   1.761
18778W        W22846   6.980   5.756   2.620
18779W        W22847   5.288   5.089   1.647
18780W        W22848   5.834   6.428   2.016
18781W        W22849   4.334   5.862   2.248
18782W        W22850   3.693   5.390   1.819
18783W        W22851   4.729   5.362   3.011
18784W        W22852   7.000   5.145   3.265
18785W        W22853   4.616   6.589   1.710
18786W        W22854   5.737   6.278   2.844
18787W        W22855   4.957   4.918   2.069
18788W        W22856   5.249   5.702   1.712
18789W        W22857   6.246   6.475   3.560
18790W        W22858   5.325   5.795   3.570
18791W        W22859   5.306   5.511   3.048
18792W        W22860   3.715   4.902   3.570
18793W        W22861   6.547   6.437   3.169
18794W        W22862   4.128   4.019   1.167
18795W        W22863   4.655   6.277   2.166
18796W        W22864   7.118   6.060   1.456
18797W        W22865   6.531   4.460   2.023
18798W        W22866   6.816   4.413   0.118
18799W        W22867   7.281   5.214   2.424
18800W        W22868   5.248   6.921   2.177
18801W        W22869   7.022   6.387   0.615
18802W        W22870   4.151   7.173   0.369
18803W        W22871   4.544   7.219   1.045
18804W        W22872   4.341   3.973   2.471
18805W        W22873   6.964   4.991   2.746
18806W        W22874   6.369   5.413   1.205
18807W        W22875   6.335   5.101   0.232
18808W        W22876   5.543   6.245   2.372
18809W        W22877   5.349   4.575   1.571
18810W        W22878   5.949   6.662   2.565
18811W        W22879   6.820   5.453   0.987
18812W        W22880   5.722   4.111   1.003
18813W        W22881   4.379   6.805   0.686
18814W        W22882   3.750   4.304   1.285
18815W        W22883   6.536   4.911   1.759
18816W        W22884   3.994   6.528   1.674
18817W        W22885   5.335   6.878   0.544
18818W        W22886   6.727   4.904   0.008
18819W        W22887   3.750   6.662   2.172
18820W        W22888   4.541   6.234   2.652
18821W        W22889   4.914   5.594   1.271
18822W        W22890   4.936   3.999   2.364
18823W        W22891   7.165   3.761   1.661
18824W        W22892   4.384   5.633   0.129
18825W        W22893   4.039   4.666   0.308
18826W        W22894   4.101   6.622   1.102
18827W        W22895   5.232   6.105   1.350
18828W        W22896   6.564   6.964   3.064
18829W        W22897   5.490   4.606   0.748
18830W        W22898   6.873   7.004   1.520
18831W        W22899   6.550   4.857   3.118
18832W        W22900   7.263   6.513   1.252
18833W        W22901   5.890   5.805   2.736
18834W        W22902   3.656   5.356   0.942
18835W        W22903   4.767   5.771   2.515
18836W        W22904   5.971   5.035   0.893
18837W        W22905   5.848   5.525   0.997
18838W        W22906   4.191   4.945   2.471
18839W        W22907   4.176   4.821   3.393
18840W        W22908   4.066   3.738   1.552
18841W        W22909   5.834   4.085   2.113
18842W        W22910   5.482   4.270   3.276
18843W        W22911   5.837   4.419   0.454
18844W        W22912   7.020   6.812   3.208
18845W        W22913   5.987   3.893   3.247
18846W        W22914   7.006   6.194   3.369
18847W        W22915   6.436   4.361   2.965
18848W        W22916   6.236   4.299   1.235
18849W        W22917   6.629   5.433   3.639
18850W        W22918   4.369   7.009   1.625
18851W        W22919   5.027   4.726   0.611
18852W        W22920   4.596   4.010   3.275
18853W        W22921   6.648   4.494   0.956
18854W        W22922   7.015   4.976   0.901
18855W        W22923   4.758   7.193   3.372
18856W        W22924   4.684   3.729   0.607
18857W        W22925   7.005   4.263   1.642
18858W        W22926   7.155   6.512   0.087
18859W        W22927   4.062   5.715   1.789
18860W        W22928   5.979   4.302   0.019
18861W        W22929   7.113   6.634   1.739
18862W        W22930   7.152   3.828   2.489
18863W        W22931   5.597   5.040   3.043
18864W        W22932   5.690   6.379   0.746
18865W        W22933   6.090   5.673   3.486
18866W        W22934   5.764   3.650   1.795
18867W        W22935   4.376   4.553   1.858
18868W        W22936   3.930   5.753   2.632
18869W        W22937   5.789   6.946   1.338
18870W        W22938   6.983   4.543   2.210
18871W        W22939   5.620   6.890   2.977
18872W        W22940   6.963   5.949   0.182
18873W        W22941   5.398   5.432   1.243
18874W        W22942   7.250   3.943   2.984
18875W        W22943   5.399   5.778   2.578
18876W        W22944   5.616   4.664   2.023
18877W        W22945   6.468   4.962   0.861
18878W        W22946   6.755   4.695   0.503
18879W        W22947   6.564   6.735   0.892
18880W        W22948   6.398   6.338   1.688
18881W        W22949   6.294   5.417   0.666
18882W        W22950   5.727   5.627   1.652
18883W        W22951   6.608   5.415   1.719
18884W        W22952   3.983   4.430   2.143
18885W        W22953   6.761   5.482   2.970
18886W        W22954   7.112   7.100   2.116
18887W        W22955   5.042   6.544   1.518
18888W        W22956   6.049   7.077   2.842
18889W        W22957   6.043   4.407   2.606
18890W        W22958   5.250   7.115   2.667
18891W        W22959   6.947   4.069   1.133
18892W        W22960   6.738   5.388   2.434
18893W        W22961   3.721   4.709   2.472
18894W        W22962   6.581   4.504   1.490
18895W        W22963   6.992   4.655   3.267
18896W        W22964   5.877   6.354   1.485
18897W        W22965   5.133   6.945   1.098
18898W        W22966   4.248   4.125   0.356
18899W        W22967   5.352   3.779   2.166
18900W        W22968   4.380   6.899   0.014
18901W        W22969   4.754   5.365   0.765
18902W        W22970   5.408   5.994   3.078
18903W        W22971   5.238   4.352   1.068
18904W        W22972   6.594   3.949   1.496
18905W        W22973   6.314   7.231   1.824
18906W        W22974   5.726   6.879   2.164
18907W        W22975   5.122   5.916   2.125
18908W        W22976   6.892   6.639   2.251
18909W        W22977   4.586   4.142   1.020
18910W        W22978   5.108   6.439   1.980
18911W        W22979   4.591   4.370   0.045
18912W        W22980   5.392   4.979   2.439
18913W        W22981   6.240   3.845   2.309
18914W        W22982   3.660   5.688   2.194
18915W        W22983   5.364   5.506   0.352
18916W        W22984   4.632   3.821   0.122
18917W        W22985   5.370   4.902   1.173
18918W        W22986   6.340   3.878   2.872
18919W        W22987   4.928   5.890   2.981
18920W        W22988   5.732   5.672   3.198
18921W        W22989   6.349   5.702   3.091
18922W        W22990   5.633   3.842   3.596
18923W        W22991   4.855   4.458   1.989
18924W        W22992   4.281   4.414   1.387
18925W        W22993   4.067   7.126   1.063
18926W        W22994   5.399   6.456   3.188
18927W        W22995   4.434   5.941   0.547
18928W        W22996   6.114   5.326   1.768
18929W        W22997   6.394   5.125   2.167
18930W        W22998   5.599   5.799   2.101
18931W        W22999   6.069   6.173   0.233
18932W        W23000   5.741   4.194   1.561
18933W        W23001   7.220   4.472   0.829
18934W        W23002   3.714   7.061   2.860
18935W        W23003   4.131   6.287   2.392
18936W        W23004   3.698   7.133   0.624
18937W        W23005   5.597   4.403   2.430
18938W        W23006   4.960   6.426   0.279
18939W        W23007   6.865   6.808   0.465
18940W        W23008   5.840   5.461   0.479
18941W        W23009   4.683   4.652   0.996
18942W        W23010   5.515   4.562   0.048
18943W        W23011   6.099   6.127   3.226
18944W        W23012   6.452   4.033   0.843
18945W        W23013   3.782   3.881   0.291
18946W        W23014   5.068   6.200   2.581
18947W        W23015   4.867   6.116   1.673
18948W        W23016   4.609   6.068   0.071
18949W        W23017   3.850   6.309   0.839
18950W        W23018   4.354   5.379   3.281
18951W        W23019   5.058   3.939   3.467
18952W        W23020   5.767   4.081   2.823
18953W        W23021   4.962   3.849   1.104
18954W        W23022   6.021   3.926   0.609
18955W        W23023   3.966   3.858   2.186
18956W        W23024   4.014   4.821   1.556
18957W        W23025   6.703   3.929   1.962
18958W        W23026   4.125   4.427   0.776
18959W        W23027   6.696   4.115   2.392
18960W        W23028   7.092   5.318   0.077
18961W        W23029   4.384   4.076   1.896
18962W        W23030   5.498   4.648   2.836
18963W        W23031   3.646   4.338   0.314
18964W        W23032   4.432   5.727   2.875
18965W        W23033   5.790   5.125   2.054
18966W        W23034   5.657   7.204   0.350
18967W        W23035   3.803   5.711   0.047
18968W        W23036   4.538   6.122   3.173
18969W        W23037   4.059   5.289   2.804
18970W        W23038   5.050   5.394   2.598
18971W        W23039   6.818   3.753   2.860
18972W        W23040   7.216   5.363   2.851
18973W        W23041   7.204   5.563   0.537
18974W        W23042   6.067   5.895   0.636
18975W        W23043   6.541   7.195   0.331
18976W        W23044   5.718   5.185   3.473
18977W        W23045   4.048   6.152   3.513
18978W        W23046   7.254   4.074   3.465
18979W        W23047   6.972   5.002   2.086
18980W        W23048   5.280   7.132   3.563
18981W        W23049   5.135   3.761   0.290
18982W        W23050   6.674   6.360   0.233
18983W        W23051   4.443   4.453   3.119
18984W        W23052   4.877   6.447   2.981
18985W        W23053   7.003   4.438   2.779
18986W        W23054   6.214   7.097   0.747
18987W        W23055   6.453   5.716   2.114
18988W        W23056   4.703   4.132   2.781
18989W        W23057   5.172   5.201   3.538
18990W        W23058   4.675   6.380   0.732
18991W        W23059   6.430   5.878   0.996
18992W        W23060   4.198   4.504   2.720
18993W        W23061   5.527   6.566   1.184
18994W        W23062   7.277   5.126   1.365
18995W        W23063   5.499   3.759   3.084
18996W        W23064   6.279   6.464   2.163
18997W        W23065   6.582   6.808   1.871
18998W        W23066   5.801   6.610   0.299
18999W        W23067   3.811   6.502   3.141
19000W        W23068   4.554   4.494   2.379
19001W        W23069   4.524   3.842   1.489
19002W        W23070   6.145   4.684   2.181
19003W        W23071   4.943   5.855   0.381
19004W        W23072   6.941   5.797   1.880
19005W        W23073   4.268   6.555   3.303
19006W        W23074   6.655   7.237   1.100
19007W        W23075   4.754   4.257   1.545
19008W        W23076   4.523   5.750   1.635
19009W        W23077   4.836   7.161   2.385
19010W        W23078   6.903   7.257   3.417
19011W        W23079   6.062   5.445   2.350
19012W        W23080   3.911   5.243   0.265
19013W        W23081   7.045   6.901   0.962
19014W        W23082   6.882   4.225   0.581
19015W        W23083   5.021   3.744   2.984
19016W        W23084   6.727   6.546   1.442
19017W        W23085   6.756   5.102   1.347
19018W        W23086   4.873   4.775   1.563
19019W        W23087   5.118   5.037   2.887
19020W        W23088   6.229   6.190   2.750
19021W        W23089   4.879   4.644   2.862
19022W        W23090   4.858   7.110   1.478
19023W        W23091   4.175   7.069   3.112
19024W        W23092   4.287   6.430   0.242
19025W        W23093   6.804   6.188   1.052
19026W        W23094   4.408   4.980   2.938
19027W        W23095   7.181   4.910   0.419
19028W        W23096   4.926   5.967   0.890
19029W        W23097   6.025   5.349   2.971
19030W        W23098   5.916   4.977   2.515
19031W        W23099   4.476   5.349   2.544
19032W        W23100   6.686   7.237   2.373
19033W        W23101   6.477   3.871   3.367
19034W        W23102   4.141   4.021   2.954
19035W        W23103   4.480   5.044   2.007
19036W        W23104   4.849   4.858   0.129
19037W        W23105   3.652   6.617   2.674
19038W        W23106   5.237   5.326   2.117
19039W        W23107   5.060   4.351   0.222
19040W        W23108   4.195   5.167   1.003
19041W        W23109   3.966   7.019   2.440
19042W        W23110   6.761   5.245   0.548
19043W        W23111   6.856   4.161   3.234
19044W        W23112   6.292   6.370   1.197
19045W        W23113   3.890   5.294   3.374
19046W        W23114   6.856   3.758   0.670
19047W        W23115   6.376   6.233   0.681
19048W        W23116   5.278   5.291   0.766
19049W        W23117   6.465   4.095   0.289
19050W        W23118   6.530   4.702   2.475
19051W        W23119   4.239   5.295   1.682
19052W        W23120   4.533   6.234   1.331
19053W        W23121   6.296   4.854   1.296
19054W        W23122   5.319   4.233   1.992
19055W        W23123   7.281   6.144   2.503
19056W        W23124   7.199   4.131   2.064
19057W        W23125   3.738   6.961   1.440
19058W        W23126   4.247   6.148   0.976
19059W        W23127   4.162   3.765   3.529
19060W        W23128   5.281   6.618   3.631
19061W        W23129   7.036   5.586   1.421
19062W        W23130   6.390   5.763   0.301
19063W        W23131   5.685   7.284   2.513
19064W        W23132   6.542   6.006   3.550
19065W        W23133   5.357   3.716   0.830
19066W        W23134   6.070   4.585   1.689
19067W        W23135   3.756   6.172   2.021
19068W        W23136   5.009   4.134   0.662
19069W        W23137   4.813   5.618   3.511
19070W        W23138   5.807   4.599   1.225
19071W        W23139   6.012   6.009   2.347
19072W        W23140   4.166   6.614   2.782
19073W        W23141   4.757   6.597   3.505
19074W        W23142   4.608   4.394   0.519
19075W        W23143   6.125   4.536   0.844
19076W        W23144   6.083   6.644   3.081
19077W        W23145   4.768   5.236   1.680
19078W        W23146   4.423   6.934   2.545
19079W        W23147   7.168   7.051   0.146
19080W        W23148   4.031   5.723   3.142
19081W        W23149   6.026   5.985   1.830
19082W        W23150   4.462   5.634   1.072
19083W        W23151   4.833   6.641   2.467
19084W        W23152   5.211   4.060   1.508
19085W        W23153   3.822   6.044   0.438
19086W        W23154   5.341   4.995   0.308
19087W        W23155   3.987   5.544   1.327
19088W        W23156   5.277   4.186   2.791
19089W        W23157   6.949   3.895   0.218
19090W        W23158   7.042   5.641   3.317
19091W        W23159   5.696   6.898   3.469
19092W        W23160   7.254   5.992   2.991
19093W        W23161   6.662   6.790   3.602
19094W        W23162   4.401   7.246   2.080
19095W        W23163   7.260   5.868   0.954
19096W        W23164   5.790   5.135   1.467
19097W        W23165   5.557   3.747   1.357
19098W        W23166   4.616   6.731   1.194
19099W        W23167   5.115   4.472   2.419
19100W        W23168   4.815   3.841   1.888
19101W        W23169   3.878   6.663   0.436
19102W        W23170   5.694   6.027   1.154
19103W        W23171   4.569   6.822   3.033
19104W        W23172   4.046   5.645   0.729
19105W        W23173   3.931   4.188   1.728
19106W        W23174   5.479   6.153   1.785
19107W        W23175   3.731   4.007   0.805
19108W        W23176   6.395   5.213   2.732
19109W        W23177   6.272   4.599   0.304
19110W        W23178   6.789   6.271   1.952
19111W        W23179   5.450   6.755   1.783
19112W        W23180   4.862   6.859   0.694
19113W        W23181   6.144   3.762   0.124
19114W        W23182   3.944   7.022   1.865
19115W        W23183   6.141   4.780   3.500
19116W        W23184   4.124   4.310   3.499
19117W        W23185   3.855   4.910   0.832
19118W        W23186   4.546   4.899   0.557
19119W        W23187   6.309   5.226   3.374
19120W        W23188   4.652   5.507   2.083
19121W        W23189   6.126   3.793   1.203
19122W        W23190   5.257   7.224   1.706
19123W        W23191   6.471   6.686   2.643
19124W        W23192   6.055   6.835   1.754
19125W        W23193   6.074   5.815   1.348
19126W        W23194   5.536   4.040   0.419
19127W        W23195   7.217   3.668   1.141
19128W        W23196   4.905   5.303   0.304
19129W        W23197   7.071   4.640   1.294
19130W        W23198   5.763   5.810   0.171
19131W        W23199   6.699   6.010   2.919
19132W        W23200   6.353   6.711   0.386
19133W        W23201   4.968   4.386   3.292
19134W        W23202   4.788   4.970   2.533
19135W        W23203   6.880   6.465   2.810
19136W        W23204   5.980   4.415   3.187
19137W        W23205   3.824   4.886   2.964
19138W        W23206   5.584   5.363   2.690
19139W        W23207   3.941   6.121   1.347
19140W        W23208   4.088   5.418   2.237
19141W        W23209   6.405   5.704   2.587
19142W        W23210   6.177   7.084   3.398
19143W        W23211   6.073   4.823   2.951
19144W        W23212   6.350   6.877   1.356
19145W        W23213   5.352   6.597   2.679
19146W        W23214   4.837   6.952   1.948
19147W        W23215   6.642   6.123   2.367
19148W        W23216   5.692   6.195   3.504
19149W        W23217   4.297   6.148   1.843
19150W        W23218   6.643   5.907   1.488
19151W        W23219   6.284   6.973   2.239
19152W        W23220   4.262   6.702   2.109
19153W        W23221   5.283   4.754   3.319
19154W        W23222   5.734   6.920   0.830
19155W        W23223   5.042   6.175   3.468
19156W        W23224   5.168   6.413   0.845
19157W        W23225   4.389   5.153   0.104
19158W        W23226   3.728   7.239   7.003
19159W        W23227   4.104   6.132   6.526
19160W        W23228   6.809   5.862   4.296
19161W        W23229   6.939   6.947   6.323
19162W        W23230   4.857   6.938   3.849
19163W        W23231   4.940   5.090   4.832
19164W        W23232   4.455   4.938   4.996
19165W        W23233   5.446   5.753   4.430
19166W        W23234   5.121   6.845   6.785
19167W        W23235   3.770   4.406   6.748
19168W        W23236   4.532   3.686   6.550
19169W        W23237   6.226   4.074   5.437
19170W        W23238   5.875   4.945   4.007
19171W        W23239   6.445   4.379   7.098
19172W        W23240   3.811   4.171   6.223
19173W        W23241   3.910   6.790   7.244
19174W        W23242   5.432   6.180   3.976
19175W        W23243   3.864   4.963   5.669
19176W        W23244   4.757   4.854   6.906
19177W        W23245   7.216   4.713   5.405
19178W        W23246   6.980   5.756   6.264
19179W        W23247   5.288   5.089   5.291
19180W        W23248   5.834   6.428   5.660
19181W        W23249   4.334   5.862   5.892
19182W        W23250   3.693   5.390   5.463
19183W        W23251   4.729   5.362   6.655
19184W        W23252   7.000   5.145   6.909
19185W        W23253   4.616   6.589   5.354
19186W        W23254   5.737   6.278   6.488
19187W        W23255   4.957   4.918   5.713
19188W        W23256   5.249   5.702   5.356
19189W        W23257   6.246   6.475   7.204
19190W        W23258   5.306   5.511   6.692
19191W        W23259   3.715   4.902   7.214
19192W        W23260   6.547   6.437   6.813
19193W        W23261   4.128   4.019   4.811
19194W        W23262   7.118   6.060   5.100
19195W        W23263   6.531   4.460   5.667
19196W        W23264   6.816   4.413   3.762
19197W        W23265   7.281   5.214   6.068
19198W        W23266   5.248   6.921   5.821
19199W        W23267   7.022   6.387   4.259
19200W        W23268   4.151   7.173   4.013
19201W        W23269   4.544   7.219   4.689
19202W        W23270   4.341   3.973   6.115
19203W        W23271   6.964   4.991   6.390
19204W        W23272   6.369   5.413   4.849
19205W        W23273   6.335   5.101   3.876
19206W        W23274   5.349   4.575   5.215
19207W        W23275   5.949   6.662   6.209
19208W        W23276   6.820   5.453   4.631
19209W        W23277   5.722   4.111   4.647
19210W        W23278   4.379   6.805   4.330
19211W        W23279   3.750   4.304   4.929
19212W        W23280   6.536   4.911   5.403
19213W        W23281   3.994   6.528   5.318
19214W        W23282   5.335   6.878   4.188
19215W        W23283   6.727   4.904   3.652
19216W        W23284   3.750   6.662   5.816
19217W        W23285   4.541   6.234   6.296
19218W        W23286   4.936   3.999   6.008
19219W        W23287   7.165   3.761   5.305
19220W        W23288   4.384   5.633   3.773
19221W        W23289   4.039   4.666   3.952
19222W        W23290   5.232   6.105   4.994
19223W        W23291   6.564   6.964   6.708
19224W        W23292   5.490   4.606   4.392
19225W        W23293   6.873   7.004   5.164
19226W        W23294   6.550   4.857   6.762
19227W        W23295   7.263   6.513   4.896
19228W        W23296   5.890   5.805   6.380
19229W        W23297   3.656   5.356   4.586
19230W        W23298   4.767   5.771   6.159
19231W        W23299   5.971   5.035   4.537
19232W        W23300   5.848   5.525   4.641
19233W        W23301   4.191   4.945   6.115
19234W        W23302   4.176   4.821   7.037
19235W        W23303   4.066   3.738   5.196
19236W        W23304   5.834   4.085   5.757
19237W        W23305   5.482   4.270   6.920
19238W        W23306   5.837   4.419   4.098
19239W        W23307   7.020   6.812   6.852
19240W        W23308   5.987   3.893   6.891
19241W        W23309   7.006   6.194   7.013
19242W        W23310   6.436   4.361   6.609
19243W        W23311   6.236   4.299   4.879
19244W        W23312   6.629   5.433   7.283
19245W        W23313   4.369   7.009   5.269
19246W        W23314   5.027   4.726   4.255
19247W        W23315   4.596   4.010   6.919
19248W        W23316   6.648   4.494   4.600
19249W        W23317   7.015   4.976   4.545
19250W        W23318   4.684   3.729   4.251
19251W        W23319   7.005   4.263   5.286
19252W        W23320   7.155   6.512   3.731
19253W        W23321   5.979   4.302   3.663
19254W        W23322   7.113   6.634   5.383
19255W        W23323   7.152   3.828   6.133
19256W        W23324   5.597   5.040   6.687
19257W        W23325   5.690   6.379   4.390
19258W        W23326   6.090   5.673   7.130
19259W        W23327   5.764   3.650   5.439
19260W        W23328   4.376   4.553   5.502
19261W        W23329   3.930   5.753   6.276
19262W        W23330   5.789   6.946   4.982
19263W        W23331   6.983   4.543   5.854
19264W        W23332   5.620   6.890   6.621
19265W        W23333   6.963   5.949   3.826
19266W        W23334   5.398   5.432   4.887
19267W        W23335   7.250   3.943   6.628
19268W        W23336   5.616   4.664   5.667
19269W        W23337   6.468   4.962   4.505
19270W        W23338   6.755   4.695   4.147
19271W        W23339   6.564   6.735   4.536
19272W        W23340   6.398   6.338   5.332
19273W        W23341   6.294   5.417   4.310
19274W        W23342   5.727   5.627   5.296
19275W        W23343   6.608   5.415   5.363
19276W        W23344   3.983   4.430   5.787
19277W        W23345   6.761   5.482   6.614
19278W        W23346   7.112   7.100   5.760
19279W        W23347   5.042   6.544   5.162
19280W        W23348   6.049   7.077   6.486
19281W        W23349   6.043   4.407   6.250
19282W        W23350   5.250   7.115   6.311
19283W        W23351   6.947   4.069   4.777
19284W        W23352   6.738   5.388   6.078
19285W        W23353   3.721   4.709   6.116
19286W        W23354   6.581   4.504   5.134
19287W        W23355   6.992   4.655   6.911
19288W        W23356   5.877   6.354   5.129
19289W        W23357   5.133   6.945   4.742
19290W        W23358   4.248   4.125   4.000
19291W        W23359   5.352   3.779   5.810
19292W        W23360   4.380   6.899   3.658
19293W        W23361   4.754   5.365   4.409
19294W        W23362   5.408   5.994   6.722
19295W        W23363   5.238   4.352   4.712
19296W        W23364   6.594   3.949   5.140
19297W        W23365   6.314   7.231   5.468
19298W        W23366   5.726   6.879   5.808
19299W        W23367   5.122   5.916   5.769
19300W        W23368   6.892   6.639   5.895
19301W        W23369   4.586   4.142   4.664
19302W        W23370   5.108   6.439   5.624
19303W        W23371   4.591   4.370   3.689
19304W        W23372   5.392   4.979   6.083
19305W        W23373   6.240   3.845   5.953
19306W        W23374   3.660   5.688   5.838
19307W        W23375   5.364   5.506   3.996
19308W        W23376   4.632   3.821   3.766
19309W        W23377   5.370   4.902   4.817
19310W        W23378   6.340   3.878   6.516
19311W        W23379   4.928   5.890   6.625
19312W        W23380   5.732   5.672   6.842
19313W        W23381   6.349   5.702   6.735
19314W        W23382   5.633   3.842   7.240
19315W        W23383   4.855   4.458   5.633
19316W        W23384   4.281   4.414   5.031
19317W        W23385   4.067   7.126   4.707
19318W        W23386   4.434   5.941   4.191
19319W        W23387   6.114   5.326   5.412
19320W        W23388   6.394   5.125   5.811
19321W        W23389   5.599   5.799   5.745
19322W        W23390   6.069   6.173   3.877
19323W        W23391   5.741   4.194   5.205
19324W        W23392   7.220   4.472   4.473
19325W        W23393   3.714   7.061   6.504
19326W        W23394   4.131   6.287   6.036
19327W        W23395   3.698   7.133   4.268
19328W        W23396   5.597   4.403   6.074
19329W        W23397   4.960   6.426   3.923
19330W        W23398   6.865   6.808   4.109
19331W        W23399   5.840   5.461   4.123
19332W        W23400   4.683   4.652   4.640
19333W        W23401   5.515   4.562   3.692
19334W        W23402   6.099   6.127   6.870
19335W        W23403   6.452   4.033   4.487
19336W        W23404   3.782   3.881   3.935
19337W        W23405   4.867   6.116   5.317
19338W        W23406   4.609   6.068   3.715
19339W        W23407   3.850   6.309   4.483
19340W        W23408   4.354   5.379   6.925
19341W        W23409   5.058   3.939   7.111
19342W        W23410   5.767   4.081   6.467
19343W        W23411   4.962   3.849   4.748
19344W        W23412   6.021   3.926   4.253
19345W        W23413   3.966   3.858   5.830
19346W        W23414   4.014   4.821   5.200
19347W        W23415   6.703   3.929   5.606
19348W        W23416   4.125   4.427   4.420
19349W        W23417   6.696   4.115   6.036
19350W        W23418   7.092   5.318   3.721
19351W        W23419   4.384   4.076   5.540
19352W        W23420   5.498   4.648   6.480
19353W        W23421   3.646   4.338   3.958
19354W        W23422   4.432   5.727   6.519
19355W        W23423   5.790   5.125   5.698
19356W        W23424   5.657   7.204   3.994
19357W        W23425   3.803   5.711   3.691
19358W        W23426   4.538   6.122   6.817
19359W        W23427   4.059   5.289   6.448
19360W        W23428   5.050   5.394   6.242
19361W        W23429   6.818   3.753   6.504
19362W        W23430   7.216   5.363   6.495
19363W        W23431   7.204   5.563   4.181
19364W        W23432   6.067   5.895   4.280
19365W        W23433   6.541   7.195   3.975
19366W        W23434   5.718   5.185   7.117
19367W        W23435   4.048   6.152   7.157
19368W        W23436   7.254   4.074   7.109
19369W        W23437   6.972   5.002   5.730
19370W        W23438   5.280   7.132   7.207
19371W        W23439   5.135   3.761   3.934
19372W        W23440   6.674   6.360   3.877
19373W        W23441   4.443   4.453   6.763
19374W        W23442   4.877   6.447   6.625
19375W        W23443   7.003   4.438   6.423
19376W        W23444   6.214   7.097   4.391
19377W        W23445   6.453   5.716   5.758
19378W        W23446   4.703   4.132   6.425
19379W        W23447   5.172   5.201   7.182
19380W        W23448   4.675   6.380   4.376
19381W        W23449   6.430   5.878   4.640
19382W        W23450   4.198   4.504   6.364
19383W        W23451   5.527   6.566   4.828
19384W        W23452   7.277   5.126   5.009
19385W        W23453   5.499   3.759   6.728
19386W        W23454   6.279   6.464   5.807
19387W        W23455   6.582   6.808   5.515
19388W        W23456   5.801   6.610   3.943
19389W        W23457   3.811   6.502   6.785
19390W        W23458   4.554   4.494   6.023
19391W        W23459   4.524   3.842   5.133
19392W        W23460   6.145   4.684   5.825
19393W        W23461   4.943   5.855   4.025
19394W        W23462   6.941   5.797   5.524
19395W        W23463   4.268   6.555   6.947
19396W        W23464   6.655   7.237   4.744
19397W        W23465   4.754   4.257   5.189
19398W        W23466   4.523   5.750   5.279
19399W        W23467   4.836   7.161   6.029
19400W        W23468   6.062   5.445   5.994
19401W        W23469   3.911   5.243   3.909
19402W        W23470   7.045   6.901   4.606
19403W        W23471   6.882   4.225   4.225
19404W        W23472   5.021   3.744   6.628
19405W        W23473   6.727   6.546   5.086
19406W        W23474   6.756   5.102   4.991
19407W        W23475   4.873   4.775   5.207
19408W        W23476   5.118   5.037   6.531
19409W        W23477   6.229   6.190   6.394
19410W        W23478   4.879   4.644   6.506
19411W        W23479   4.858   7.110   5.122
19412W        W23480   4.175   7.069   6.756
19413W        W23481   4.287   6.430   3.886
19414W        W23482   6.804   6.188   4.696
19415W        W23483   4.408   4.980   6.582
19416W        W23484   7.181   4.910   4.063
19417W        W23485   4.926   5.967   4.534
19418W        W23486   6.025   5.349   6.615
19419W        W23487   5.916   4.977   6.159
19420W        W23488   4.476   5.349   6.188
19421W        W23489   6.686   7.237   6.017
19422W        W23490   6.477   3.871   7.011
19423W        W23491   4.141   4.021   6.598
19424W        W23492   4.480   5.044   5.651
19425W        W23493   4.849   4.858   3.773
19426W        W23494   5.237   5.326   5.761
19427W        W23495   5.060   4.351   3.866
19428W        W23496   4.195   5.167   4.647
19429W        W23497   3.966   7.019   6.084
19430W        W23498   6.761   5.245   4.192
19431W        W23499   6.856   4.161   6.878
19432W        W23500   6.292   6.370   4.841
19433W        W23501   3.890   5.294   7.018
19434W        W23502   6.856   3.758   4.314
19435W        W23503   6.376   6.233   4.325
19436W        W23504   5.278   5.291   4.410
19437W        W23505   6.465   4.095   3.933
19438W        W23506   6.530   4.702   6.119
19439W        W23507   4.239   5.295   5.326
19440W        W23508   4.533   6.234   4.975
19441W        W23509   6.296   4.854   4.940
19442W        W23510   5.319   4.233   5.636
19443W        W23511   7.281   6.144   6.147
19444W        W23512   7.199   4.131   5.708
19445W        W23513   3.738   6.961   5.084
19446W        W23514   4.247   6.148   4.620
19447W        W23515   4.162   3.765   7.173
19448W        W23516   7.036   5.586   5.065
19449W        W23517   6.390   5.763   3.945
19450W        W23518   5.685   7.284   6.157
19451W        W23519   6.542   6.006   7.194
19452W        W23520   5.357   3.716   4.474
19453W        W23521   6.070   4.585   5.333
19454W        W23522   3.756   6.172   5.665
19455W        W23523   5.009   4.134   4.306
19456W        W23524   4.813   5.618   7.155
19457W        W23525   5.807   4.599   4.869
19458W        W23526   6.012   6.009   5.991
19459W        W23527   4.166   6.614   6.426
19460W        W23528   4.757   6.597   7.149
19461W        W23529   4.608   4.394   4.163
19462W        W23530   6.125   4.536   4.488
19463W        W23531   6.083   6.644   6.725
19464W        W23532   4.768   5.236   5.324
19465W        W23533   4.423   6.934   6.189
19466W        W23534   7.168   7.051   3.790
19467W        W23535   4.031   5.723   6.786
19468W        W23536   6.026   5.985   5.474
19469W        W23537   5.211   4.060   5.152
19470W        W23538   3.822   6.044   4.082
19471W        W23539   5.341   4.995   3.952
19472W        W23540   3.987   5.544   4.971
19473W        W23541   5.277   4.186   6.435
19474W        W23542   6.949   3.895   3.862
19475W        W23543   7.042   5.641   6.961
19476W        W23544   5.696   6.898   7.113
19477W        W23545   7.254   5.992   6.635
19478W        W23546   6.662   6.790   7.246
19479W        W23547   4.401   7.246   5.724
19480W        W23548   7.260   5.868   4.598
19481W        W23549   5.790   5.135   5.111
19482W        W23550   5.557   3.747   5.001
19483W        W23551   4.616   6.731   4.838
19484W        W23552   5.115   4.472   6.063
19485W        W23553   4.815   3.841   5.532
19486W        W23554   3.878   6.663   4.080
19487W        W23555   5.694   6.027   4.798
19488W        W23556   4.569   6.822   6.677
19489W        W23557   3.931   4.188   5.372
19490W        W23558   5.479   6.153   5.429
19491W        W23559   3.731   4.007   4.449
19492W        W23560   6.395   5.213   6.376
19493W        W23561   6.272   4.599   3.948
19494W        W23562   6.789   6.271   5.596
19495W        W23563   5.450   6.755   5.427
19496W        W23564   4.862   6.859   4.338
19497W        W23565   6.144   3.762   3.768
19498W        W23566   3.944   7.022   5.509
19499W        W23567   6.141   4.780   7.144
19500W        W23568   4.124   4.310   7.143
19501W        W23569   3.855   4.910   4.476
19502W        W23570   4.546   4.899   4.201
19503W        W23571   6.309   5.226   7.018
19504W        W23572   4.652   5.507   5.727
19505W        W23573   6.126   3.793   4.847
19506W        W23574   5.257   7.224   5.350
19507W        W23575   6.471   6.686   6.287
19508W        W23576   6.055   6.835   5.398
19509W        W23577   6.074   5.815   4.992
19510W        W23578   5.536   4.040   4.063
19511W        W23579   7.217   3.668   4.785
19512W        W23580   4.905   5.303   3.948
19513W        W23581   7.071   4.640   4.938
19514W        W23582   5.763   5.810   3.815
19515W        W23583   6.699   6.010   6.563
19516W        W23584   6.353   6.711   4.030
19517W        W23585   4.968   4.386   6.936
19518W        W23586   4.788   4.970   6.177
19519W        W23587   6.880   6.465   6.454
19520W        W23588   5.980   4.415   6.831
19521W        W23589   3.824   4.886   6.608
19522W        W23590   4.088   5.418   5.881
19523W        W23591   6.405   5.704   6.231
19524W        W23592   6.073   4.823   6.595
19525W        W23593   6.350   6.877   5.000
19526W        W23594   5.352   6.597   6.323
19527W        W23595   4.837   6.952   5.592
19528W        W23596   6.642   6.123   6.011
19529W        W23597   5.692   6.195   7.148
19530W        W23598   4.297   6.148   5.487
19531W        W23599   6.643   5.907   5.132
19532W        W23600   6.284   6.973   5.883
19533W        W23601   4.262   6.702   5.753
19534W        W23602   5.283   4.754   6.963
19535W        W23603   5.734   6.920   4.474
19536W        W23604   5.042   6.175   7.112
19537W        W23605   5.168   6.413   4.489
19538W        W23606   4.389   5.153   3.748
19539W        W23607   3.728   7.239  10.648
19540W        W23608   4.104   6.132  10.171
19541W        W23609   6.809   5.862   7.941
19542W        W23610   6.939   6.947   9.968
19543W        W23611   4.857   6.938   7.494
19544W        W23612   4.940   5.090   8.477
19545W        W23613   4.455   4.938   8.641
19546W        W23614   5.446   5.753   8.075
19547W        W23615   5.121   6.845  10.430
19548W        W23616   3.770   4.406  10.393
19549W        W23617   4.532   3.686  10.195
19550W        W23618   6.226   4.074   9.082
19551W        W23619   5.875   4.945   7.652
19552W        W23620   6.445   4.379  10.743
19553W        W23621   3.811   4.171   9.868
19554W        W23622   3.910   6.790  10.889
19555W        W23623   3.864   4.963   9.314
19556W        W23624   4.757   4.854  10.551
19557W        W23625   7.216   4.713   9.050
19558W        W23626   6.980   5.756   9.909
19559W        W23627   5.288   5.089   8.936
19560W        W23628   5.834   6.428   9.305
19561W        W23629   4.334   5.862   9.537
19562W        W23630   3.693   5.390   9.108
19563W        W23631   4.729   5.362  10.300
19564W        W23632   7.000   5.145  10.554
19565W        W23633   4.616   6.589   8.999
19566W        W23634   5.737   6.278  10.133
19567W        W23635   4.957   4.918   9.358
19568W        W23636   5.249   5.702   9.001
19569W        W23637   6.246   6.475  10.849
19570W        W23638   5.325   5.795  10.859
19571W        W23639   5.306   5.511  10.337
19572W        W23640   3.715   4.902  10.859
19573W        W23641   6.547   6.437  10.458
19574W        W23642   4.128   4.019   8.456
19575W        W23643   4.655   6.277   9.455
19576W        W23644   7.118   6.060   8.745
19577W        W23645   6.531   4.460   9.312
19578W        W23646   6.816   4.413   7.407
19579W        W23647   7.281   5.214   9.713
19580W        W23648   5.248   6.921   9.466
19581W        W23649   7.022   6.387   7.904
19582W        W23650   4.151   7.173   7.658
19583W        W23651   4.341   3.973   9.760
19584W        W23652   6.964   4.991  10.035
19585W        W23653   6.369   5.413   8.494
19586W        W23654   6.335   5.101   7.521
19587W        W23655   5.543   6.245   9.661
19588W        W23656   5.349   4.575   8.860
19589W        W23657   5.949   6.662   9.854
19590W        W23658   6.820   5.453   8.276
19591W        W23659   5.722   4.111   8.292
19592W        W23660   4.379   6.805   7.975
19593W        W23661   3.750   4.304   8.574
19594W        W23662   6.536   4.911   9.048
19595W        W23663   3.994   6.528   8.963
19596W        W23664   5.335   6.878   7.833
19597W        W23665   6.727   4.904   7.297
19598W        W23666   3.750   6.662   9.461
19599W        W23667   4.541   6.234   9.941
19600W        W23668   4.914   5.594   8.560
19601W        W23669   4.936   3.999   9.653
19602W        W23670   7.165   3.761   8.950
19603W        W23671   4.384   5.633   7.418
19604W        W23672   4.039   4.666   7.597
19605W        W23673   4.101   6.622   8.391
19606W        W23674   5.232   6.105   8.639
19607W        W23675   6.564   6.964  10.353
19608W        W23676   5.490   4.606   8.037
19609W        W23677   6.873   7.004   8.809
19610W        W23678   6.550   4.857  10.407
19611W        W23679   7.263   6.513   8.541
19612W        W23680   5.890   5.805  10.025
19613W        W23681   3.656   5.356   8.231
19614W        W23682   4.767   5.771   9.804
19615W        W23683   5.971   5.035   8.182
19616W        W23684   5.848   5.525   8.286
19617W        W23685   4.191   4.945   9.760
19618W        W23686   4.176   4.821  10.682
19619W        W23687   4.066   3.738   8.841
19620W        W23688   5.834   4.085   9.402
19621W        W23689   5.482   4.270  10.565
19622W        W23690   5.837   4.419   7.743
19623W        W23691   7.020   6.812  10.497
19624W        W23692   5.987   3.893  10.536
19625W        W23693   7.006   6.194  10.658
19626W        W23694   6.436   4.361  10.254
19627W        W23695   6.236   4.299   8.524
19628W        W23696   6.629   5.433  10.928
19629W        W23697   4.369   7.009   8.914
19630W        W23698   5.027   4.726   7.900
19631W        W23699   4.596   4.010  10.564
19632W        W23700   6.648   4.494   8.245
19633W        W23701   7.015   4.976   8.190
19634W        W23702   4.758   7.193  10.661
19635W        W23703   4.684   3.729   7.896
19636W        W23704   7.005   4.263   8.931
19637W        W23705   7.155   6.512   7.376
19638W        W23706   4.062   5.715   9.078
19639W        W23707   5.979   4.302   7.308
19640W        W23708   7.113   6.634   9.028
19641W        W23709   7.152   3.828   9.778
19642W        W23710   5.597   5.040  10.332
19643W        W23711   5.690   6.379   8.035
19644W        W23712   6.090   5.673  10.775
19645W        W23713   5.764   3.650   9.084
19646W        W23714   4.376   4.553   9.147
19647W        W23715   3.930   5.753   9.921
19648W        W23716   5.789   6.946   8.627
19649W        W23717   6.983   4.543   9.499
19650W        W23718   5.620   6.890  10.266
19651W        W23719   6.963   5.949   7.471
19652W        W23720   5.398   5.432   8.532
19653W        W23721   7.250   3.943  10.273
19654W        W23722   5.399   5.778   9.867
19655W        W23723   5.616   4.664   9.312
19656W        W23724   6.468   4.962   8.150
19657W        W23725   6.755   4.695   7.792
19658W        W23726   6.564   6.735   8.181
19659W        W23727   6.398   6.338   8.977
19660W        W23728   6.294   5.417   7.955
19661W        W23729   5.727   5.627   8.941
19662W        W23730   6.608   5.415   9.008
19663W        W23731   3.983   4.430   9.432
19664W        W23732   6.761   5.482  10.259
19665W        W23733   7.112   7.100   9.405
19666W        W23734   5.042   6.544   8.807
19667W        W23735   6.049   7.077  10.131
19668W        W23736   6.043   4.407   9.895
19669W        W23737   5.250   7.115   9.956
19670W        W23738   6.947   4.069   8.422
19671W        W23739   6.738   5.388   9.723
19672W        W23740   3.721   4.709   9.761
19673W        W23741   6.581   4.504   8.779
19674W        W23742   6.992   4.655  10.556
19675W        W23743   5.877   6.354   8.774
19676W        W23744   5.133   6.945   8.387
19677W        W23745   4.248   4.125   7.645
19678W        W23746   5.352   3.779   9.455
19679W        W23747   4.380   6.899   7.303
19680W        W23748   4.754   5.365   8.054
19681W        W23749   5.408   5.994  10.367
19682W        W23750   5.238   4.352   8.357
19683W        W23751   6.594   3.949   8.785
19684W        W23752   6.314   7.231   9.113
19685W        W23753   5.726   6.879   9.453
19686W        W23754   5.122   5.916   9.414
19687W        W23755   6.892   6.639   9.540
19688W        W23756   4.586   4.142   8.309
19689W        W23757   5.108   6.439   9.269
19690W        W23758   4.591   4.370   7.334
19691W        W23759   5.392   4.979   9.728
19692W        W23760   6.240   3.845   9.598
19693W        W23761   3.660   5.688   9.483
19694W        W23762   5.364   5.506   7.641
19695W        W23763   4.632   3.821   7.411
19696W        W23764   5.370   4.902   8.462
19697W        W23765   6.340   3.878  10.161
19698W        W23766   4.928   5.890  10.270
19699W        W23767   5.732   5.672  10.487
19700W        W23768   6.349   5.702  10.380
19701W        W23769   5.633   3.842  10.885
19702W        W23770   4.855   4.458   9.278
19703W        W23771   4.281   4.414   8.676
19704W        W23772   4.067   7.126   8.352
19705W        W23773   5.399   6.456  10.477
19706W        W23774   4.434   5.941   7.836
19707W        W23775   6.114   5.326   9.057
19708W        W23776   6.394   5.125   9.456
19709W        W23777   5.599   5.799   9.390
19710W        W23778   6.069   6.173   7.522
19711W        W23779   5.741   4.194   8.850
19712W        W23780   7.220   4.472   8.118
19713W        W23781   3.714   7.061  10.149
19714W        W23782   4.131   6.287   9.681
19715W        W23783   3.698   7.133   7.913
19716W        W23784   5.597   4.403   9.719
19717W        W23785   6.865   6.808   7.754
19718W        W23786   5.840   5.461   7.768
19719W        W23787   4.683   4.652   8.285
19720W        W23788   5.515   4.562   7.337
19721W        W23789   6.099   6.127  10.515
19722W        W23790   6.452   4.033   8.132
19723W        W23791   3.782   3.881   7.580
19724W        W23792   5.068   6.200   9.870
19725W        W23793   4.867   6.116   8.962
19726W        W23794   4.609   6.068   7.360
19727W        W23795   3.850   6.309   8.128
19728W        W23796   4.354   5.379  10.570
19729W        W23797   5.058   3.939  10.756
19730W        W23798   5.767   4.081  10.112
19731W        W23799   4.962   3.849   8.393
19732W        W23800   6.021   3.926   7.898
19733W        W23801   3.966   3.858   9.475
19734W        W23802   4.014   4.821   8.845
19735W        W23803   6.703   3.929   9.251
19736W        W23804   4.125   4.427   8.065
19737W        W23805   6.696   4.115   9.681
19738W        W23806   7.092   5.318   7.366
19739W        W23807   4.384   4.076   9.185
19740W        W23808   5.498   4.648  10.125
19741W        W23809   3.646   4.338   7.603
19742W        W23810   4.432   5.727  10.164
19743W        W23811   5.790   5.125   9.343
19744W        W23812   5.657   7.204   7.639
19745W        W23813   3.803   5.711   7.336
19746W        W23814   4.538   6.122  10.462
19747W        W23815   4.059   5.289  10.093
19748W        W23816   5.050   5.394   9.887
19749W        W23817   6.818   3.753  10.149
19750W        W23818   7.216   5.363  10.140
19751W        W23819   7.204   5.563   7.826
19752W        W23820   6.067   5.895   7.925
19753W        W23821   6.541   7.195   7.620
19754W        W23822   5.718   5.185  10.762
19755W        W23823   4.048   6.152  10.802
19756W        W23824   7.254   4.074  10.754
19757W        W23825   6.972   5.002   9.375
19758W        W23826   5.280   7.132  10.852
19759W        W23827   5.135   3.761   7.579
19760W        W23828   6.674   6.360   7.522
19761W        W23829   4.443   4.453  10.408
19762W        W23830   4.877   6.447  10.270
19763W        W23831   7.003   4.438  10.068
19764W        W23832   6.214   7.097   8.036
19765W        W23833   6.453   5.716   9.403
19766W        W23834   4.703   4.132  10.070
19767W        W23835   5.172   5.201  10.827
19768W        W23836   4.675   6.380   8.021
19769W        W23837   6.430   5.878   8.285
19770W        W23838   4.198   4.504  10.009
19771W        W23839   5.527   6.566   8.473
19772W        W23840   7.277   5.126   8.654
19773W        W23841   5.499   3.759  10.373
19774W        W23842   6.279   6.464   9.452
19775W        W23843   6.582   6.808   9.160
19776W        W23844   5.801   6.610   7.588
19777W        W23845   3.811   6.502  10.430
19778W        W23846   4.554   4.494   9.668
19779W        W23847   4.524   3.842   8.778
19780W        W23848   6.145   4.684   9.470
19781W        W23849   4.943   5.855   7.670
19782W        W23850   6.941   5.797   9.169
19783W        W23851   4.268   6.555  10.592
19784W        W23852   6.655   7.237   8.389
19785W        W23853   4.754   4.257   8.834
19786W        W23854   4.523   5.750   8.924
19787W        W23855   4.836   7.161   9.674
19788W        W23856   6.903   7.257  10.706
19789W        W23857   6.062   5.445   9.639
19790W        W23858   3.911   5.243   7.554
19791W        W23859   7.045   6.901   8.251
19792W        W23860   6.882   4.225   7.870
19793W        W23861   5.021   3.744  10.273
19794W        W23862   6.727   6.546   8.731
19795W        W23863   6.756   5.102   8.636
19796W        W23864   4.873   4.775   8.852
19797W        W23865   5.118   5.037  10.176
19798W        W23866   6.229   6.190  10.039
19799W        W23867   4.879   4.644  10.151
19800W        W23868   4.175   7.069  10.401
19801W        W23869   4.287   6.430   7.531
19802W        W23870   6.804   6.188   8.341
19803W        W23871   4.408   4.980  10.227
19804W        W23872   7.181   4.910   7.708
19805W        W23873   4.926   5.967   8.179
19806W        W23874   6.025   5.349  10.260
19807W        W23875   5.916   4.977   9.804
19808W        W23876   4.476   5.349   9.833
19809W        W23877   6.686   7.237   9.662
19810W        W23878   6.477   3.871  10.656
19811W        W23879   4.141   4.021  10.243
19812W        W23880   4.480   5.044   9.296
19813W        W23881   4.849   4.858   7.418
19814W        W23882   3.652   6.617   9.963
19815W        W23883   5.237   5.326   9.406
19816W        W23884   5.060   4.351   7.511
19817W        W23885   4.195   5.167   8.292
19818W        W23886   3.966   7.019   9.729
19819W        W23887   6.761   5.245   7.837
19820W        W23888   6.856   4.161  10.523
19821W        W23889   6.292   6.370   8.486
19822W        W23890   3.890   5.294  10.663
19823W        W23891   6.856   3.758   7.959
19824W        W23892   6.376   6.233   7.970
19825W        W23893   5.278   5.291   8.055
19826W        W23894   6.465   4.095   7.578
19827W        W23895   6.530   4.702   9.764
19828W        W23896   4.239   5.295   8.971
19829W        W23897   4.533   6.234   8.620
19830W        W23898   6.296   4.854   8.585
19831W        W23899   5.319   4.233   9.281
19832W        W23900   7.281   6.144   9.792
19833W        W23901   7.199   4.131   9.353
19834W        W23902   3.738   6.961   8.729
19835W        W23903   4.247   6.148   8.265
19836W        W23904   4.162   3.765  10.818
19837W        W23905   5.281   6.618  10.920
19838W        W23906   7.036   5.586   8.710
19839W        W23907   6.390   5.763   7.590
19840W        W23908   5.685   7.284   9.802
19841W        W23909   6.542   6.006  10.839
19842W        W23910   5.357   3.716   8.119
19843W        W23911   6.070   4.585   8.978
19844W        W23912   3.756   6.172   9.310
19845W        W23913   5.009   4.134   7.951
19846W        W23914   4.813   5.618  10.800
19847W        W23915   5.807   4.599   8.514
19848W        W23916   6.012   6.009   9.636
19849W        W23917   4.166   6.614  10.071
19850W        W23918   4.757   6.597  10.794
19851W        W23919   4.608   4.394   7.808
19852W        W23920   6.125   4.536   8.133
19853W        W23921   6.083   6.644  10.370
19854W        W23922   4.768   5.236   8.969
19855W        W23923   4.423   6.934   9.834
19856W        W23924   7.168   7.051   7.435
19857W        W23925   4.031   5.723  10.431
19858W        W23926   6.026   5.985   9.119
19859W        W23927   4.462   5.634   8.361
19860W        W23928   4.833   6.641   9.756
19861W        W23929   5.211   4.060   8.797
19862W        W23930   3.822   6.044   7.727
19863W        W23931   5.341   4.995   7.597
19864W        W23932   3.987   5.544   8.616
19865W        W23933   5.277   4.186  10.080
19866W        W23934   6.949   3.895   7.507
19867W        W23935   7.042   5.641  10.606
19868W        W23936   5.696   6.898  10.758
19869W        W23937   7.254   5.992  10.280
19870W        W23938   6.662   6.790  10.891
19871W        W23939   4.401   7.246   9.369
19872W        W23940   7.260   5.868   8.243
19873W        W23941   5.790   5.135   8.756
19874W        W23942   5.557   3.747   8.646
19875W        W23943   4.616   6.731   8.483
19876W        W23944   5.115   4.472   9.708
19877W        W23945   4.815   3.841   9.177
19878W        W23946   3.878   6.663   7.725
19879W        W23947   5.694   6.027   8.443
19880W        W23948   4.569   6.822  10.322
19881W        W23949   4.046   5.645   8.018
19882W        W23950   3.931   4.188   9.017
19883W        W23951   5.479   6.153   9.074
19884W        W23952   3.731   4.007   8.094
19885W        W23953   6.395   5.213  10.021
19886W        W23954   6.272   4.599   7.593
19887W        W23955   6.789   6.271   9.241
19888W        W23956   5.450   6.755   9.072
19889W        W23957   4.862   6.859   7.983
19890W        W23958   6.144   3.762   7.413
19891W        W23959   3.944   7.022   9.154
19892W        W23960   6.141   4.780  10.789
19893W        W23961   4.124   4.310  10.788
19894W        W23962   3.855   4.910   8.121
19895W        W23963   4.546   4.899   7.846
19896W        W23964   6.309   5.226  10.663
19897W        W23965   4.652   5.507   9.372
19898W        W23966   6.126   3.793   8.492
19899W        W23967   6.471   6.686   9.932
19900W        W23968   6.055   6.835   9.043
19901W        W23969   6.074   5.815   8.637
19902W        W23970   5.536   4.040   7.708
19903W        W23971   7.217   3.668   8.430
19904W        W23972   4.905   5.303   7.593
19905W        W23973   7.071   4.640   8.583
19906W        W23974   5.763   5.810   7.460
19907W        W23975   6.699   6.010  10.208
19908W        W23976   6.353   6.711   7.675
19909W        W23977   4.968   4.386  10.581
19910W        W23978   4.788   4.970   9.822
19911W        W23979   6.880   6.465  10.099
19912W        W23980   5.980   4.415  10.476
19913W        W23981   3.824   4.886  10.253
19914W        W23982   5.584   5.363   9.979
19915W        W23983   3.941   6.121   8.636
19916W        W23984   4.088   5.418   9.526
19917W        W23985   6.405   5.704   9.876
19918W        W23986   6.177   7.084  10.687
19919W        W23987   6.073   4.823  10.240
19920W        W23988   6.350   6.877   8.645
19921W        W23989   5.352   6.597   9.968
19922W        W23990   4.837   6.952   9.237
19923W        W23991   6.642   6.123   9.656
19924W        W23992   5.692   6.195  10.793
19925W        W23993   4.297   6.148   9.132
19926W        W23994   6.643   5.907   8.777
19927W        W23995   6.284   6.973   9.528
19928W        W23996   4.262   6.702   9.398
19929W        W23997   5.283   4.754  10.608
19930W        W23998   5.734   6.920   8.119
19931W        W23999   5.042   6.175  10.757
19932W        W24000   5.168   6.413   8.134
19933W        W24001   4.389   5.153   7.393
19934W        W24002   3.728   7.239  14.292
19935W        W24003   4.104   6.132  13.815
19936W        W24004   6.809   5.862  11.585
19937W        W24005   6.939   6.947  13.612
19938W        W24006   4.857   6.938  11.138
19939W        W24007   4.940   5.090  12.121
19940W        W24008   4.455   4.938  12.285
19941W        W24009   5.446   5.753  11.719
19942W        W24010   5.121   6.845  14.074
19943W        W24011   3.770   4.406  14.037
19944W        W24012   4.532   3.686  13.839
19945W        W24013   6.226   4.074  12.726
19946W        W24014   5.875   4.945  11.296
19947W        W24015   6.445   4.379  14.387
19948W        W24016   3.811   4.171  13.512
19949W        W24017   3.910   6.790  14.533
19950W        W24018   5.432   6.180  11.265
19951W        W24019   3.864   4.963  12.958
19952W        W24020   4.757   4.854  14.195
19953W        W24021   7.216   4.713  12.694
19954W        W24022   6.980   5.756  13.553
19955W        W24023   5.288   5.089  12.580
19956W        W24024   5.834   6.428  12.949
19957W        W24025   4.334   5.862  13.181
19958W        W24026   3.693   5.390  12.752
19959W        W24027   4.729   5.362  13.944
19960W        W24028   7.000   5.145  14.198
19961W        W24029   4.616   6.589  12.643
19962W        W24030   5.737   6.278  13.777
19963W        W24031   4.957   4.918  13.002
19964W        W24032   5.249   5.702  12.645
19965W        W24033   6.246   6.475  14.493
19966W        W24034   5.325   5.795  14.503
19967W        W24035   5.306   5.511  13.981
19968W        W24036   3.715   4.902  14.503
19969W        W24037   6.547   6.437  14.102
19970W        W24038   4.128   4.019  12.100
19971W        W24039   4.655   6.277  13.099
19972W        W24040   7.118   6.060  12.389
19973W        W24041   6.531   4.460  12.956
19974W        W24042   6.816   4.413  11.051
19975W        W24043   7.281   5.214  13.357
19976W        W24044   5.248   6.921  13.110
19977W        W24045   7.022   6.387  11.548
19978W        W24046   4.151   7.173  11.302
19979W        W24047   4.544   7.219  11.978
19980W        W24048   4.341   3.973  13.404
19981W        W24049   6.964   4.991  13.679
19982W        W24050   6.369   5.413  12.138
19983W        W24051   6.335   5.101  11.165
19984W        W24052   5.543   6.245  13.305
19985W        W24053   5.349   4.575  12.504
19986W        W24054   5.949   6.662  13.498
19987W        W24055   6.820   5.453  11.920
19988W        W24056   5.722   4.111  11.936
19989W        W24057   4.379   6.805  11.619
19990W        W24058   3.750   4.304  12.218
19991W        W24059   6.536   4.911  12.692
19992W        W24060   3.994   6.528  12.607
19993W        W24061   5.335   6.878  11.477
19994W        W24062   6.727   4.904  10.941
19995W        W24063   3.750   6.662  13.105
19996W        W24064   4.541   6.234  13.585
19997W        W24065   4.914   5.594  12.204
19998W        W24066   4.936   3.999  13.297
19999W        W24067   7.165   3.761  12.594
20000W        W24068   4.384   5.633  11.062
20001W        W24069   4.039   4.666  11.241
20002W        W24070   4.101   6.622  12.035
20003W        W24071   5.232   6.105  12.283
20004W        W24072   6.564   6.964  13.997
20005W        W24073   5.490   4.606  11.681
20006W        W24074   6.873   7.004  12.453
20007W        W24075   6.550   4.857  14.051
20008W        W24076   7.263   6.513  12.185
20009W        W24077   5.890   5.805  13.669
20010W        W24078   3.656   5.356  11.875
20011W        W24079   4.767   5.771  13.448
20012W        W24080   5.971   5.035  11.826
20013W        W24081   5.848   5.525  11.930
20014W        W24082   4.191   4.945  13.404
20015W        W24083   4.176   4.821  14.326
20016W        W24084   4.066   3.738  12.485
20017W        W24085   5.834   4.085  13.046
20018W        W24086   5.482   4.270  14.209
20019W        W24087   5.837   4.419  11.387
20020W        W24088   7.020   6.812  14.141
20021W        W24089   5.987   3.893  14.180
20022W        W24090   7.006   6.194  14.302
20023W        W24091   6.436   4.361  13.898
20024W        W24092   6.236   4.299  12.168
20025W        W24093   6.629   5.433  14.572
20026W        W24094   4.369   7.009  12.558
20027W        W24095   5.027   4.726  11.544
20028W        W24096   4.596   4.010  14.208
20029W        W24097   6.648   4.494  11.889
20030W        W24098   7.015   4.976  11.834
20031W        W24099   4.758   7.193  14.305
20032W        W24100   4.684   3.729  11.540
20033W        W24101   7.005   4.263  12.575
20034W        W24102   7.155   6.512  11.020
20035W        W24103   4.062   5.715  12.722
20036W        W24104   5.979   4.302  10.952
20037W        W24105   7.113   6.634  12.672
20038W        W24106   7.152   3.828  13.422
20039W        W24107   5.597   5.040  13.976
20040W        W24108   5.690   6.379  11.679
20041W        W24109   6.090   5.673  14.419
20042W        W24110   5.764   3.650  12.728
20043W        W24111   4.376   4.553  12.791
20044W        W24112   3.930   5.753  13.565
20045W        W24113   5.789   6.946  12.271
20046W        W24114   6.983   4.543  13.143
20047W        W24115   5.620   6.890  13.910
20048W        W24116   6.963   5.949  11.115
20049W        W24117   5.398   5.432  12.176
20050W        W24118   7.250   3.943  13.917
20051W        W24119   5.399   5.778  13.511
20052W        W24120   5.616   4.664  12.956
20053W        W24121   6.468   4.962  11.794
20054W        W24122   6.755   4.695  11.436
20055W        W24123   6.564   6.735  11.825
20056W        W24124   6.398   6.338  12.621
20057W        W24125   6.294   5.417  11.599
20058W        W24126   5.727   5.627  12.585
20059W        W24127   6.608   5.415  12.652
20060W        W24128   3.983   4.430  13.076
20061W        W24129   6.761   5.482  13.903
20062W        W24130   7.112   7.100  13.049
20063W        W24131   5.042   6.544  12.451
20064W        W24132   6.049   7.077  13.775
20065W        W24133   6.043   4.407  13.539
20066W        W24134   5.250   7.115  13.600
20067W        W24135   6.947   4.069  12.066
20068W        W24136   6.738   5.388  13.367
20069W        W24137   3.721   4.709  13.405
20070W        W24138   6.581   4.504  12.423
20071W        W24139   6.992   4.655  14.200
20072W        W24140   5.877   6.354  12.418
20073W        W24141   5.133   6.945  12.031
20074W        W24142   4.248   4.125  11.289
20075W        W24143   5.352   3.779  13.099
20076W        W24144   4.380   6.899  10.947
20077W        W24145   4.754   5.365  11.698
20078W        W24146   5.408   5.994  14.011
20079W        W24147   5.238   4.352  12.001
20080W        W24148   6.594   3.949  12.429
20081W        W24149   6.314   7.231  12.757
20082W        W24150   5.726   6.879  13.097
20083W        W24151   5.122   5.916  13.058
20084W        W24152   6.892   6.639  13.184
20085W        W24153   4.586   4.142  11.953
20086W        W24154   5.108   6.439  12.913
20087W        W24155   4.591   4.370  10.978
20088W        W24156   5.392   4.979  13.372
20089W        W24157   6.240   3.845  13.242
20090W        W24158   3.660   5.688  13.127
20091W        W24159   5.364   5.506  11.285
20092W        W24160   4.632   3.821  11.055
20093W        W24161   5.370   4.902  12.106
20094W        W24162   6.340   3.878  13.805
20095W        W24163   4.928   5.890  13.914
20096W        W24164   5.732   5.672  14.131
20097W        W24165   6.349   5.702  14.024
20098W        W24166   5.633   3.842  14.529
20099W        W24167   4.855   4.458  12.922
20100W        W24168   4.281   4.414  12.320
20101W        W24169   4.067   7.126  11.996
20102W        W24170   5.399   6.456  14.121
20103W        W24171   4.434   5.941  11.480
20104W        W24172   6.114   5.326  12.701
20105W        W24173   6.394   5.125  13.100
20106W        W24174   5.599   5.799  13.034
20107W        W24175   6.069   6.173  11.166
20108W        W24176   5.741   4.194  12.494
20109W        W24177   7.220   4.472  11.762
20110W        W24178   3.714   7.061  13.793
20111W        W24179   4.131   6.287  13.325
20112W        W24180   3.698   7.133  11.557
20113W        W24181   5.597   4.403  13.363
20114W        W24182   4.960   6.426  11.212
20115W        W24183   6.865   6.808  11.398
20116W        W24184   5.840   5.461  11.412
20117W        W24185   4.683   4.652  11.929
20118W        W24186   5.515   4.562  10.981
20119W        W24187   6.099   6.127  14.159
20120W        W24188   6.452   4.033  11.776
20121W        W24189   3.782   3.881  11.224
20122W        W24190   5.068   6.200  13.514
20123W        W24191   4.867   6.116  12.606
20124W        W24192   4.609   6.068  11.004
20125W        W24193   3.850   6.309  11.772
20126W        W24194   4.354   5.379  14.214
20127W        W24195   5.058   3.939  14.400
20128W        W24196   5.767   4.081  13.756
20129W        W24197   4.962   3.849  12.037
20130W        W24198   6.021   3.926  11.542
20131W        W24199   3.966   3.858  13.119
20132W        W24200   4.014   4.821  12.489
20133W        W24201   6.703   3.929  12.895
20134W        W24202   4.125   4.427  11.709
20135W        W24203   6.696   4.115  13.325
20136W        W24204   7.092   5.318  11.010
20137W        W24205   4.384   4.076  12.829
20138W        W24206   5.498   4.648  13.769
20139W        W24207   3.646   4.338  11.247
20140W        W24208   4.432   5.727  13.808
20141W        W24209   5.790   5.125  12.987
20142W        W24210   5.657   7.204  11.283
20143W        W24211   3.803   5.711  10.980
20144W        W24212   4.538   6.122  14.106
20145W        W24213   4.059   5.289  13.737
20146W        W24214   5.050   5.394  13.531
20147W        W24215   6.818   3.753  13.793
20148W        W24216   7.216   5.363  13.784
20149W        W24217   7.204   5.563  11.470
20150W        W24218   6.067   5.895  11.569
20151W        W24219   6.541   7.195  11.264
20152W        W24220   5.718   5.185  14.406
20153W        W24221   4.048   6.152  14.446
20154W        W24222   7.254   4.074  14.398
20155W        W24223   6.972   5.002  13.019
20156W        W24224   5.280   7.132  14.496
20157W        W24225   5.135   3.761  11.223
20158W        W24226   6.674   6.360  11.166
20159W        W24227   4.443   4.453  14.052
20160W        W24228   4.877   6.447  13.914
20161W        W24229   7.003   4.438  13.712
20162W        W24230   6.214   7.097  11.680
20163W        W24231   6.453   5.716  13.047
20164W        W24232   4.703   4.132  13.714
20165W        W24233   5.172   5.201  14.471
20166W        W24234   4.675   6.380  11.665
20167W        W24235   6.430   5.878  11.929
20168W        W24236   4.198   4.504  13.653
20169W        W24237   5.527   6.566  12.117
20170W        W24238   7.277   5.126  12.298
20171W        W24239   5.499   3.759  14.017
20172W        W24240   6.279   6.464  13.096
20173W        W24241   6.582   6.808  12.804
20174W        W24242   5.801   6.610  11.232
20175W        W24243   3.811   6.502  14.074
20176W        W24244   4.554   4.494  13.312
20177W        W24245   4.524   3.842  12.422
20178W        W24246   6.145   4.684  13.114
20179W        W24247   4.943   5.855  11.314
20180W        W24248   6.941   5.797  12.813
20181W        W24249   4.268   6.555  14.236
20182W        W24250   6.655   7.237  12.033
20183W        W24251   4.754   4.257  12.478
20184W        W24252   4.523   5.750  12.568
20185W        W24253   4.836   7.161  13.318
20186W        W24254   6.903   7.257  14.350
20187W        W24255   6.062   5.445  13.283
20188W        W24256   3.911   5.243  11.198
20189W        W24257   7.045   6.901  11.895
20190W        W24258   6.882   4.225  11.514
20191W        W24259   5.021   3.744  13.917
20192W        W24260   6.727   6.546  12.375
20193W        W24261   6.756   5.102  12.280
20194W        W24262   4.873   4.775  12.496
20195W        W24263   5.118   5.037  13.820
20196W        W24264   6.229   6.190  13.683
20197W        W24265   4.879   4.644  13.795
20198W        W24266   4.858   7.110  12.411
20199W        W24267   4.175   7.069  14.045
20200W        W24268   4.287   6.430  11.175
20201W        W24269   6.804   6.188  11.985
20202W        W24270   4.408   4.980  13.871
20203W        W24271   7.181   4.910  11.352
20204W        W24272   4.926   5.967  11.823
20205W        W24273   6.025   5.349  13.904
20206W        W24274   5.916   4.977  13.448
20207W        W24275   4.476   5.349  13.477
20208W        W24276   6.686   7.237  13.306
20209W        W24277   6.477   3.871  14.300
20210W        W24278   4.141   4.021  13.887
20211W        W24279   4.480   5.044  12.940
20212W        W24280   4.849   4.858  11.062
20213W        W24281   3.652   6.617  13.607
20214W        W24282   5.237   5.326  13.050
20215W        W24283   5.060   4.351  11.155
20216W        W24284   4.195   5.167  11.936
20217W        W24285   3.966   7.019  13.373
20218W        W24286   6.761   5.245  11.481
20219W        W24287   6.856   4.161  14.167
20220W        W24288   6.292   6.370  12.130
20221W        W24289   3.890   5.294  14.307
20222W        W24290   6.856   3.758  11.603
20223W        W24291   6.376   6.233  11.614
20224W        W24292   5.278   5.291  11.699
20225W        W24293   6.465   4.095  11.222
20226W        W24294   6.530   4.702  13.408
20227W        W24295   4.239   5.295  12.615
20228W        W24296   4.533   6.234  12.264
20229W        W24297   6.296   4.854  12.229
20230W        W24298   5.319   4.233  12.925
20231W        W24299   7.281   6.144  13.436
20232W        W24300   7.199   4.131  12.997
20233W        W24301   3.738   6.961  12.373
20234W        W24302   4.247   6.148  11.909
20235W        W24303   4.162   3.765  14.462
20236W        W24304   5.281   6.618  14.564
20237W        W24305   7.036   5.586  12.354
20238W        W24306   6.390   5.763  11.234
20239W        W24307   5.685   7.284  13.446
20240W        W24308   6.542   6.006  14.483
20241W        W24309   5.357   3.716  11.763
20242W        W24310   6.070   4.585  12.622
20243W        W24311   3.756   6.172  12.954
20244W        W24312   5.009   4.134  11.595
20245W        W24313   4.813   5.618  14.444
20246W        W24314   5.807   4.599  12.158
20247W        W24315   6.012   6.009  13.280
20248W        W24316   4.166   6.614  13.715
20249W        W24317   4.757   6.597  14.438
20250W        W24318   4.608   4.394  11.452
20251W        W24319   6.125   4.536  11.777
20252W        W24320   6.083   6.644  14.014
20253W        W24321   4.768   5.236  12.613
20254W        W24322   4.423   6.934  13.478
20255W        W24323   7.168   7.051  11.079
20256W        W24324   4.031   5.723  14.075
20257W        W24325   6.026   5.985  12.763
20258W        W24326   4.462   5.634  12.005
20259W        W24327   4.833   6.641  13.400
20260W        W24328   5.211   4.060  12.441
20261W        W24329   3.822   6.044  11.371
20262W        W24330   5.341   4.995  11.241
20263W        W24331   3.987   5.544  12.260
20264W        W24332   5.277   4.186  13.724
20265W        W24333   6.949   3.895  11.151
20266W        W24334   7.042   5.641  14.250
20267W        W24335   5.696   6.898  14.402
20268W        W24336   7.254   5.992  13.924
20269W        W24337   6.662   6.790  14.535
20270W        W24338   4.401   7.246  13.013
20271W        W24339   7.260   5.868  11.887
20272W        W24340   5.790   5.135  12.400
20273W        W24341   5.557   3.747  12.290
20274W        W24342   4.616   6.731  12.127
20275W        W24343   5.115   4.472  13.352
20276W        W24344   4.815   3.841  12.821
20277W        W24345   3.878   6.663  11.369
20278W        W24346   5.694   6.027  12.087
20279W        W24347   4.569   6.822  13.966
20280W        W24348   4.046   5.645  11.662
20281W        W24349   3.931   4.188  12.661
20282W        W24350   5.479   6.153  12.718
20283W        W24351   3.731   4.007  11.738
20284W        W24352   6.395   5.213  13.665
20285W        W24353   6.272   4.599  11.237
20286W        W24354   6.789   6.271  12.885
20287W        W24355   5.450   6.755  12.716
20288W        W24356   4.862   6.859  11.627
20289W        W24357   6.144   3.762  11.057
20290W        W24358   3.944   7.022  12.798
20291W        W24359   6.141   4.780  14.433
20292W        W24360   4.124   4.310  14.432
20293W        W24361   3.855   4.910  11.765
20294W        W24362   4.546   4.899  11.490
20295W        W24363   6.309   5.226  14.307
20296W        W24364   4.652   5.507  13.016
20297W        W24365   6.126   3.793  12.136
20298W        W24366   5.257   7.224  12.639
20299W        W24367   6.471   6.686  13.576
20300W        W24368   6.055   6.835  12.687
20301W        W24369   6.074   5.815  12.281
20302W        W24370   5.536   4.040  11.352
20303W        W24371   7.217   3.668  12.074
20304W        W24372   4.905   5.303  11.237
20305W        W24373   7.071   4.640  12.227
20306W        W24374   5.763   5.810  11.104
20307W        W24375   6.699   6.010  13.852
20308W        W24376   6.353   6.711  11.319
20309W        W24377   4.968   4.386  14.225
20310W        W24378   4.788   4.970  13.466
20311W        W24379   6.880   6.465  13.743
20312W        W24380   5.980   4.415  14.120
20313W        W24381   3.824   4.886  13.897
20314W        W24382   5.584   5.363  13.623
20315W        W24383   3.941   6.121  12.280
20316W        W24384   4.088   5.418  13.170
20317W        W24385   6.405   5.704  13.520
20318W        W24386   6.177   7.084  14.331
20319W        W24387   6.073   4.823  13.884
20320W        W24388   6.350   6.877  12.289
20321W        W24389   5.352   6.597  13.612
20322W        W24390   4.837   6.952  12.881
20323W        W24391   6.642   6.123  13.300
20324W        W24392   5.692   6.195  14.437
20325W        W24393   4.297   6.148  12.776
20326W        W24394   6.643   5.907  12.421
20327W        W24395   6.284   6.973  13.172
20328W        W24396   4.262   6.702  13.042
20329W        W24397   5.283   4.754  14.252
20330W        W24398   5.734   6.920  11.763
20331W        W24399   5.042   6.175  14.401
20332W        W24400   5.168   6.413  11.778
20333W        W24401   4.389   5.153  11.037
20334W        W24402   3.728   7.239  17.936
20335W        W24403   4.104   6.132  17.459
20336W        W24404   6.809   5.862  15.229
20337W        W24405   6.939   6.947  17.256
20338W        W24406   4.857   6.938  14.782
20339W        W24407   4.940   5.090  15.765
20340W        W24408   4.455   4.938  15.929
20341W        W24409   5.446   5.753  15.363
20342W        W24410   5.121   6.845  17.718
20343W        W24411   3.770   4.406  17.681
20344W        W24412   4.532   3.686  17.483
20345W        W24413   6.226   4.074  16.370
20346W        W24414   5.875   4.945  14.940
20347W        W24415   6.445   4.379  18.031
20348W        W24416   3.811   4.171  17.156
20349W        W24417   3.910   6.790  18.177
20350W        W24418   5.432   6.180  14.909
20351W        W24419   3.864   4.963  16.602
20352W        W24420   4.757   4.854  17.839
20353W        W24421   7.216   4.713  16.338
20354W        W24422   6.980   5.756  17.197
20355W        W24423   5.288   5.089  16.224
20356W        W24424   5.834   6.428  16.593
20357W        W24425   4.334   5.862  16.825
20358W        W24426   3.693   5.390  16.396
20359W        W24427   4.729   5.362  17.588
20360W        W24428   7.000   5.145  17.842
20361W        W24429   4.616   6.589  16.287
20362W        W24430   5.737   6.278  17.421
20363W        W24431   4.957   4.918  16.646
20364W        W24432   5.249   5.702  16.289
20365W        W24433   6.246   6.475  18.137
20366W        W24434   5.325   5.795  18.147
20367W        W24435   5.306   5.511  17.625
20368W        W24436   3.715   4.902  18.147
20369W        W24437   6.547   6.437  17.746
20370W        W24438   4.128   4.019  15.744
20371W        W24439   4.655   6.277  16.743
20372W        W24440   7.118   6.060  16.033
20373W        W24441   6.531   4.460  16.600
20374W        W24442   6.816   4.413  14.695
20375W        W24443   7.281   5.214  17.001
20376W        W24444   5.248   6.921  16.754
20377W        W24445   7.022   6.387  15.192
20378W        W24446   4.151   7.173  14.946
20379W        W24447   4.544   7.219  15.622
20380W        W24448   4.341   3.973  17.048
20381W        W24449   6.964   4.991  17.323
20382W        W24450   6.369   5.413  15.782
20383W        W24451   6.335   5.101  14.809
20384W        W24452   5.543   6.245  16.949
20385W        W24453   5.349   4.575  16.148
20386W        W24454   5.949   6.662  17.142
20387W        W24455   6.820   5.453  15.564
20388W        W24456   5.722   4.111  15.580
20389W        W24457   4.379   6.805  15.263
20390W        W24458   3.750   4.304  15.862
20391W        W24459   6.536   4.911  16.336
20392W        W24460   3.994   6.528  16.251
20393W        W24461   5.335   6.878  15.121
20394W        W24462   6.727   4.904  14.585
20395W        W24463   3.750   6.662  16.749
20396W        W24464   4.541   6.234  17.229
20397W        W24465   4.914   5.594  15.848
20398W        W24466   4.936   3.999  16.941
20399W        W24467   7.165   3.761  16.238
20400W        W24468   4.384   5.633  14.706
20401W        W24469   4.039   4.666  14.885
20402W        W24470   4.101   6.622  15.679
20403W        W24471   5.232   6.105  15.927
20404W        W24472   6.564   6.964  17.641
20405W        W24473   5.490   4.606  15.325
20406W        W24474   6.873   7.004  16.097
20407W        W24475   6.550   4.857  17.695
20408W        W24476   7.263   6.513  15.829
20409W        W24477   5.890   5.805  17.313
20410W        W24478   3.656   5.356  15.519
20411W        W24479   4.767   5.771  17.092
20412W        W24480   5.971   5.035  15.470
20413W        W24481   5.848   5.525  15.574
20414W        W24482   4.191   4.945  17.048
20415W        W24483   4.176   4.821  17.970
20416W        W24484   4.066   3.738  16.129
20417W        W24485   5.834   4.085  16.690
20418W        W24486   5.482   4.270  17.853
20419W        W24487   5.837   4.419  15.031
20420W        W24488   7.020   6.812  17.785
20421W        W24489   5.987   3.893  17.824
20422W        W24490   7.006   6.194  17.946
20423W        W24491   6.436   4.361  17.542
20424W        W24492   6.236   4.299  15.812
20425W        W24493   6.629   5.433  18.216
20426W        W24494   4.369   7.009  16.202
20427W        W24495   5.027   4.726  15.188
20428W        W24496   4.596   4.010  17.852
20429W        W24497   6.648   4.494  15.533
20430W        W24498   7.015   4.976  15.478
20431W        W24499   4.758   7.193  17.949
20432W        W24500   4.684   3.729  15.184
20433W        W24501   7.005   4.263  16.219
20434W        W24502   7.155   6.512  14.664
20435W        W24503   4.062   5.715  16.366
20436W        W24504   5.979   4.302  14.596
20437W        W24505   7.113   6.634  16.316
20438W        W24506   7.152   3.828  17.066
20439W        W24507   5.597   5.040  17.620
20440W        W24508   5.690   6.379  15.323
20441W        W24509   6.090   5.673  18.063
20442W        W24510   5.764   3.650  16.372
20443W        W24511   4.376   4.553  16.435
20444W        W24512   3.930   5.753  17.209
20445W        W24513   5.789   6.946  15.915
20446W        W24514   6.983   4.543  16.787
20447W        W24515   5.620   6.890  17.554
20448W        W24516   6.963   5.949  14.759
20449W        W24517   5.398   5.432  15.820
20450W        W24518   7.250   3.943  17.561
20451W        W24519   5.399   5.778  17.155
20452W        W24520   5.616   4.664  16.600
20453W        W24521   6.468   4.962  15.438
20454W        W24522   6.755   4.695  15.080
20455W        W24523   6.564   6.735  15.469
20456W        W24524   6.398   6.338  16.265
20457W        W24525   6.294   5.417  15.243
20458W        W24526   5.727   5.627  16.229
20459W        W24527   6.608   5.415  16.296
20460W        W24528   3.983   4.430  16.720
20461W        W24529   6.761   5.482  17.547
20462W        W24530   7.112   7.100  16.693
20463W        W24531   5.042   6.544  16.095
20464W        W24532   6.049   7.077  17.419
20465W        W24533   6.043   4.407  17.183
20466W        W24534   5.250   7.115  17.244
20467W        W24535   6.947   4.069  15.710
20468W        W24536   6.738   5.388  17.011
20469W        W24537   3.721   4.709  17.049
20470W        W24538   6.581   4.504  16.067
20471W        W24539   6.992   4.655  17.844
20472W        W24540   5.877   6.354  16.062
20473W        W24541   5.133   6.945  15.675
20474W        W24542   4.248   4.125  14.933
20475W        W24543   5.352   3.779  16.743
20476W        W24544   4.380   6.899  14.591
20477W        W24545   4.754   5.365  15.342
20478W        W24546   5.408   5.994  17.655
20479W        W24547   5.238   4.352  15.645
20480W        W24548   6.594   3.949  16.073
20481W        W24549   6.314   7.231  16.401
20482W        W24550   5.726   6.879  16.741
20483W        W24551   5.122   5.916  16.702
20484W        W24552   6.892   6.639  16.828
20485W        W24553   4.586   4.142  15.597
20486W        W24554   5.108   6.439  16.557
20487W        W24555   4.591   4.370  14.622
20488W        W24556   5.392   4.979  17.016
20489W        W24557   6.240   3.845  16.886
20490W        W24558   3.660   5.688  16.771
20491W        W24559   5.364   5.506  14.929
20492W        W24560   4.632   3.821  14.699
20493W        W24561   5.370   4.902  15.750
20494W        W24562   6.340   3.878  17.449
20495W        W24563   4.928   5.890  17.558
20496W        W24564   5.732   5.672  17.775
20497W        W24565   6.349   5.702  17.668
20498W        W24566   5.633   3.842  18.173
20499W        W24567   4.855   4.458  16.566
20500W        W24568   4.281   4.414  15.964
20501W        W24569   4.067   7.126  15.640
20502W        W24570   5.399   6.456  17.765
20503W        W24571   4.434   5.941  15.124
20504W        W24572   6.114   5.326  16.345
20505W        W24573   6.394   5.125  16.744
20506W        W24574   5.599   5.799  16.678
20507W        W24575   6.069   6.173  14.810
20508W        W24576   5.741   4.194  16.138
20509W        W24577   7.220   4.472  15.406
20510W        W24578   3.714   7.061  17.437
20511W        W24579   4.131   6.287  16.969
20512W        W24580   3.698   7.133  15.201
20513W        W24581   5.597   4.403  17.007
20514W        W24582   4.960   6.426  14.856
20515W        W24583   6.865   6.808  15.042
20516W        W24584   5.840   5.461  15.056
20517W        W24585   4.683   4.652  15.573
20518W        W24586   5.515   4.562  14.625
20519W        W24587   6.099   6.127  17.803
20520W        W24588   6.452   4.033  15.420
20521W        W24589   3.782   3.881  14.868
20522W        W24590   5.068   6.200  17.158
20523W        W24591   4.867   6.116  16.250
20524W        W24592   4.609   6.068  14.648
20525W        W24593   3.850   6.309  15.416
20526W        W24594   4.354   5.379  17.858
20527W        W24595   5.058   3.939  18.044
20528W        W24596   5.767   4.081  17.400
20529W        W24597   4.962   3.849  15.681
20530W        W24598   6.021   3.926  15.186
20531W        W24599   3.966   3.858  16.763
20532W        W24600   4.014   4.821  16.133
20533W        W24601   6.703   3.929  16.539
20534W        W24602   4.125   4.427  15.353
20535W        W24603   6.696   4.115  16.969
20536W        W24604   7.092   5.318  14.654
20537W        W24605   4.384   4.076  16.473
20538W        W24606   5.498   4.648  17.413
20539W        W24607   3.646   4.338  14.891
20540W        W24608   4.432   5.727  17.452
20541W        W24609   5.790   5.125  16.631
20542W        W24610   5.657   7.204  14.927
20543W        W24611   3.803   5.711  14.624
20544W        W24612   4.538   6.122  17.750
20545W        W24613   4.059   5.289  17.381
20546W        W24614   5.050   5.394  17.175
20547W        W24615   6.818   3.753  17.437
20548W        W24616   7.216   5.363  17.428
20549W        W24617   7.204   5.563  15.114
20550W        W24618   6.067   5.895  15.213
20551W        W24619   6.541   7.195  14.908
20552W        W24620   5.718   5.185  18.050
20553W        W24621   4.048   6.152  18.090
20554W        W24622   7.254   4.074  18.042
20555W        W24623   6.972   5.002  16.663
20556W        W24624   5.280   7.132  18.140
20557W        W24625   5.135   3.761  14.867
20558W        W24626   6.674   6.360  14.810
20559W        W24627   4.443   4.453  17.696
20560W        W24628   4.877   6.447  17.558
20561W        W24629   7.003   4.438  17.356
20562W        W24630   6.214   7.097  15.324
20563W        W24631   6.453   5.716  16.691
20564W        W24632   4.703   4.132  17.358
20565W        W24633   5.172   5.201  18.115
20566W        W24634   4.675   6.380  15.309
20567W        W24635   6.430   5.878  15.573
20568W        W24636   4.198   4.504  17.297
20569W        W24637   5.527   6.566  15.761
20570W        W24638   7.277   5.126  15.942
20571W        W24639   5.499   3.759  17.661
20572W        W24640   6.279   6.464  16.740
20573W        W24641   6.582   6.808  16.448
20574W        W24642   5.801   6.610  14.876
20575W        W24643   3.811   6.502  17.718
20576W        W24644   4.554   4.494  16.956
20577W        W24645   4.524   3.842  16.066
20578W        W24646   6.145   4.684  16.758
20579W        W24647   4.943   5.855  14.958
20580W        W24648   6.941   5.797  16.457
20581W        W24649   4.268   6.555  17.880
20582W        W24650   6.655   7.237  15.677
20583W        W24651   4.754   4.257  16.122
20584W        W24652   4.523   5.750  16.212
20585W        W24653   4.836   7.161  16.962
20586W        W24654   6.903   7.257  17.994
20587W        W24655   6.062   5.445  16.927
20588W        W24656   3.911   5.243  14.842
20589W        W24657   7.045   6.901  15.539
20590W        W24658   6.882   4.225  15.158
20591W        W24659   5.021   3.744  17.561
20592W        W24660   6.727   6.546  16.019
20593W        W24661   6.756   5.102  15.924
20594W        W24662   4.873   4.775  16.140
20595W        W24663   5.118   5.037  17.464
20596W        W24664   6.229   6.190  17.327
20597W        W24665   4.879   4.644  17.439
20598W        W24666   4.858   7.110  16.055
20599W        W24667   4.175   7.069  17.689
20600W        W24668   4.287   6.430  14.819
20601W        W24669   6.804   6.188  15.629
20602W        W24670   4.408   4.980  17.515
20603W        W24671   7.181   4.910  14.996
20604W        W24672   4.926   5.967  15.467
20605W        W24673   6.025   5.349  17.548
20606W        W24674   5.916   4.977  17.092
20607W        W24675   4.476   5.349  17.121
20608W        W24676   6.686   7.237  16.950
20609W        W24677   6.477   3.871  17.944
20610W        W24678   4.141   4.021  17.531
20611W        W24679   4.480   5.044  16.584
20612W        W24680   4.849   4.858  14.706
20613W        W24681   3.652   6.617  17.251
20614W        W24682   5.237   5.326  16.694
20615W        W24683   5.060   4.351  14.799
20616W        W24684   4.195   5.167  15.580
20617W        W24685   3.966   7.019  17.017
20618W        W24686   6.761   5.245  15.125
20619W        W24687   6.856   4.161  17.811
20620W        W24688   6.292   6.370  15.774
20621W        W24689   3.890   5.294  17.951
20622W        W24690   6.856   3.758  15.247
20623W        W24691   6.376   6.233  15.258
20624W        W24692   5.278   5.291  15.343
20625W        W24693   6.465   4.095  14.866
20626W        W24694   6.530   4.702  17.052
20627W        W24695   4.239   5.295  16.259
20628W        W24696   4.533   6.234  15.908
20629W        W24697   6.296   4.854  15.873
20630W        W24698   5.319   4.233  16.569
20631W        W24699   7.281   6.144  17.080
20632W        W24700   7.199   4.131  16.641
20633W        W24701   3.738   6.961  16.017
20634W        W24702   4.247   6.148  15.553
20635W        W24703   4.162   3.765  18.106
20636W        W24704   5.281   6.618  18.208
20637W        W24705   7.036   5.586  15.998
20638W        W24706   6.390   5.763  14.878
20639W        W24707   5.685   7.284  17.090
20640W        W24708   6.542   6.006  18.127
20641W        W24709   5.357   3.716  15.407
20642W        W24710   6.070   4.585  16.266
20643W        W24711   3.756   6.172  16.598
20644W        W24712   5.009   4.134  15.239
20645W        W24713   4.813   5.618  18.088
20646W        W24714   5.807   4.599  15.802
20647W        W24715   6.012   6.009  16.924
20648W        W24716   4.166   6.614  17.359
20649W        W24717   4.757   6.597  18.082
20650W        W24718   4.608   4.394  15.096
20651W        W24719   6.125   4.536  15.421
20652W        W24720   6.083   6.644  17.658
20653W        W24721   4.768   5.236  16.257
20654W        W24722   4.423   6.934  17.122
20655W        W24723   7.168   7.051  14.723
20656W        W24724   4.031   5.723  17.719
20657W        W24725   6.026   5.985  16.407
20658W        W24726   4.462   5.634  15.649
20659W        W24727   4.833   6.641  17.044
20660W        W24728   5.211   4.060  16.085
20661W        W24729   3.822   6.044  15.015
20662W        W24730   5.341   4.995  14.885
20663W        W24731   3.987   5.544  15.904
20664W        W24732   5.277   4.186  17.368
20665W        W24733   6.949   3.895  14.795
20666W        W24734   7.042   5.641  17.894
20667W        W24735   5.696   6.898  18.046
20668W        W24736   7.254   5.992  17.568
20669W        W24737   6.662   6.790  18.179
20670W        W24738   4.401   7.246  16.657
20671W        W24739   7.260   5.868  15.531
20672W        W24740   5.790   5.135  16.044
20673W        W24741   5.557   3.747  15.934
20674W        W24742   4.616   6.731  15.771
20675W        W24743   5.115   4.472  16.996
20676W        W24744   4.815   3.841  16.465
20677W        W24745   3.878   6.663  15.013
20678W        W24746   5.694   6.027  15.731
20679W        W24747   4.569   6.822  17.610
20680W        W24748   4.046   5.645  15.306
20681W        W24749   3.931   4.188  16.305
20682W        W24750   5.479   6.153  16.362
20683W        W24751   3.731   4.007  15.382
20684W        W24752   6.395   5.213  17.309
20685W        W24753   6.272   4.599  14.881
20686W        W24754   6.789   6.271  16.529
20687W        W24755   5.450   6.755  16.360
20688W        W24756   4.862   6.859  15.271
20689W        W24757   6.144   3.762  14.701
20690W        W24758   3.944   7.022  16.442
20691W        W24759   6.141   4.780  18.077
20692W        W24760   4.124   4.310  18.076
20693W        W24761   3.855   4.910  15.409
20694W        W24762   4.546   4.899  15.134
20695W        W24763   6.309   5.226  17.951
20696W        W24764   4.652   5.507  16.660
20697W        W24765   6.126   3.793  15.780
20698W        W24766   5.257   7.224  16.283
20699W        W24767   6.471   6.686  17.220
20700W        W24768   6.055   6.835  16.331
20701W        W24769   6.074   5.815  15.925
20702W        W24770   5.536   4.040  14.996
20703W        W24771   7.217   3.668  15.718
20704W        W24772   4.905   5.303  14.881
20705W        W24773   7.071   4.640  15.871
20706W        W24774   5.763   5.810  14.748
20707W        W24775   6.699   6.010  17.496
20708W        W24776   6.353   6.711  14.963
20709W        W24777   4.968   4.386  17.869
20710W        W24778   4.788   4.970  17.110
20711W        W24779   6.880   6.465  17.387
20712W        W24780   5.980   4.415  17.764
20713W        W24781   3.824   4.886  17.541
20714W        W24782   5.584   5.363  17.267
20715W        W24783   3.941   6.121  15.924
20716W        W24784   4.088   5.418  16.814
20717W        W24785   6.405   5.704  17.164
20718W        W24786   6.177   7.084  17.975
20719W        W24787   6.073   4.823  17.528
20720W        W24788   6.350   6.877  15.933
20721W        W24789   5.352   6.597  17.256
20722W        W24790   4.837   6.952  16.525
20723W        W24791   6.642   6.123  16.944
20724W        W24792   5.692   6.195  18.081
20725W        W24793   4.297   6.148  16.420
20726W        W24794   6.643   5.907  16.065
20727W        W24795   6.284   6.973  16.816
20728W        W24796   4.262   6.702  16.686
20729W        W24797   5.283   4.754  17.896
20730W        W24798   5.734   6.920  15.407
20731W        W24799   5.042   6.175  18.045
20732W        W24800   5.168   6.413  15.422
20733W        W24801   4.389   5.153  14.681
20734W        W24802   3.728   7.239  21.580
20735W        W24803   4.104   6.132  21.103
20736W        W24804   6.809   5.862  18.873
20737W        W24805   6.939   6.947  20.900
20738W        W24806   4.857   6.938  18.426
20739W        W24807   4.940   5.090  19.409
20740W        W24808   4.455   4.938  19.573
20741W        W24809   5.446   5.753  19.007
20742W        W24810   5.121   6.845  21.362
20743W        W24811   3.770   4.406  21.325
20744W        W24812   4.532   3.686  21.127
20745W        W24813   6.226   4.074  20.014
20746W        W24814   5.875   4.945  18.584
20747W        W24815   6.445   4.379  21.675
20748W        W24816   3.811   4.171  20.800
20749W        W24817   3.910   6.790  21.821
20750W        W24818   5.432   6.180  18.553
20751W        W24819   3.864   4.963  20.246
20752W        W24820   4.757   4.854  21.483
20753W        W24821   7.216   4.713  19.982
20754W        W24822   6.980   5.756  20.841
20755W        W24823   5.288   5.089  19.868
20756W        W24824   5.834   6.428  20.237
20757W        W24825   4.334   5.862  20.469
20758W        W24826   3.693   5.390  20.040
20759W        W24827   4.729   5.362  21.232
20760W        W24828   7.000   5.145  21.486
20761W        W24829   4.616   6.589  19.931
20762W        W24830   5.737   6.278  21.065
20763W        W24831   4.957   4.918  20.290
20764W        W24832   5.249   5.702  19.933
20765W        W24833   6.246   6.475  21.781
20766W        W24834   5.325   5.795  21.791
20767W        W24835   5.306   5.511  21.269
20768W        W24836   3.715   4.902  21.791
20769W        W24837   6.547   6.437  21.390
20770W        W24838   4.128   4.019  19.388
20771W        W24839   4.655   6.277  20.387
20772W        W24840   7.118   6.060  19.677
20773W        W24841   6.531   4.460  20.244
20774W        W24842   6.816   4.413  18.339
20775W        W24843   7.281   5.214  20.645
20776W        W24844   5.248   6.921  20.398
20777W        W24845   7.022   6.387  18.836
20778W        W24846   4.151   7.173  18.590
20779W        W24847   4.544   7.219  19.266
20780W        W24848   4.341   3.973  20.692
20781W        W24849   6.964   4.991  20.967
20782W        W24850   6.369   5.413  19.426
20783W        W24851   6.335   5.101  18.453
20784W        W24852   5.543   6.245  20.593
20785W        W24853   5.349   4.575  19.792
20786W        W24854   5.949   6.662  20.786
20787W        W24855   6.820   5.453  19.208
20788W        W24856   5.722   4.111  19.224
20789W        W24857   4.379   6.805  18.907
20790W        W24858   3.750   4.304  19.506
20791W        W24859   6.536   4.911  19.980
20792W        W24860   3.994   6.528  19.895
20793W        W24861   5.335   6.878  18.765
20794W        W24862   6.727   4.904  18.229
20795W        W24863   3.750   6.662  20.393
20796W        W24864   4.541   6.234  20.873
20797W        W24865   4.914   5.594  19.492
20798W        W24866   4.936   3.999  20.585
20799W        W24867   7.165   3.761  19.882
20800W        W24868   4.384   5.633  18.350
20801W        W24869   4.039   4.666  18.529
20802W        W24870   4.101   6.622  19.323
20803W        W24871   5.232   6.105  19.571
20804W        W24872   6.564   6.964  21.285
20805W        W24873   5.490   4.606  18.969
20806W        W24874   6.873   7.004  19.741
20807W        W24875   6.550   4.857  21.339
20808W        W24876   7.263   6.513  19.473
20809W        W24877   5.890   5.805  20.957
20810W        W24878   3.656   5.356  19.163
20811W        W24879   4.767   5.771  20.736
20812W        W24880   5.971   5.035  19.114
20813W        W24881   5.848   5.525  19.218
20814W        W24882   4.191   4.945  20.692
20815W        W24883   4.176   4.821  21.614
20816W        W24884   4.066   3.738  19.773
20817W        W24885   5.834   4.085  20.334
20818W        W24886   5.482   4.270  21.497
20819W        W24887   5.837   4.419  18.675
20820W        W24888   7.020   6.812  21.429
20821W        W24889   5.987   3.893  21.468
20822W        W24890   7.006   6.194  21.590
20823W        W24891   6.436   4.361  21.186
20824W        W24892   6.236   4.299  19.456
20825W        W24893   6.629   5.433  21.860
20826W        W24894   4.369   7.009  19.846
20827W        W24895   5.027   4.726  18.832
20828W        W24896   4.596   4.010  21.496
20829W        W24897   6.648   4.494  19.177
20830W        W24898   7.015   4.976  19.122
20831W        W24899   4.758   7.193  21.593
20832W        W24900   4.684   3.729  18.828
20833W        W24901   7.005   4.263  19.863
20834W        W24902   7.155   6.512  18.308
20835W        W24903   4.062   5.715  20.010
20836W        W24904   5.979   4.302  18.240
20837W        W24905   7.113   6.634  19.960
20838W        W24906   7.152   3.828  20.710
20839W        W24907   5.597   5.040  21.264
20840W        W24908   5.690   6.379  18.967
20841W        W24909   6.090   5.673  21.707
20842W        W24910   5.764   3.650  20.016
20843W        W24911   4.376   4.553  20.079
20844W        W24912   3.930   5.753  20.853
20845W        W24913   5.789   6.946  19.559
20846W        W24914   6.983   4.543  20.431
20847W        W24915   5.620   6.890  21.198
20848W        W24916   6.963   5.949  18.403
20849W        W24917   5.398   5.432  19.464
20850W        W24918   7.250   3.943  21.205
20851W        W24919   5.399   5.778  20.799
20852W        W24920   5.616   4.664  20.244
20853W        W24921   6.468   4.962  19.082
20854W        W24922   6.755   4.695  18.724
20855W        W24923   6.564   6.735  19.113
20856W        W24924   6.398   6.338  19.909
20857W        W24925   6.294   5.417  18.887
20858W        W24926   5.727   5.627  19.873
20859W        W24927   6.608   5.415  19.940
20860W        W24928   3.983   4.430  20.364
20861W        W24929   6.761   5.482  21.191
20862W        W24930   7.112   7.100  20.337
20863W        W24931   5.042   6.544  19.739
20864W        W24932   6.049   7.077  21.063
20865W        W24933   6.043   4.407  20.827
20866W        W24934   5.250   7.115  20.888
20867W        W24935   6.947   4.069  19.354
20868W        W24936   6.738   5.388  20.655
20869W        W24937   3.721   4.709  20.693
20870W        W24938   6.581   4.504  19.711
20871W        W24939   6.992   4.655  21.488
20872W        W24940   5.877   6.354  19.706
20873W        W24941   5.133   6.945  19.319
20874W        W24942   4.248   4.125  18.577
20875W        W24943   5.352   3.779  20.387
20876W        W24944   4.380   6.899  18.235
20877W        W24945   4.754   5.365  18.986
20878W        W24946   5.408   5.994  21.299
20879W        W24947   5.238   4.352  19.289
20880W        W24948   6.594   3.949  19.717
20881W        W24949   6.314   7.231  20.045
20882W        W24950   5.726   6.879  20.385
20883W        W24951   5.122   5.916  20.346
20884W        W24952   6.892   6.639  20.472
20885W        W24953   4.586   4.142  19.241
20886W        W24954   5.108   6.439  20.201
20887W        W24955   4.591   4.370  18.266
20888W        W24956   5.392   4.979  20.660
20889W        W24957   6.240   3.845  20.530
20890W        W24958   3.660   5.688  20.415
20891W        W24959   5.364   5.506  18.573
20892W        W24960   4.632   3.821  18.343
20893W        W24961   5.370   4.902  19.394
20894W        W24962   6.340   3.878  21.093
20895W        W24963   4.928   5.890  21.202
20896W        W24964   5.732   5.672  21.419
20897W        W24965   6.349   5.702  21.312
20898W        W24966   5.633   3.842  21.817
20899W        W24967   4.855   4.458  20.210
20900W        W24968   4.281   4.414  19.608
20901W        W24969   4.067   7.126  19.284
20902W        W24970   5.399   6.456  21.409
20903W        W24971   4.434   5.941  18.768
20904W        W24972   6.114   5.326  19.989
20905W        W24973   6.394   5.125  20.388
20906W        W24974   5.599   5.799  20.322
20907W        W24975   6.069   6.173  18.454
20908W        W24976   5.741   4.194  19.782
20909W        W24977   7.220   4.472  19.050
20910W        W24978   3.714   7.061  21.081
20911W        W24979   4.131   6.287  20.613
20912W        W24980   3.698   7.133  18.845
20913W        W24981   5.597   4.403  20.651
20914W        W24982   4.960   6.426  18.500
20915W        W24983   6.865   6.808  18.686
20916W        W24984   5.840   5.461  18.700
20917W        W24985   4.683   4.652  19.217
20918W        W24986   5.515   4.562  18.269
20919W        W24987   6.099   6.127  21.447
20920W        W24988   6.452   4.033  19.064
20921W        W24989   3.782   3.881  18.512
20922W        W24990   5.068   6.200  20.802
20923W        W24991   4.867   6.116  19.894
20924W        W24992   4.609   6.068  18.292
20925W        W24993   3.850   6.309  19.060
20926W        W24994   4.354   5.379  21.502
20927W        W24995   5.058   3.939  21.688
20928W        W24996   5.767   4.081  21.044
20929W        W24997   4.962   3.849  19.325
20930W        W24998   6.021   3.926  18.830
20931W        W24999   3.966   3.858  20.407
20932W        W25000   4.014   4.821  19.777
20933W        W25001   6.703   3.929  20.183
20934W        W25002   4.125   4.427  18.997
20935W        W25003   6.696   4.115  20.613
20936W        W25004   7.092   5.318  18.298
20937W        W25005   4.384   4.076  20.117
20938W        W25006   5.498   4.648  21.057
20939W        W25007   3.646   4.338  18.535
20940W        W25008   4.432   5.727  21.096
20941W        W25009   5.790   5.125  20.275
20942W        W25010   5.657   7.204  18.571
20943W        W25011   3.803   5.711  18.268
20944W        W25012   4.538   6.122  21.394
20945W        W25013   4.059   5.289  21.025
20946W        W25014   5.050   5.394  20.819
20947W        W25015   6.818   3.753  21.081
20948W        W25016   7.216   5.363  21.072
20949W        W25017   7.204   5.563  18.758
20950W        W25018   6.067   5.895  18.857
20951W        W25019   6.541   7.195  18.552
20952W        W25020   5.718   5.185  21.694
20953W        W25021   4.048   6.152  21.734
20954W        W25022   7.254   4.074  21.686
20955W        W25023   6.972   5.002  20.307
20956W        W25024   5.280   7.132  21.784
20957W        W25025   5.135   3.761  18.511
20958W        W25026   6.674   6.360  18.454
20959W        W25027   4.443   4.453  21.340
20960W        W25028   4.877   6.447  21.202
20961W        W25029   7.003   4.438  21.000
20962W        W25030   6.214   7.097  18.968
20963W        W25031   6.453   5.716  20.335
20964W        W25032   4.703   4.132  21.002
20965W        W25033   5.172   5.201  21.759
20966W        W25034   4.675   6.380  18.953
20967W        W25035   6.430   5.878  19.217
20968W        W25036   4.198   4.504  20.941
20969W        W25037   5.527   6.566  19.405
20970W        W25038   7.277   5.126  19.586
20971W        W25039   5.499   3.759  21.305
20972W        W25040   6.279   6.464  20.384
20973W        W25041   6.582   6.808  20.092
20974W        W25042   5.801   6.610  18.520
20975W        W25043   3.811   6.502  21.362
20976W        W25044   4.554   4.494  20.600
20977W        W25045   4.524   3.842  19.710
20978W        W25046   6.145   4.684  20.402
20979W        W25047   4.943   5.855  18.602
20980W        W25048   6.941   5.797  20.101
20981W        W25049   4.268   6.555  21.524
20982W        W25050   6.655   7.237  19.321
20983W        W25051   4.754   4.257  19.766
20984W        W25052   4.523   5.750  19.856
20985W        W25053   4.836   7.161  20.606
20986W        W25054   6.903   7.257  21.638
20987W        W25055   6.062   5.445  20.571
20988W        W25056   3.911   5.243  18.486
20989W        W25057   7.045   6.901  19.183
20990W        W25058   6.882   4.225  18.802
20991W        W25059   5.021   3.744  21.205
20992W        W25060   6.727   6.546  19.663
20993W        W25061   6.756   5.102  19.568
20994W        W25062   4.873   4.775  19.784
20995W        W25063   5.118   5.037  21.108
20996W        W25064   6.229   6.190  20.971
20997W        W25065   4.879   4.644  21.083
20998W        W25066   4.858   7.110  19.699
20999W        W25067   4.175   7.069  21.333
21000W        W25068   4.287   6.430  18.463
21001W        W25069   6.804   6.188  19.273
21002W        W25070   4.408   4.980  21.159
21003W        W25071   7.181   4.910  18.640
21004W        W25072   4.926   5.967  19.111
21005W        W25073   6.025   5.349  21.192
21006W        W25074   5.916   4.977  20.736
21007W        W25075   4.476   5.349  20.765
21008W        W25076   6.686   7.237  20.594
21009W        W25077   6.477   3.871  21.588
21010W        W25078   4.141   4.021  21.175
21011W        W25079   4.480   5.044  20.228
21012W        W25080   4.849   4.858  18.350
21013W        W25081   3.652   6.617  20.895
21014W        W25082   5.237   5.326  20.338
21015W        W25083   5.060   4.351  18.443
21016W        W25084   4.195   5.167  19.224
21017W        W25085   3.966   7.019  20.661
21018W        W25086   6.761   5.245  18.769
21019W        W25087   6.856   4.161  21.455
21020W        W25088   6.292   6.370  19.418
21021W        W25089   3.890   5.294  21.595
21022W        W25090   6.856   3.758  18.891
21023W        W25091   6.376   6.233  18.902
21024W        W25092   5.278   5.291  18.987
21025W        W25093   6.465   4.095  18.510
21026W        W25094   6.530   4.702  20.696
21027W        W25095   4.239   5.295  19.903
21028W        W25096   4.533   6.234  19.552
21029W        W25097   6.296   4.854  19.517
21030W        W25098   5.319   4.233  20.213
21031W        W25099   7.281   6.144  20.724
21032W        W25100   7.199   4.131  20.285
21033W        W25101   3.738   6.961  19.661
21034W        W25102   4.247   6.148  19.197
21035W        W25103   4.162   3.765  21.750
21036W        W25104   5.281   6.618  21.852
21037W        W25105   7.036   5.586  19.642
21038W        W25106   6.390   5.763  18.522
21039W        W25107   5.685   7.284  20.734
21040W        W25108   6.542   6.006  21.771
21041W        W25109   5.357   3.716  19.051
21042W        W25110   6.070   4.585  19.910
21043W        W25111   3.756   6.172  20.242
21044W        W25112   5.009   4.134  18.883
21045W        W25113   4.813   5.618  21.732
21046W        W25114   5.807   4.599  19.446
21047W        W25115   6.012   6.009  20.568
21048W        W25116   4.166   6.614  21.003
21049W        W25117   4.757   6.597  21.726
21050W        W25118   4.608   4.394  18.740
21051W        W25119   6.125   4.536  19.065
21052W        W25120   6.083   6.644  21.302
21053W        W25121   4.768   5.236  19.901
21054W        W25122   4.423   6.934  20.766
21055W        W25123   7.168   7.051  18.367
21056W        W25124   4.031   5.723  21.363
21057W        W25125   6.026   5.985  20.051
21058W        W25126   4.462   5.634  19.293
21059W        W25127   4.833   6.641  20.688
21060W        W25128   5.211   4.060  19.729
21061W        W25129   3.822   6.044  18.659
21062W        W25130   5.341   4.995  18.529
21063W        W25131   3.987   5.544  19.548
21064W        W25132   5.277   4.186  21.012
21065W        W25133   6.949   3.895  18.439
21066W        W25134   7.042   5.641  21.538
21067W        W25135   5.696   6.898  21.690
21068W        W25136   7.254   5.992  21.212
21069W        W25137   6.662   6.790  21.823
21070W        W25138   4.401   7.246  20.301
21071W        W25139   7.260   5.868  19.175
21072W        W25140   5.790   5.135  19.688
21073W        W25141   5.557   3.747  19.578
21074W        W25142   4.616   6.731  19.415
21075W        W25143   5.115   4.472  20.640
21076W        W25144   4.815   3.841  20.109
21077W        W25145   3.878   6.663  18.657
21078W        W25146   5.694   6.027  19.375
21079W        W25147   4.569   6.822  21.254
21080W        W25148   4.046   5.645  18.950
21081W        W25149   3.931   4.188  19.949
21082W        W25150   5.479   6.153  20.006
21083W        W25151   3.731   4.007  19.026
21084W        W25152   6.395   5.213  20.953
21085W        W25153   6.272   4.599  18.525
21086W        W25154   6.789   6.271  20.173
21087W        W25155   5.450   6.755  20.004
21088W        W25156   4.862   6.859  18.915
21089W        W25157   6.144   3.762  18.345
21090W        W25158   3.944   7.022  20.086
21091W        W25159   6.141   4.780  21.721
21092W        W25160   4.124   4.310  21.720
21093W        W25161   3.855   4.910  19.053
21094W        W25162   4.546   4.899  18.778
21095W        W25163   6.309   5.226  21.595
21096W        W25164   4.652   5.507  20.304
21097W        W25165   6.126   3.793  19.424
21098W        W25166   5.257   7.224  19.927
21099W        W25167   6.471   6.686  20.864
21100W        W25168   6.055   6.835  19.975
21101W        W25169   6.074   5.815  19.569
21102W        W25170   5.536   4.040  18.640
21103W        W25171   7.217   3.668  19.362
21104W        W25172   4.905   5.303  18.525
21105W        W25173   7.071   4.640  19.515
21106W        W25174   5.763   5.810  18.392
21107W        W25175   6.699   6.010  21.140
21108W        W25176   6.353   6.711  18.607
21109W        W25177   4.968   4.386  21.513
21110W        W25178   4.788   4.970  20.754
21111W        W25179   6.880   6.465  21.031
21112W        W25180   5.980   4.415  21.408
21113W        W25181   3.824   4.886  21.185
21114W        W25182   5.584   5.363  20.911
21115W        W25183   3.941   6.121  19.568
21116W        W25184   4.088   5.418  20.458
21117W        W25185   6.405   5.704  20.808
21118W        W25186   6.177   7.084  21.619
21119W        W25187   6.073   4.823  21.172
21120W        W25188   6.350   6.877  19.577
21121W        W25189   5.352   6.597  20.900
21122W        W25190   4.837   6.952  20.169
21123W        W25191   6.642   6.123  20.588
21124W        W25192   5.692   6.195  21.725
21125W        W25193   4.297   6.148  20.064
21126W        W25194   6.643   5.907  19.709
21127W        W25195   6.284   6.973  20.460
21128W        W25196   4.262   6.702  20.330
21129W        W25197   5.283   4.754  21.540
21130W        W25198   5.734   6.920  19.051
21131W        W25199   5.042   6.175  21.689
21132W        W25200   5.168   6.413  19.066
21133W        W25201   4.389   5.153  18.325
21134W        W25202   6.809   5.862  22.518
21135W        W25203   4.857   6.938  22.071
21136W        W25204   4.940   5.090  23.054
21137W        W25205   4.455   4.938  23.218
21138W        W25206   5.446   5.753  22.652
21139W        W25207   5.875   4.945  22.229
21140W        W25208   5.432   6.180  22.198
21141W        W25209   4.128   4.019  23.033
21142W        W25210   6.816   4.413  21.984
21143W        W25211   7.022   6.387  22.481
21144W        W25212   4.151   7.173  22.235
21145W        W25213   4.544   7.219  22.911
21146W        W25214   6.369   5.413  23.071
21147W        W25215   6.335   5.101  22.098
21148W        W25216   6.820   5.453  22.853
21149W        W25217   5.722   4.111  22.869
21150W        W25218   4.379   6.805  22.552
21151W        W25219   5.335   6.878  22.410
21152W        W25220   6.727   4.904  21.874
21153W        W25221   4.914   5.594  23.137
21154W        W25222   4.384   5.633  21.995
21155W        W25223   4.039   4.666  22.174
21156W        W25224   4.101   6.622  22.968
21157W        W25225   5.232   6.105  23.216
21158W        W25226   5.490   4.606  22.614
21159W        W25227   3.656   5.356  22.808
21160W        W25228   5.971   5.035  22.759
21161W        W25229   5.848   5.525  22.863
21162W        W25230   5.837   4.419  22.320
21163W        W25231   6.236   4.299  23.101
21164W        W25232   5.027   4.726  22.477
21165W        W25233   6.648   4.494  22.822
21166W        W25234   7.015   4.976  22.767
21167W        W25235   4.684   3.729  22.473
21168W        W25236   7.155   6.512  21.953
21169W        W25237   5.979   4.302  21.885
21170W        W25238   5.690   6.379  22.612
21171W        W25239   5.789   6.946  23.204
21172W        W25240   6.963   5.949  22.048
21173W        W25241   5.398   5.432  23.109
21174W        W25242   6.468   4.962  22.727
21175W        W25243   6.755   4.695  22.369
21176W        W25244   6.564   6.735  22.758
21177W        W25245   6.294   5.417  22.532
21178W        W25246   6.947   4.069  22.999
21179W        W25247   5.133   6.945  22.964
21180W        W25248   4.248   4.125  22.222
21181W        W25249   4.380   6.899  21.880
21182W        W25250   4.754   5.365  22.631
21183W        W25251   5.238   4.352  22.934
21184W        W25252   4.586   4.142  22.886
21185W        W25253   4.591   4.370  21.911
21186W        W25254   5.364   5.506  22.218
21187W        W25255   4.632   3.821  21.988
21188W        W25256   5.370   4.902  23.039
21189W        W25257   4.281   4.414  23.253
21190W        W25258   4.067   7.126  22.929
21191W        W25259   4.434   5.941  22.413
21192W        W25260   6.069   6.173  22.099
21193W        W25261   7.220   4.472  22.695
21194W        W25262   3.698   7.133  22.490
21195W        W25263   4.960   6.426  22.145
21196W        W25264   6.865   6.808  22.331
21197W        W25265   5.840   5.461  22.345
21198W        W25266   4.683   4.652  22.862
21199W        W25267   5.515   4.562  21.914
21200W        W25268   6.452   4.033  22.709
21201W        W25269   3.782   3.881  22.157
21202W        W25270   4.609   6.068  21.937
21203W        W25271   3.850   6.309  22.705
21204W        W25272   4.962   3.849  22.970
21205W        W25273   6.021   3.926  22.475
21206W        W25274   4.125   4.427  22.642
21207W        W25275   7.092   5.318  21.943
21208W        W25276   3.646   4.338  22.180
21209W        W25277   5.657   7.204  22.216
21210W        W25278   3.803   5.711  21.913
21211W        W25279   7.204   5.563  22.403
21212W        W25280   6.067   5.895  22.502
21213W        W25281   6.541   7.195  22.197
21214W        W25282   5.135   3.761  22.156
21215W        W25283   6.674   6.360  22.099
21216W        W25284   6.214   7.097  22.613
21217W        W25285   4.675   6.380  22.598
21218W        W25286   6.430   5.878  22.862
21219W        W25287   5.527   6.566  23.050
21220W        W25288   7.277   5.126  23.231
21221W        W25289   5.801   6.610  22.165
21222W        W25290   4.943   5.855  22.247
21223W        W25291   6.655   7.237  22.966
21224W        W25292   3.911   5.243  22.131
21225W        W25293   7.045   6.901  22.828
21226W        W25294   6.882   4.225  22.447
21227W        W25295   6.756   5.102  23.213
21228W        W25296   4.287   6.430  22.108
21229W        W25297   6.804   6.188  22.918
21230W        W25298   7.181   4.910  22.285
21231W        W25299   4.926   5.967  22.756
21232W        W25300   4.849   4.858  21.995
21233W        W25301   5.060   4.351  22.088
21234W        W25302   4.195   5.167  22.869
21235W        W25303   6.761   5.245  22.414
21236W        W25304   6.292   6.370  23.063
21237W        W25305   6.856   3.758  22.536
21238W        W25306   6.376   6.233  22.547
21239W        W25307   5.278   5.291  22.632
21240W        W25308   6.465   4.095  22.155
21241W        W25309   4.533   6.234  23.197
21242W        W25310   6.296   4.854  23.162
21243W        W25311   3.738   6.961  23.306
21244W        W25312   4.247   6.148  22.842
21245W        W25313   7.036   5.586  23.287
21246W        W25314   6.390   5.763  22.167
21247W        W25315   5.357   3.716  22.696
21248W        W25316   5.009   4.134  22.528
21249W        W25317   5.807   4.599  23.091
21250W        W25318   4.608   4.394  22.385
21251W        W25319   6.125   4.536  22.710
21252W        W25320   7.168   7.051  22.012
21253W        W25321   3.822   6.044  22.304
21254W        W25322   5.341   4.995  22.174
21255W        W25323   3.987   5.544  23.193
21256W        W25324   6.949   3.895  22.084
21257W        W25325   7.260   5.868  22.820
21258W        W25326   5.557   3.747  23.223
21259W        W25327   4.616   6.731  23.060
21260W        W25328   3.878   6.663  22.302
21261W        W25329   5.694   6.027  23.020
21262W        W25330   4.046   5.645  22.595
21263W        W25331   3.731   4.007  22.671
21264W        W25332   6.272   4.599  22.170
21265W        W25333   4.862   6.859  22.560
21266W        W25334   6.144   3.762  21.990
21267W        W25335   3.855   4.910  22.698
21268W        W25336   4.546   4.899  22.423
21269W        W25337   6.074   5.815  23.214
21270W        W25338   5.536   4.040  22.285
21271W        W25339   7.217   3.668  23.007
21272W        W25340   4.905   5.303  22.170
21273W        W25341   7.071   4.640  23.160
21274W        W25342   5.763   5.810  22.037
21275W        W25343   6.353   6.711  22.252
21276W        W25344   3.941   6.121  23.213
21277W        W25345   6.350   6.877  23.222
21278W        W25346   5.734   6.920  22.696
21279W        W25347   5.168   6.413  22.711
21280W        W25348   4.389   5.153  21.970
21281W        W25349   3.728  10.884   3.359
21282W        W25350   4.104   9.777   2.882
21283W        W25351   6.809   9.507   0.652
21284W        W25352   6.939  10.592   2.679
21285W        W25353   4.857  10.583   0.205
21286W        W25354   4.940   8.735   1.188
21287W        W25355   4.455   8.583   1.352
21288W        W25356   5.446   9.398   0.786
21289W        W25357   5.121  10.490   3.141
21290W        W25358   3.770   8.051   3.104
21291W        W25359   4.532   7.331   2.906
21292W        W25360   6.226   7.719   1.793
21293W        W25361   5.875   8.590   0.363
21294W        W25362   6.445   8.024   3.454
21295W        W25363   3.811   7.816   2.579
21296W        W25364   3.910  10.435   3.600
21297W        W25365   5.432   9.825   0.332
21298W        W25366   3.864   8.608   2.025
21299W        W25367   4.757   8.499   3.262
21300W        W25368   7.216   8.358   1.761
21301W        W25369   6.980   9.401   2.620
21302W        W25370   5.288   8.734   1.647
21303W        W25371   5.834  10.073   2.016
21304W        W25372   4.334   9.507   2.248
21305W        W25373   3.693   9.035   1.819
21306W        W25374   4.729   9.007   3.011
21307W        W25375   7.000   8.790   3.265
21308W        W25376   4.616  10.234   1.710
21309W        W25377   5.737   9.923   2.844
21310W        W25378   4.957   8.563   2.069
21311W        W25379   5.249   9.347   1.712
21312W        W25380   6.246  10.120   3.560
21313W        W25381   5.325   9.440   3.570
21314W        W25382   5.306   9.156   3.048
21315W        W25383   3.715   8.547   3.570
21316W        W25384   6.547  10.082   3.169
21317W        W25385   4.128   7.664   1.167
21318W        W25386   4.655   9.922   2.166
21319W        W25387   7.118   9.705   1.456
21320W        W25388   6.531   8.105   2.023
21321W        W25389   6.816   8.058   0.118
21322W        W25390   7.281   8.859   2.424
21323W        W25391   5.248  10.566   2.177
21324W        W25392   7.022  10.032   0.615
21325W        W25393   4.151  10.818   0.369
21326W        W25394   4.544  10.864   1.045
21327W        W25395   4.341   7.618   2.471
21328W        W25396   6.964   8.636   2.746
21329W        W25397   6.369   9.058   1.205
21330W        W25398   6.335   8.746   0.232
21331W        W25399   5.543   9.890   2.372
21332W        W25400   5.349   8.220   1.571
21333W        W25401   5.949  10.307   2.565
21334W        W25402   6.820   9.098   0.987
21335W        W25403   5.722   7.756   1.003
21336W        W25404   4.379  10.450   0.686
21337W        W25405   3.750   7.949   1.285
21338W        W25406   6.536   8.556   1.759
21339W        W25407   3.994  10.173   1.674
21340W        W25408   5.335  10.523   0.544
21341W        W25409   6.727   8.549   0.008
21342W        W25410   3.750  10.307   2.172
21343W        W25411   4.541   9.879   2.652
21344W        W25412   4.914   9.239   1.271
21345W        W25413   4.936   7.644   2.364
21346W        W25414   7.165   7.406   1.661
21347W        W25415   4.384   9.278   0.129
21348W        W25416   4.039   8.311   0.308
21349W        W25417   4.101  10.267   1.102
21350W        W25418   5.232   9.750   1.350
21351W        W25419   6.564  10.609   3.064
21352W        W25420   5.490   8.251   0.748
21353W        W25421   6.873  10.649   1.520
21354W        W25422   6.550   8.502   3.118
21355W        W25423   7.263  10.158   1.252
21356W        W25424   5.890   9.450   2.736
21357W        W25425   3.656   9.001   0.942
21358W        W25426   4.767   9.416   2.515
21359W        W25427   5.971   8.680   0.893
21360W        W25428   5.848   9.170   0.997
21361W        W25429   4.191   8.590   2.471
21362W        W25430   4.176   8.466   3.393
21363W        W25431   4.066   7.383   1.552
21364W        W25432   5.834   7.730   2.113
21365W        W25433   5.482   7.915   3.276
21366W        W25434   5.837   8.064   0.454
21367W        W25435   7.020  10.457   3.208
21368W        W25436   5.987   7.538   3.247
21369W        W25437   7.006   9.839   3.369
21370W        W25438   6.436   8.006   2.965
21371W        W25439   6.236   7.944   1.235
21372W        W25440   6.629   9.078   3.639
21373W        W25441   4.369  10.654   1.625
21374W        W25442   5.027   8.371   0.611
21375W        W25443   4.596   7.655   3.275
21376W        W25444   6.648   8.139   0.956
21377W        W25445   7.015   8.621   0.901
21378W        W25446   4.758  10.838   3.372
21379W        W25447   4.684   7.374   0.607
21380W        W25448   7.005   7.908   1.642
21381W        W25449   7.155  10.157   0.087
21382W        W25450   4.062   9.360   1.789
21383W        W25451   5.979   7.947   0.019
21384W        W25452   7.113  10.279   1.739
21385W        W25453   7.152   7.473   2.489
21386W        W25454   5.597   8.685   3.043
21387W        W25455   5.690  10.024   0.746
21388W        W25456   6.090   9.318   3.486
21389W        W25457   5.764   7.295   1.795
21390W        W25458   4.376   8.198   1.858
21391W        W25459   3.930   9.398   2.632
21392W        W25460   5.789  10.591   1.338
21393W        W25461   6.983   8.188   2.210
21394W        W25462   5.620  10.535   2.977
21395W        W25463   6.963   9.594   0.182
21396W        W25464   5.398   9.077   1.243
21397W        W25465   7.250   7.588   2.984
21398W        W25466   5.399   9.423   2.578
21399W        W25467   5.616   8.309   2.023
21400W        W25468   6.468   8.607   0.861
21401W        W25469   6.755   8.340   0.503
21402W        W25470   6.564  10.380   0.892
21403W        W25471   6.398   9.983   1.688
21404W        W25472   6.294   9.062   0.666
21405W        W25473   5.727   9.272   1.652
21406W        W25474   6.608   9.060   1.719
21407W        W25475   3.983   8.075   2.143
21408W        W25476   6.761   9.127   2.970
21409W        W25477   7.112  10.745   2.116
21410W        W25478   5.042  10.189   1.518
21411W        W25479   6.049  10.722   2.842
21412W        W25480   6.043   8.052   2.606
21413W        W25481   5.250  10.760   2.667
21414W        W25482   6.947   7.714   1.133
21415W        W25483   6.738   9.033   2.434
21416W        W25484   3.721   8.354   2.472
21417W        W25485   6.581   8.149   1.490
21418W        W25486   6.992   8.300   3.267
21419W        W25487   5.877   9.999   1.485
21420W        W25488   5.133  10.590   1.098
21421W        W25489   4.248   7.770   0.356
21422W        W25490   5.352   7.424   2.166
21423W        W25491   4.380  10.544   0.014
21424W        W25492   4.754   9.010   0.765
21425W        W25493   5.408   9.639   3.078
21426W        W25494   5.238   7.997   1.068
21427W        W25495   6.594   7.594   1.496
21428W        W25496   6.314  10.876   1.824
21429W        W25497   5.726  10.524   2.164
21430W        W25498   5.122   9.561   2.125
21431W        W25499   6.892  10.284   2.251
21432W        W25500   4.586   7.787   1.020
21433W        W25501   5.108  10.084   1.980
21434W        W25502   4.591   8.015   0.045
21435W        W25503   5.392   8.624   2.439
21436W        W25504   6.240   7.490   2.309
21437W        W25505   3.660   9.333   2.194
21438W        W25506   5.364   9.151   0.352
21439W        W25507   4.632   7.466   0.122
21440W        W25508   5.370   8.547   1.173
21441W        W25509   6.340   7.523   2.872
21442W        W25510   4.928   9.535   2.981
21443W        W25511   5.732   9.317   3.198
21444W        W25512   6.349   9.347   3.091
21445W        W25513   5.633   7.487   3.596
21446W        W25514   4.855   8.103   1.989
21447W        W25515   4.281   8.059   1.387
21448W        W25516   4.067  10.771   1.063
21449W        W25517   5.399  10.101   3.188
21450W        W25518   4.434   9.586   0.547
21451W        W25519   6.114   8.971   1.768
21452W        W25520   6.394   8.770   2.167
21453W        W25521   5.599   9.444   2.101
21454W        W25522   6.069   9.818   0.233
21455W        W25523   5.741   7.839   1.561
21456W        W25524   7.220   8.117   0.829
21457W        W25525   3.714  10.706   2.860
21458W        W25526   4.131   9.932   2.392
21459W        W25527   3.698  10.778   0.624
21460W        W25528   5.597   8.048   2.430
21461W        W25529   4.960  10.071   0.279
21462W        W25530   6.865  10.453   0.465
21463W        W25531   5.840   9.106   0.479
21464W        W25532   4.683   8.297   0.996
21465W        W25533   5.515   8.207   0.048
21466W        W25534   6.099   9.772   3.226
21467W        W25535   6.452   7.678   0.843
21468W        W25536   3.782   7.526   0.291
21469W        W25537   5.068   9.845   2.581
21470W        W25538   4.867   9.761   1.673
21471W        W25539   4.609   9.713   0.071
21472W        W25540   3.850   9.954   0.839
21473W        W25541   4.354   9.024   3.281
21474W        W25542   5.058   7.584   3.467
21475W        W25543   5.767   7.726   2.823
21476W        W25544   4.962   7.494   1.104
21477W        W25545   6.021   7.571   0.609
21478W        W25546   3.966   7.503   2.186
21479W        W25547   4.014   8.466   1.556
21480W        W25548   6.703   7.574   1.962
21481W        W25549   4.125   8.072   0.776
21482W        W25550   6.696   7.760   2.392
21483W        W25551   7.092   8.963   0.077
21484W        W25552   4.384   7.721   1.896
21485W        W25553   5.498   8.293   2.836
21486W        W25554   3.646   7.983   0.314
21487W        W25555   4.432   9.372   2.875
21488W        W25556   5.790   8.770   2.054
21489W        W25557   5.657  10.849   0.350
21490W        W25558   3.803   9.356   0.047
21491W        W25559   4.538   9.767   3.173
21492W        W25560   4.059   8.934   2.804
21493W        W25561   5.050   9.039   2.598
21494W        W25562   6.818   7.398   2.860
21495W        W25563   7.216   9.008   2.851
21496W        W25564   7.204   9.208   0.537
21497W        W25565   6.067   9.540   0.636
21498W        W25566   6.541  10.840   0.331
21499W        W25567   5.718   8.830   3.473
21500W        W25568   4.048   9.797   3.513
21501W        W25569   7.254   7.719   3.465
21502W        W25570   6.972   8.647   2.086
21503W        W25571   5.280  10.777   3.563
21504W        W25572   5.135   7.406   0.290
21505W        W25573   6.674  10.005   0.233
21506W        W25574   4.443   8.098   3.119
21507W        W25575   4.877  10.092   2.981
21508W        W25576   7.003   8.083   2.779
21509W        W25577   6.214  10.742   0.747
21510W        W25578   6.453   9.361   2.114
21511W        W25579   4.703   7.777   2.781
21512W        W25580   5.172   8.846   3.538
21513W        W25581   4.675  10.025   0.732
21514W        W25582   6.430   9.523   0.996
21515W        W25583   4.198   8.149   2.720
21516W        W25584   5.527  10.211   1.184
21517W        W25585   7.277   8.771   1.365
21518W        W25586   5.499   7.404   3.084
21519W        W25587   6.279  10.109   2.163
21520W        W25588   6.582  10.453   1.871
21521W        W25589   5.801  10.255   0.299
21522W        W25590   3.811  10.147   3.141
21523W        W25591   4.554   8.139   2.379
21524W        W25592   4.524   7.487   1.489
21525W        W25593   6.145   8.329   2.181
21526W        W25594   4.943   9.500   0.381
21527W        W25595   6.941   9.442   1.880
21528W        W25596   4.268  10.200   3.303
21529W        W25597   6.655  10.882   1.100
21530W        W25598   4.754   7.902   1.545
21531W        W25599   4.523   9.395   1.635
21532W        W25600   4.836  10.806   2.385
21533W        W25601   6.903  10.902   3.417
21534W        W25602   6.062   9.090   2.350
21535W        W25603   3.911   8.888   0.265
21536W        W25604   7.045  10.546   0.962
21537W        W25605   6.882   7.870   0.581
21538W        W25606   5.021   7.389   2.984
21539W        W25607   6.727  10.191   1.442
21540W        W25608   6.756   8.747   1.347
21541W        W25609   4.873   8.420   1.563
21542W        W25610   5.118   8.682   2.887
21543W        W25611   6.229   9.835   2.750
21544W        W25612   4.879   8.289   2.862
21545W        W25613   4.858  10.755   1.478
21546W        W25614   4.175  10.714   3.112
21547W        W25615   4.287  10.075   0.242
21548W        W25616   6.804   9.833   1.052
21549W        W25617   4.408   8.625   2.938
21550W        W25618   7.181   8.555   0.419
21551W        W25619   4.926   9.612   0.890
21552W        W25620   6.025   8.994   2.971
21553W        W25621   5.916   8.622   2.515
21554W        W25622   4.476   8.994   2.544
21555W        W25623   6.686  10.882   2.373
21556W        W25624   6.477   7.516   3.367
21557W        W25625   4.141   7.666   2.954
21558W        W25626   4.480   8.689   2.007
21559W        W25627   4.849   8.503   0.129
21560W        W25628   3.652  10.262   2.674
21561W        W25629   5.237   8.971   2.117
21562W        W25630   5.060   7.996   0.222
21563W        W25631   4.195   8.812   1.003
21564W        W25632   3.966  10.664   2.440
21565W        W25633   6.761   8.890   0.548
21566W        W25634   6.856   7.806   3.234
21567W        W25635   6.292  10.015   1.197
21568W        W25636   3.890   8.939   3.374
21569W        W25637   6.856   7.403   0.670
21570W        W25638   6.376   9.878   0.681
21571W        W25639   5.278   8.936   0.766
21572W        W25640   6.465   7.740   0.289
21573W        W25641   6.530   8.347   2.475
21574W        W25642   4.239   8.940   1.682
21575W        W25643   4.533   9.879   1.331
21576W        W25644   6.296   8.499   1.296
21577W        W25645   5.319   7.878   1.992
21578W        W25646   7.281   9.789   2.503
21579W        W25647   7.199   7.776   2.064
21580W        W25648   3.738  10.606   1.440
21581W        W25649   4.247   9.793   0.976
21582W        W25650   4.162   7.410   3.529
21583W        W25651   5.281  10.263   3.631
21584W        W25652   7.036   9.231   1.421
21585W        W25653   6.390   9.408   0.301
21586W        W25654   5.685  10.929   2.513
21587W        W25655   6.542   9.651   3.550
21588W        W25656   5.357   7.361   0.830
21589W        W25657   6.070   8.230   1.689
21590W        W25658   3.756   9.817   2.021
21591W        W25659   5.009   7.779   0.662
21592W        W25660   4.813   9.263   3.511
21593W        W25661   5.807   8.244   1.225
21594W        W25662   6.012   9.654   2.347
21595W        W25663   4.166  10.259   2.782
21596W        W25664   4.757  10.242   3.505
21597W        W25665   4.608   8.039   0.519
21598W        W25666   6.125   8.181   0.844
21599W        W25667   6.083  10.289   3.081
21600W        W25668   4.768   8.881   1.680
21601W        W25669   4.423  10.579   2.545
21602W        W25670   7.168  10.696   0.146
21603W        W25671   4.031   9.368   3.142
21604W        W25672   6.026   9.630   1.830
21605W        W25673   4.462   9.279   1.072
21606W        W25674   4.833  10.286   2.467
21607W        W25675   5.211   7.705   1.508
21608W        W25676   3.822   9.689   0.438
21609W        W25677   5.341   8.640   0.308
21610W        W25678   3.987   9.189   1.327
21611W        W25679   5.277   7.831   2.791
21612W        W25680   6.949   7.540   0.218
21613W        W25681   7.042   9.286   3.317
21614W        W25682   5.696  10.543   3.469
21615W        W25683   7.254   9.637   2.991
21616W        W25684   6.662  10.435   3.602
21617W        W25685   4.401  10.891   2.080
21618W        W25686   7.260   9.513   0.954
21619W        W25687   5.790   8.780   1.467
21620W        W25688   5.557   7.392   1.357
21621W        W25689   4.616  10.376   1.194
21622W        W25690   5.115   8.117   2.419
21623W        W25691   4.815   7.486   1.888
21624W        W25692   3.878  10.308   0.436
21625W        W25693   5.694   9.672   1.154
21626W        W25694   4.569  10.467   3.033
21627W        W25695   4.046   9.290   0.729
21628W        W25696   3.931   7.833   1.728
21629W        W25697   5.479   9.798   1.785
21630W        W25698   3.731   7.652   0.805
21631W        W25699   6.395   8.858   2.732
21632W        W25700   6.272   8.244   0.304
21633W        W25701   6.789   9.916   1.952
21634W        W25702   5.450  10.400   1.783
21635W        W25703   4.862  10.504   0.694
21636W        W25704   6.144   7.407   0.124
21637W        W25705   3.944  10.667   1.865
21638W        W25706   6.141   8.425   3.500
21639W        W25707   4.124   7.955   3.499
21640W        W25708   3.855   8.555   0.832
21641W        W25709   4.546   8.544   0.557
21642W        W25710   6.309   8.871   3.374
21643W        W25711   4.652   9.152   2.083
21644W        W25712   6.126   7.438   1.203
21645W        W25713   5.257  10.869   1.706
21646W        W25714   6.471  10.331   2.643
21647W        W25715   6.055  10.480   1.754
21648W        W25716   6.074   9.460   1.348
21649W        W25717   5.536   7.685   0.419
21650W        W25718   7.217   7.313   1.141
21651W        W25719   4.905   8.948   0.304
21652W        W25720   7.071   8.285   1.294
21653W        W25721   5.763   9.455   0.171
21654W        W25722   6.699   9.655   2.919
21655W        W25723   6.353  10.356   0.386
21656W        W25724   4.968   8.031   3.292
21657W        W25725   4.788   8.615   2.533
21658W        W25726   6.880  10.110   2.810
21659W        W25727   5.980   8.060   3.187
21660W        W25728   3.824   8.531   2.964
21661W        W25729   5.584   9.008   2.690
21662W        W25730   3.941   9.766   1.347
21663W        W25731   4.088   9.063   2.237
21664W        W25732   6.405   9.349   2.587
21665W        W25733   6.177  10.729   3.398
21666W        W25734   6.073   8.468   2.951
21667W        W25735   6.350  10.522   1.356
21668W        W25736   5.352  10.242   2.679
21669W        W25737   4.837  10.597   1.948
21670W        W25738   6.642   9.768   2.367
21671W        W25739   5.692   9.840   3.504
21672W        W25740   4.297   9.793   1.843
21673W        W25741   6.643   9.552   1.488
21674W        W25742   6.284  10.618   2.239
21675W        W25743   4.262  10.347   2.109
21676W        W25744   5.283   8.399   3.319
21677W        W25745   5.734  10.565   0.830
21678W        W25746   5.042   9.820   3.468
21679W        W25747   5.168  10.058   0.845
21680W        W25748   4.389   8.798   0.104
21681W        W25749   3.728  10.884   7.003
21682W        W25750   4.104   9.777   6.526
21683W        W25751   6.809   9.507   4.296
21684W        W25752   6.939  10.592   6.323
21685W        W25753   4.857  10.583   3.849
21686W        W25754   4.940   8.735   4.832
21687W        W25755   5.446   9.398   4.430
21688W        W25756   5.121  10.490   6.785
21689W        W25757   3.770   8.051   6.748
21690W        W25758   6.226   7.719   5.437
21691W        W25759   5.875   8.590   4.007
21692W        W25760   6.445   8.024   7.098
21693W        W25761   3.811   7.816   6.223
21694W        W25762   3.910  10.435   7.244
21695W        W25763   5.432   9.825   3.976
21696W        W25764   3.864   8.608   5.669
21697W        W25765   4.757   8.499   6.906
21698W        W25766   7.216   8.358   5.405
21699W        W25767   6.980   9.401   6.264
21700W        W25768   5.288   8.734   5.291
21701W        W25769   5.834  10.073   5.660
21702W        W25770   4.334   9.507   5.892
21703W        W25771   3.693   9.035   5.463
21704W        W25772   4.729   9.007   6.655
21705W        W25773   7.000   8.790   6.909
21706W        W25774   4.616  10.234   5.354
21707W        W25775   5.737   9.923   6.488
21708W        W25776   4.957   8.563   5.713
21709W        W25777   5.249   9.347   5.356
21710W        W25778   6.246  10.120   7.204
21711W        W25779   5.325   9.440   7.214
21712W        W25780   5.306   9.156   6.692
21713W        W25781   3.715   8.547   7.214
21714W        W25782   6.547  10.082   6.813
21715W        W25783   4.128   7.664   4.811
21716W        W25784   4.655   9.922   5.810
21717W        W25785   7.118   9.705   5.100
21718W        W25786   6.531   8.105   5.667
21719W        W25787   6.816   8.058   3.762
21720W        W25788   7.281   8.859   6.068
21721W        W25789   5.248  10.566   5.821
21722W        W25790   7.022  10.032   4.259
21723W        W25791   4.151  10.818   4.013
21724W        W25792   4.544  10.864   4.689
21725W        W25793   4.341   7.618   6.115
21726W        W25794   6.964   8.636   6.390
21727W        W25795   6.369   9.058   4.849
21728W        W25796   6.335   8.746   3.876
21729W        W25797   5.543   9.890   6.016
21730W        W25798   5.349   8.220   5.215
21731W        W25799   5.949  10.307   6.209
21732W        W25800   6.820   9.098   4.631
21733W        W25801   5.722   7.756   4.647
21734W        W25802   4.379  10.450   4.330
21735W        W25803   3.750   7.949   4.929
21736W        W25804   6.536   8.556   5.403
21737W        W25805   3.994  10.173   5.318
21738W        W25806   5.335  10.523   4.188
21739W        W25807   6.727   8.549   3.652
21740W        W25808   3.750  10.307   5.816
21741W        W25809   4.541   9.879   6.296
21742W        W25810   4.914   9.239   4.915
21743W        W25811   4.936   7.644   6.008
21744W        W25812   7.165   7.406   5.305
21745W        W25813   4.384   9.278   3.773
21746W        W25814   4.039   8.311   3.952
21747W        W25815   4.101  10.267   4.746
21748W        W25816   5.232   9.750   4.994
21749W        W25817   6.564  10.609   6.708
21750W        W25818   5.490   8.251   4.392
21751W        W25819   6.873  10.649   5.164
21752W        W25820   6.550   8.502   6.762
21753W        W25821   7.263  10.158   4.896
21754W        W25822   5.890   9.450   6.380
21755W        W25823   3.656   9.001   4.586
21756W        W25824   4.767   9.416   6.159
21757W        W25825   5.971   8.680   4.537
21758W        W25826   5.848   9.170   4.641
21759W        W25827   4.191   8.590   6.115
21760W        W25828   4.176   8.466   7.037
21761W        W25829   4.066   7.383   5.196
21762W        W25830   5.834   7.730   5.757
21763W        W25831   5.482   7.915   6.920
21764W        W25832   5.837   8.064   4.098
21765W        W25833   7.020  10.457   6.852
21766W        W25834   5.987   7.538   6.891
21767W        W25835   7.006   9.839   7.013
21768W        W25836   6.436   8.006   6.609
21769W        W25837   6.236   7.944   4.879
21770W        W25838   6.629   9.078   7.283
21771W        W25839   4.369  10.654   5.269
21772W        W25840   5.027   8.371   4.255
21773W        W25841   4.596   7.655   6.919
21774W        W25842   6.648   8.139   4.600
21775W        W25843   7.015   8.621   4.545
21776W        W25844   4.758  10.838   7.016
21777W        W25845   4.684   7.374   4.251
21778W        W25846   7.005   7.908   5.286
21779W        W25847   7.155  10.157   3.731
21780W        W25848   4.062   9.360   5.433
21781W        W25849   5.979   7.947   3.663
21782W        W25850   7.113  10.279   5.383
21783W        W25851   7.152   7.473   6.133
21784W        W25852   5.597   8.685   6.687
21785W        W25853   5.690  10.024   4.390
21786W        W25854   6.090   9.318   7.130
21787W        W25855   5.764   7.295   5.439
21788W        W25856   4.376   8.198   5.502
21789W        W25857   3.930   9.398   6.276
21790W        W25858   5.789  10.591   4.982
21791W        W25859   6.983   8.188   5.854
21792W        W25860   5.620  10.535   6.621
21793W        W25861   6.963   9.594   3.826
21794W        W25862   5.398   9.077   4.887
21795W        W25863   7.250   7.588   6.628
21796W        W25864   5.399   9.423   6.222
21797W        W25865   5.616   8.309   5.667
21798W        W25866   6.468   8.607   4.505
21799W        W25867   6.755   8.340   4.147
21800W        W25868   6.564  10.380   4.536
21801W        W25869   6.398   9.983   5.332
21802W        W25870   6.294   9.062   4.310
21803W        W25871   5.727   9.272   5.296
21804W        W25872   6.608   9.060   5.363
21805W        W25873   6.761   9.127   6.614
21806W        W25874   7.112  10.745   5.760
21807W        W25875   5.042  10.189   5.162
21808W        W25876   6.049  10.722   6.486
21809W        W25877   6.043   8.052   6.250
21810W        W25878   5.250  10.760   6.311
21811W        W25879   6.947   7.714   4.777
21812W        W25880   6.738   9.033   6.078
21813W        W25881   3.721   8.354   6.116
21814W        W25882   6.581   8.149   5.134
21815W        W25883   6.992   8.300   6.911
21816W        W25884   5.877   9.999   5.129
21817W        W25885   5.133  10.590   4.742
21818W        W25886   4.248   7.770   4.000
21819W        W25887   5.352   7.424   5.810
21820W        W25888   4.380  10.544   3.658
21821W        W25889   4.754   9.010   4.409
21822W        W25890   5.408   9.639   6.722
21823W        W25891   5.238   7.997   4.712
21824W        W25892   6.594   7.594   5.140
21825W        W25893   6.314  10.876   5.468
21826W        W25894   5.726  10.524   5.808
21827W        W25895   5.122   9.561   5.769
21828W        W25896   6.892  10.284   5.895
21829W        W25897   4.586   7.787   4.664
21830W        W25898   5.108  10.084   5.624
21831W        W25899   4.591   8.015   3.689
21832W        W25900   5.392   8.624   6.083
21833W        W25901   6.240   7.490   5.953
21834W        W25902   3.660   9.333   5.838
21835W        W25903   5.364   9.151   3.996
21836W        W25904   4.632   7.466   3.766
21837W        W25905   5.370   8.547   4.817
21838W        W25906   6.340   7.523   6.516
21839W        W25907   4.928   9.535   6.625
21840W        W25908   5.732   9.317   6.842
21841W        W25909   6.349   9.347   6.735
21842W        W25910   4.855   8.103   5.633
21843W        W25911   4.281   8.059   5.031
21844W        W25912   4.067  10.771   4.707
21845W        W25913   5.399  10.101   6.832
21846W        W25914   4.434   9.586   4.191
21847W        W25915   6.114   8.971   5.412
21848W        W25916   6.394   8.770   5.811
21849W        W25917   5.599   9.444   5.745
21850W        W25918   6.069   9.818   3.877
21851W        W25919   5.741   7.839   5.205
21852W        W25920   7.220   8.117   4.473
21853W        W25921   3.714  10.706   6.504
21854W        W25922   4.131   9.932   6.036
21855W        W25923   3.698  10.778   4.268
21856W        W25924   5.597   8.048   6.074
21857W        W25925   4.960  10.071   3.923
21858W        W25926   6.865  10.453   4.109
21859W        W25927   5.840   9.106   4.123
21860W        W25928   4.683   8.297   4.640
21861W        W25929   5.515   8.207   3.692
21862W        W25930   6.099   9.772   6.870
21863W        W25931   6.452   7.678   4.487
21864W        W25932   3.782   7.526   3.935
21865W        W25933   5.068   9.845   6.225
21866W        W25934   4.867   9.761   5.317
21867W        W25935   4.609   9.713   3.715
21868W        W25936   3.850   9.954   4.483
21869W        W25937   4.354   9.024   6.925
21870W        W25938   5.767   7.726   6.467
21871W        W25939   4.962   7.494   4.748
21872W        W25940   6.021   7.571   4.253
21873W        W25941   3.966   7.503   5.830
21874W        W25942   4.014   8.466   5.200
21875W        W25943   6.703   7.574   5.606
21876W        W25944   4.125   8.072   4.420
21877W        W25945   6.696   7.760   6.036
21878W        W25946   7.092   8.963   3.721
21879W        W25947   4.384   7.721   5.540
21880W        W25948   5.498   8.293   6.480
21881W        W25949   3.646   7.983   3.958
21882W        W25950   4.432   9.372   6.519
21883W        W25951   5.790   8.770   5.698
21884W        W25952   5.657  10.849   3.994
21885W        W25953   3.803   9.356   3.691
21886W        W25954   4.538   9.767   6.817
21887W        W25955   4.059   8.934   6.448
21888W        W25956   5.050   9.039   6.242
21889W        W25957   6.818   7.398   6.504
21890W        W25958   7.216   9.008   6.495
21891W        W25959   7.204   9.208   4.181
21892W        W25960   6.067   9.540   4.280
21893W        W25961   6.541  10.840   3.975
21894W        W25962   5.718   8.830   7.117
21895W        W25963   4.048   9.797   7.157
21896W        W25964   7.254   7.719   7.109
21897W        W25965   6.972   8.647   5.730
21898W        W25966   5.280  10.777   7.207
21899W        W25967   5.135   7.406   3.934
21900W        W25968   6.674  10.005   3.877
21901W        W25969   4.443   8.098   6.763
21902W        W25970   4.877  10.092   6.625
21903W        W25971   7.003   8.083   6.423
21904W        W25972   6.214  10.742   4.391
21905W        W25973   6.453   9.361   5.758
21906W        W25974   5.172   8.846   7.182
21907W        W25975   4.675  10.025   4.376
21908W        W25976   6.430   9.523   4.640
21909W        W25977   4.198   8.149   6.364
21910W        W25978   5.527  10.211   4.828
21911W        W25979   7.277   8.771   5.009
21912W        W25980   6.279  10.109   5.807
21913W        W25981   6.582  10.453   5.515
21914W        W25982   5.801  10.255   3.943
21915W        W25983   3.811  10.147   6.785
21916W        W25984   4.554   8.139   6.023
21917W        W25985   4.524   7.487   5.133
21918W        W25986   6.145   8.329   5.825
21919W        W25987   4.943   9.500   4.025
21920W        W25988   6.941   9.442   5.524
21921W        W25989   4.268  10.200   6.947
21922W        W25990   6.655  10.882   4.744
21923W        W25991   4.754   7.902   5.189
21924W        W25992   4.523   9.395   5.279
21925W        W25993   4.836  10.806   6.029
21926W        W25994   6.903  10.902   7.061
21927W        W25995   6.062   9.090   5.994
21928W        W25996   3.911   8.888   3.909
21929W        W25997   7.045  10.546   4.606
21930W        W25998   6.882   7.870   4.225
21931W        W25999   6.727  10.191   5.086
21932W        W26000   6.756   8.747   4.991
21933W        W26001   4.873   8.420   5.207
21934W        W26002   5.118   8.682   6.531
21935W        W26003   6.229   9.835   6.394
21936W        W26004   4.879   8.289   6.506
21937W        W26005   4.858  10.755   5.122
21938W        W26006   4.175  10.714   6.756
21939W        W26007   4.287  10.075   3.886
21940W        W26008   6.804   9.833   4.696
21941W        W26009   4.408   8.625   6.582
21942W        W26010   7.181   8.555   4.063
21943W        W26011   4.926   9.612   4.534
21944W        W26012   6.025   8.994   6.615
21945W        W26013   5.916   8.622   6.159
21946W        W26014   4.476   8.994   6.188
21947W        W26015   6.686  10.882   6.017
21948W        W26016   4.141   7.666   6.598
21949W        W26017   4.849   8.503   3.773
21950W        W26018   3.652  10.262   6.318
21951W        W26019   5.237   8.971   5.761
21952W        W26020   5.060   7.996   3.866
21953W        W26021   3.966  10.664   6.084
21954W        W26022   6.761   8.890   4.192
21955W        W26023   6.856   7.806   6.878
21956W        W26024   6.292  10.015   4.841
21957W        W26025   3.890   8.939   7.018
21958W        W26026   6.856   7.403   4.314
21959W        W26027   6.376   9.878   4.325
21960W        W26028   5.278   8.936   4.410
21961W        W26029   6.465   7.740   3.933
21962W        W26030   6.530   8.347   6.119
21963W        W26031   4.239   8.940   5.326
21964W        W26032   4.533   9.879   4.975
21965W        W26033   6.296   8.499   4.940
21966W        W26034   5.319   7.878   5.636
21967W        W26035   7.281   9.789   6.147
21968W        W26036   7.199   7.776   5.708
21969W        W26037   3.738  10.606   5.084
21970W        W26038   4.247   9.793   4.620
21971W        W26039   4.162   7.410   7.173
21972W        W26040   5.281  10.263   7.275
21973W        W26041   7.036   9.231   5.065
21974W        W26042   6.390   9.408   3.945
21975W        W26043   5.685  10.929   6.157
21976W        W26044   6.542   9.651   7.194
21977W        W26045   5.357   7.361   4.474
21978W        W26046   6.070   8.230   5.333
21979W        W26047   3.756   9.817   5.665
21980W        W26048   5.009   7.779   4.306
21981W        W26049   4.813   9.263   7.155
21982W        W26050   5.807   8.244   4.869
21983W        W26051   6.012   9.654   5.991
21984W        W26052   4.166  10.259   6.426
21985W        W26053   4.757  10.242   7.149
21986W        W26054   4.608   8.039   4.163
21987W        W26055   6.125   8.181   4.488
21988W        W26056   6.083  10.289   6.725
21989W        W26057   4.768   8.881   5.324
21990W        W26058   4.423  10.579   6.189
21991W        W26059   7.168  10.696   3.790
21992W        W26060   4.031   9.368   6.786
21993W        W26061   6.026   9.630   5.474
21994W        W26062   4.833  10.286   6.111
21995W        W26063   5.211   7.705   5.152
21996W        W26064   3.822   9.689   4.082
21997W        W26065   5.341   8.640   3.952
21998W        W26066   3.987   9.189   4.971
21999W        W26067   5.277   7.831   6.435
22000W        W26068   6.949   7.540   3.862
22001W        W26069   7.042   9.286   6.961
22002W        W26070   5.696  10.543   7.113
22003W        W26071   7.254   9.637   6.635
22004W        W26072   6.662  10.435   7.246
22005W        W26073   4.401  10.891   5.724
22006W        W26074   7.260   9.513   4.598
22007W        W26075   5.790   8.780   5.111
22008W        W26076   5.557   7.392   5.001
22009W        W26077   4.616  10.376   4.838
22010W        W26078   5.115   8.117   6.063
22011W        W26079   4.815   7.486   5.532
22012W        W26080   3.878  10.308   4.080
22013W        W26081   5.694   9.672   4.798
22014W        W26082   4.569  10.467   6.677
22015W        W26083   4.046   9.290   4.373
22016W        W26084   3.931   7.833   5.372
22017W        W26085   5.479   9.798   5.429
22018W        W26086   3.731   7.652   4.449
22019W        W26087   6.395   8.858   6.376
22020W        W26088   6.272   8.244   3.948
22021W        W26089   6.789   9.916   5.596
22022W        W26090   5.450  10.400   5.427
22023W        W26091   4.862  10.504   4.338
22024W        W26092   6.144   7.407   3.768
22025W        W26093   3.944  10.667   5.509
22026W        W26094   4.124   7.955   7.143
22027W        W26095   3.855   8.555   4.476
22028W        W26096   4.546   8.544   4.201
22029W        W26097   6.309   8.871   7.018
22030W        W26098   4.652   9.152   5.727
22031W        W26099   6.126   7.438   4.847
22032W        W26100   5.257  10.869   5.350
22033W        W26101   6.471  10.331   6.287
22034W        W26102   6.055  10.480   5.398
22035W        W26103   6.074   9.460   4.992
22036W        W26104   5.536   7.685   4.063
22037W        W26105   7.217   7.313   4.785
22038W        W26106   4.905   8.948   3.948
22039W        W26107   7.071   8.285   4.938
22040W        W26108   5.763   9.455   3.815
22041W        W26109   6.699   9.655   6.563
22042W        W26110   6.353  10.356   4.030
22043W        W26111   4.968   8.031   6.936
22044W        W26112   4.788   8.615   6.177
22045W        W26113   6.880  10.110   6.454
22046W        W26114   5.980   8.060   6.831
22047W        W26115   3.824   8.531   6.608
22048W        W26116   5.584   9.008   6.334
22049W        W26117   3.941   9.766   4.991
22050W        W26118   4.088   9.063   5.881
22051W        W26119   6.405   9.349   6.231
22052W        W26120   6.177  10.729   7.042
22053W        W26121   6.073   8.468   6.595
22054W        W26122   6.350  10.522   5.000
22055W        W26123   5.352  10.242   6.323
22056W        W26124   4.837  10.597   5.592
22057W        W26125   6.642   9.768   6.011
22058W        W26126   5.692   9.840   7.148
22059W        W26127   4.297   9.793   5.487
22060W        W26128   6.643   9.552   5.132
22061W        W26129   6.284  10.618   5.883
22062W        W26130   4.262  10.347   5.753
22063W        W26131   5.283   8.399   6.963
22064W        W26132   5.734  10.565   4.474
22065W        W26133   5.042   9.820   7.112
22066W        W26134   5.168  10.058   4.489
22067W        W26135   4.389   8.798   3.748
22068W        W26136   3.728  10.884  10.648
22069W        W26137   4.104   9.777  10.171
22070W        W26138   6.809   9.507   7.941
22071W        W26139   6.939  10.592   9.968
22072W        W26140   4.857  10.583   7.494
22073W        W26141   4.940   8.735   8.477
22074W        W26142   4.455   8.583   8.641
22075W        W26143   5.446   9.398   8.075
22076W        W26144   5.121  10.490  10.430
22077W        W26145   3.770   8.051  10.393
22078W        W26146   4.532   7.331  10.195
22079W        W26147   6.226   7.719   9.082
22080W        W26148   5.875   8.590   7.652
22081W        W26149   6.445   8.024  10.743
22082W        W26150   3.811   7.816   9.868
22083W        W26151   3.910  10.435  10.889
22084W        W26152   5.432   9.825   7.621
22085W        W26153   3.864   8.608   9.314
22086W        W26154   4.757   8.499  10.551
22087W        W26155   7.216   8.358   9.050
22088W        W26156   6.980   9.401   9.909
22089W        W26157   5.288   8.734   8.936
22090W        W26158   5.834  10.073   9.305
22091W        W26159   4.334   9.507   9.537
22092W        W26160   3.693   9.035   9.108
22093W        W26161   4.729   9.007  10.300
22094W        W26162   7.000   8.790  10.554
22095W        W26163   4.616  10.234   8.999
22096W        W26164   5.737   9.923  10.133
22097W        W26165   4.957   8.563   9.358
22098W        W26166   5.249   9.347   9.001
22099W        W26167   6.246  10.120  10.849
22100W        W26168   5.325   9.440  10.859
22101W        W26169   5.306   9.156  10.337
22102W        W26170   3.715   8.547  10.859
22103W        W26171   6.547  10.082  10.458
22104W        W26172   4.128   7.664   8.456
22105W        W26173   4.655   9.922   9.455
22106W        W26174   7.118   9.705   8.745
22107W        W26175   6.531   8.105   9.312
22108W        W26176   6.816   8.058   7.407
22109W        W26177   7.281   8.859   9.713
22110W        W26178   5.248  10.566   9.466
22111W        W26179   7.022  10.032   7.904
22112W        W26180   4.151  10.818   7.658
22113W        W26181   4.544  10.864   8.334
22114W        W26182   4.341   7.618   9.760
22115W        W26183   6.964   8.636  10.035
22116W        W26184   6.369   9.058   8.494
22117W        W26185   6.335   8.746   7.521
22118W        W26186   5.543   9.890   9.661
22119W        W26187   5.349   8.220   8.860
22120W        W26188   5.949  10.307   9.854
22121W        W26189   6.820   9.098   8.276
22122W        W26190   5.722   7.756   8.292
22123W        W26191   4.379  10.450   7.975
22124W        W26192   3.750   7.949   8.574
22125W        W26193   6.536   8.556   9.048
22126W        W26194   3.994  10.173   8.963
22127W        W26195   5.335  10.523   7.833
22128W        W26196   6.727   8.549   7.297
22129W        W26197   3.750  10.307   9.461
22130W        W26198   4.541   9.879   9.941
22131W        W26199   4.914   9.239   8.560
22132W        W26200   4.936   7.644   9.653
22133W        W26201   7.165   7.406   8.950
22134W        W26202   4.384   9.278   7.418
22135W        W26203   4.039   8.311   7.597
22136W        W26204   4.101  10.267   8.391
22137W        W26205   5.232   9.750   8.639
22138W        W26206   6.564  10.609  10.353
22139W        W26207   5.490   8.251   8.037
22140W        W26208   6.873  10.649   8.809
22141W        W26209   6.550   8.502  10.407
22142W        W26210   7.263  10.158   8.541
22143W        W26211   5.890   9.450  10.025
22144W        W26212   4.767   9.416   9.804
22145W        W26213   5.971   8.680   8.182
22146W        W26214   5.848   9.170   8.286
22147W        W26215   4.191   8.590   9.760
22148W        W26216   4.176   8.466  10.682
22149W        W26217   4.066   7.383   8.841
22150W        W26218   5.834   7.730   9.402
22151W        W26219   5.482   7.915  10.565
22152W        W26220   5.837   8.064   7.743
22153W        W26221   7.020  10.457  10.497
22154W        W26222   5.987   7.538  10.536
22155W        W26223   7.006   9.839  10.658
22156W        W26224   6.436   8.006  10.254
22157W        W26225   6.236   7.944   8.524
22158W        W26226   6.629   9.078  10.928
22159W        W26227   4.369  10.654   8.914
22160W        W26228   5.027   8.371   7.900
22161W        W26229   4.596   7.655  10.564
22162W        W26230   6.648   8.139   8.245
22163W        W26231   7.015   8.621   8.190
22164W        W26232   4.758  10.838  10.661
22165W        W26233   4.684   7.374   7.896
22166W        W26234   7.005   7.908   8.931
22167W        W26235   7.155  10.157   7.376
22168W        W26236   4.062   9.360   9.078
22169W        W26237   5.979   7.947   7.308
22170W        W26238   7.113  10.279   9.028
22171W        W26239   7.152   7.473   9.778
22172W        W26240   5.597   8.685  10.332
22173W        W26241   5.690  10.024   8.035
22174W        W26242   6.090   9.318  10.775
22175W        W26243   5.764   7.295   9.084
22176W        W26244   4.376   8.198   9.147
22177W        W26245   3.930   9.398   9.921
22178W        W26246   5.789  10.591   8.627
22179W        W26247   6.983   8.188   9.499
22180W        W26248   5.620  10.535  10.266
22181W        W26249   6.963   9.594   7.471
22182W        W26250   5.398   9.077   8.532
22183W        W26251   7.250   7.588  10.273
22184W        W26252   5.399   9.423   9.867
22185W        W26253   5.616   8.309   9.312
22186W        W26254   6.468   8.607   8.150
22187W        W26255   6.755   8.340   7.792
22188W        W26256   6.564  10.380   8.181
22189W        W26257   6.398   9.983   8.977
22190W        W26258   6.294   9.062   7.955
22191W        W26259   5.727   9.272   8.941
22192W        W26260   6.608   9.060   9.008
22193W        W26261   3.983   8.075   9.432
22194W        W26262   6.761   9.127  10.259
22195W        W26263   7.112  10.745   9.405
22196W        W26264   5.042  10.189   8.807
22197W        W26265   6.049  10.722  10.131
22198W        W26266   6.043   8.052   9.895
22199W        W26267   5.250  10.760   9.956
22200W        W26268   6.947   7.714   8.422
22201W        W26269   6.738   9.033   9.723
22202W        W26270   3.721   8.354   9.761
22203W        W26271   6.581   8.149   8.779
22204W        W26272   6.992   8.300  10.556
22205W        W26273   5.877   9.999   8.774
22206W        W26274   5.133  10.590   8.387
22207W        W26275   4.248   7.770   7.645
22208W        W26276   5.352   7.424   9.455
22209W        W26277   4.380  10.544   7.303
22210W        W26278   4.754   9.010   8.054
22211W        W26279   5.408   9.639  10.367
22212W        W26280   5.238   7.997   8.357
22213W        W26281   6.594   7.594   8.785
22214W        W26282   6.314  10.876   9.113
22215W        W26283   5.726  10.524   9.453
22216W        W26284   5.122   9.561   9.414
22217W        W26285   6.892  10.284   9.540
22218W        W26286   4.586   7.787   8.309
22219W        W26287   5.108  10.084   9.269
22220W        W26288   4.591   8.015   7.334
22221W        W26289   5.392   8.624   9.728
22222W        W26290   6.240   7.490   9.598
22223W        W26291   3.660   9.333   9.483
22224W        W26292   5.364   9.151   7.641
22225W        W26293   4.632   7.466   7.411
22226W        W26294   5.370   8.547   8.462
22227W        W26295   6.340   7.523  10.161
22228W        W26296   4.928   9.535  10.270
22229W        W26297   5.732   9.317  10.487
22230W        W26298   6.349   9.347  10.380
22231W        W26299   5.633   7.487  10.885
22232W        W26300   4.855   8.103   9.278
22233W        W26301   4.281   8.059   8.676
22234W        W26302   4.067  10.771   8.352
22235W        W26303   5.399  10.101  10.477
22236W        W26304   4.434   9.586   7.836
22237W        W26305   6.114   8.971   9.057
22238W        W26306   6.394   8.770   9.456
22239W        W26307   5.599   9.444   9.390
22240W        W26308   6.069   9.818   7.522
22241W        W26309   5.741   7.839   8.850
22242W        W26310   7.220   8.117   8.118
22243W        W26311   3.714  10.706  10.149
22244W        W26312   4.131   9.932   9.681
22245W        W26313   3.698  10.778   7.913
22246W        W26314   5.597   8.048   9.719
22247W        W26315   4.960  10.071   7.568
22248W        W26316   6.865  10.453   7.754
22249W        W26317   5.840   9.106   7.768
22250W        W26318   4.683   8.297   8.285
22251W        W26319   5.515   8.207   7.337
22252W        W26320   6.099   9.772  10.515
22253W        W26321   6.452   7.678   8.132
22254W        W26322   3.782   7.526   7.580
22255W        W26323   5.068   9.845   9.870
22256W        W26324   4.867   9.761   8.962
22257W        W26325   4.609   9.713   7.360
22258W        W26326   3.850   9.954   8.128
22259W        W26327   4.354   9.024  10.570
22260W        W26328   5.058   7.584  10.756
22261W        W26329   5.767   7.726  10.112
22262W        W26330   4.962   7.494   8.393
22263W        W26331   3.966   7.503   9.475
22264W        W26332   4.014   8.466   8.845
22265W        W26333   6.703   7.574   9.251
22266W        W26334   4.125   8.072   8.065
22267W        W26335   6.696   7.760   9.681
22268W        W26336   7.092   8.963   7.366
22269W        W26337   4.384   7.721   9.185
22270W        W26338   5.498   8.293  10.125
22271W        W26339   3.646   7.983   7.603
22272W        W26340   4.432   9.372  10.164
22273W        W26341   5.790   8.770   9.343
22274W        W26342   5.657  10.849   7.639
22275W        W26343   3.803   9.356   7.336
22276W        W26344   4.538   9.767  10.462
22277W        W26345   4.059   8.934  10.093
22278W        W26346   5.050   9.039   9.887
22279W        W26347   6.818   7.398  10.149
22280W        W26348   7.216   9.008  10.140
22281W        W26349   7.204   9.208   7.826
22282W        W26350   6.067   9.540   7.925
22283W        W26351   6.541  10.840   7.620
22284W        W26352   5.718   8.830  10.762
22285W        W26353   4.048   9.797  10.802
22286W        W26354   7.254   7.719  10.754
22287W        W26355   6.972   8.647   9.375
22288W        W26356   5.280  10.777  10.852
22289W        W26357   6.674  10.005   7.522
22290W        W26358   4.443   8.098  10.408
22291W        W26359   4.877  10.092  10.270
22292W        W26360   7.003   8.083  10.068
22293W        W26361   6.214  10.742   8.036
22294W        W26362   6.453   9.361   9.403
22295W        W26363   4.703   7.777  10.070
22296W        W26364   5.172   8.846  10.827
22297W        W26365   4.675  10.025   8.021
22298W        W26366   6.430   9.523   8.285
22299W        W26367   4.198   8.149  10.009
22300W        W26368   5.527  10.211   8.473
22301W        W26369   7.277   8.771   8.654
22302W        W26370   5.499   7.404  10.373
22303W        W26371   6.279  10.109   9.452
22304W        W26372   6.582  10.453   9.160
22305W        W26373   5.801  10.255   7.588
22306W        W26374   3.811  10.147  10.430
22307W        W26375   4.554   8.139   9.668
22308W        W26376   6.145   8.329   9.470
22309W        W26377   4.943   9.500   7.670
22310W        W26378   6.941   9.442   9.169
22311W        W26379   4.268  10.200  10.592
22312W        W26380   6.655  10.882   8.389
22313W        W26381   4.754   7.902   8.834
22314W        W26382   4.523   9.395   8.924
22315W        W26383   4.836  10.806   9.674
22316W        W26384   6.903  10.902  10.706
22317W        W26385   6.062   9.090   9.639
22318W        W26386   3.911   8.888   7.554
22319W        W26387   7.045  10.546   8.251
22320W        W26388   6.882   7.870   7.870
22321W        W26389   5.021   7.389  10.273
22322W        W26390   6.727  10.191   8.731
22323W        W26391   6.756   8.747   8.636
22324W        W26392   4.873   8.420   8.852
22325W        W26393   5.118   8.682  10.176
22326W        W26394   6.229   9.835  10.039
22327W        W26395   4.879   8.289  10.151
22328W        W26396   4.858  10.755   8.767
22329W        W26397   4.175  10.714  10.401
22330W        W26398   4.287  10.075   7.531
22331W        W26399   6.804   9.833   8.341
22332W        W26400   4.408   8.625  10.227
22333W        W26401   7.181   8.555   7.708
22334W        W26402   4.926   9.612   8.179
22335W        W26403   6.025   8.994  10.260
22336W        W26404   5.916   8.622   9.804
22337W        W26405   4.476   8.994   9.833
22338W        W26406   6.686  10.882   9.662
22339W        W26407   6.477   7.516  10.656
22340W        W26408   4.141   7.666  10.243
22341W        W26409   4.480   8.689   9.296
22342W        W26410   4.849   8.503   7.418
22343W        W26411   3.652  10.262   9.963
22344W        W26412   5.237   8.971   9.406
22345W        W26413   4.195   8.812   8.292
22346W        W26414   3.966  10.664   9.729
22347W        W26415   6.856   7.806  10.523
22348W        W26416   6.292  10.015   8.486
22349W        W26417   3.890   8.939  10.663
22350W        W26418   6.856   7.403   7.959
22351W        W26419   6.376   9.878   7.970
22352W        W26420   5.278   8.936   8.055
22353W        W26421   6.465   7.740   7.578
22354W        W26422   6.530   8.347   9.764
22355W        W26423   4.239   8.940   8.971
22356W        W26424   4.533   9.879   8.620
22357W        W26425   6.296   8.499   8.585
22358W        W26426   5.319   7.878   9.281
22359W        W26427   7.281   9.789   9.792
22360W        W26428   7.199   7.776   9.353
22361W        W26429   3.738  10.606   8.729
22362W        W26430   4.247   9.793   8.265
22363W        W26431   4.162   7.410  10.818
22364W        W26432   5.281  10.263  10.920
22365W        W26433   7.036   9.231   8.710
22366W        W26434   6.390   9.408   7.590
22367W        W26435   5.685  10.929   9.802
22368W        W26436   6.542   9.651  10.839
22369W        W26437   5.357   7.361   8.119
22370W        W26438   6.070   8.230   8.978
22371W        W26439   3.756   9.817   9.310
22372W        W26440   5.009   7.779   7.951
22373W        W26441   4.813   9.263  10.800
22374W        W26442   5.807   8.244   8.514
22375W        W26443   6.012   9.654   9.636
22376W        W26444   4.166  10.259  10.071
22377W        W26445   4.757  10.242  10.794
22378W        W26446   4.608   8.039   7.808
22379W        W26447   6.125   8.181   8.133
22380W        W26448   6.083  10.289  10.370
22381W        W26449   4.768   8.881   8.969
22382W        W26450   4.423  10.579   9.834
22383W        W26451   7.168  10.696   7.435
22384W        W26452   4.031   9.368  10.431
22385W        W26453   6.026   9.630   9.119
22386W        W26454   4.462   9.279   8.361
22387W        W26455   4.833  10.286   9.756
22388W        W26456   5.211   7.705   8.797
22389W        W26457   3.822   9.689   7.727
22390W        W26458   3.987   9.189   8.616
22391W        W26459   5.277   7.831  10.080
22392W        W26460   6.949   7.540   7.507
22393W        W26461   7.042   9.286  10.606
22394W        W26462   5.696  10.543  10.758
22395W        W26463   7.254   9.637  10.280
22396W        W26464   6.662  10.435  10.891
22397W        W26465   4.401  10.891   9.369
22398W        W26466   7.260   9.513   8.243
22399W        W26467   5.790   8.780   8.756
22400W        W26468   5.557   7.392   8.646
22401W        W26469   4.616  10.376   8.483
22402W        W26470   5.115   8.117   9.708
22403W        W26471   4.815   7.486   9.177
22404W        W26472   3.878  10.308   7.725
22405W        W26473   5.694   9.672   8.443
22406W        W26474   4.569  10.467  10.322
22407W        W26475   4.046   9.290   8.018
22408W        W26476   3.931   7.833   9.017
22409W        W26477   5.479   9.798   9.074
22410W        W26478   3.731   7.652   8.094
22411W        W26479   6.395   8.858  10.021
22412W        W26480   6.272   8.244   7.593
22413W        W26481   6.789   9.916   9.241
22414W        W26482   5.450  10.400   9.072
22415W        W26483   4.862  10.504   7.983
22416W        W26484   3.944  10.667   9.154
22417W        W26485   6.141   8.425  10.789
22418W        W26486   4.124   7.955  10.788
22419W        W26487   3.855   8.555   8.121
22420W        W26488   4.546   8.544   7.846
22421W        W26489   6.309   8.871  10.663
22422W        W26490   4.652   9.152   9.372
22423W        W26491   6.126   7.438   8.492
22424W        W26492   5.257  10.869   8.995
22425W        W26493   6.471  10.331   9.932
22426W        W26494   6.055  10.480   9.043
22427W        W26495   6.074   9.460   8.637
22428W        W26496   7.217   7.313   8.430
22429W        W26497   4.905   8.948   7.593
22430W        W26498   7.071   8.285   8.583
22431W        W26499   5.763   9.455   7.460
22432W        W26500   6.699   9.655  10.208
22433W        W26501   6.353  10.356   7.675
22434W        W26502   4.968   8.031  10.581
22435W        W26503   4.788   8.615   9.822
22436W        W26504   6.880  10.110  10.099
22437W        W26505   5.980   8.060  10.476
22438W        W26506   3.824   8.531  10.253
22439W        W26507   5.584   9.008   9.979
22440W        W26508   3.941   9.766   8.636
22441W        W26509   4.088   9.063   9.526
22442W        W26510   6.405   9.349   9.876
22443W        W26511   6.177  10.729  10.687
22444W        W26512   6.073   8.468  10.240
22445W        W26513   6.350  10.522   8.645
22446W        W26514   5.352  10.242   9.968
22447W        W26515   4.837  10.597   9.237
22448W        W26516   6.642   9.768   9.656
22449W        W26517   5.692   9.840  10.793
22450W        W26518   4.297   9.793   9.132
22451W        W26519   6.643   9.552   8.777
22452W        W26520   6.284  10.618   9.528
22453W        W26521   4.262  10.347   9.398
22454W        W26522   5.283   8.399  10.608
22455W        W26523   5.734  10.565   8.119
22456W        W26524   5.042   9.820  10.757
22457W        W26525   5.168  10.058   8.134
22458W        W26526   4.389   8.798   7.393
22459W        W26527   3.728  10.884  14.292
22460W        W26528   4.104   9.777  13.815
22461W        W26529   6.809   9.507  11.585
22462W        W26530   6.939  10.592  13.612
22463W        W26531   4.857  10.583  11.138
22464W        W26532   4.940   8.735  12.121
22465W        W26533   4.455   8.583  12.285
22466W        W26534   5.446   9.398  11.719
22467W        W26535   5.121  10.490  14.074
22468W        W26536   3.770   8.051  14.037
22469W        W26537   4.532   7.331  13.839
22470W        W26538   6.226   7.719  12.726
22471W        W26539   5.875   8.590  11.296
22472W        W26540   6.445   8.024  14.387
22473W        W26541   3.811   7.816  13.512
22474W        W26542   3.910  10.435  14.533
22475W        W26543   5.432   9.825  11.265
22476W        W26544   3.864   8.608  12.958
22477W        W26545   4.757   8.499  14.195
22478W        W26546   7.216   8.358  12.694
22479W        W26547   6.980   9.401  13.553
22480W        W26548   5.288   8.734  12.580
22481W        W26549   5.834  10.073  12.949
22482W        W26550   4.334   9.507  13.181
22483W        W26551   3.693   9.035  12.752
22484W        W26552   4.729   9.007  13.944
22485W        W26553   7.000   8.790  14.198
22486W        W26554   4.616  10.234  12.643
22487W        W26555   5.737   9.923  13.777
22488W        W26556   4.957   8.563  13.002
22489W        W26557   5.249   9.347  12.645
22490W        W26558   6.246  10.120  14.493
22491W        W26559   5.325   9.440  14.503
22492W        W26560   5.306   9.156  13.981
22493W        W26561   3.715   8.547  14.503
22494W        W26562   6.547  10.082  14.102
22495W        W26563   4.128   7.664  12.100
22496W        W26564   4.655   9.922  13.099
22497W        W26565   7.118   9.705  12.389
22498W        W26566   6.531   8.105  12.956
22499W        W26567   6.816   8.058  11.051
22500W        W26568   7.281   8.859  13.357
22501W        W26569   5.248  10.566  13.110
22502W        W26570   7.022  10.032  11.548
22503W        W26571   4.151  10.818  11.302
22504W        W26572   4.544  10.864  11.978
22505W        W26573   4.341   7.618  13.404
22506W        W26574   6.964   8.636  13.679
22507W        W26575   6.369   9.058  12.138
22508W        W26576   6.335   8.746  11.165
22509W        W26577   5.543   9.890  13.305
22510W        W26578   5.349   8.220  12.504
22511W        W26579   5.949  10.307  13.498
22512W        W26580   6.820   9.098  11.920
22513W        W26581   5.722   7.756  11.936
22514W        W26582   4.379  10.450  11.619
22515W        W26583   3.750   7.949  12.218
22516W        W26584   6.536   8.556  12.692
22517W        W26585   3.994  10.173  12.607
22518W        W26586   5.335  10.523  11.477
22519W        W26587   6.727   8.549  10.941
22520W        W26588   3.750  10.307  13.105
22521W        W26589   4.541   9.879  13.585
22522W        W26590   4.914   9.239  12.204
22523W        W26591   4.936   7.644  13.297
22524W        W26592   7.165   7.406  12.594
22525W        W26593   4.384   9.278  11.062
22526W        W26594   4.039   8.311  11.241
22527W        W26595   4.101  10.267  12.035
22528W        W26596   5.232   9.750  12.283
22529W        W26597   6.564  10.609  13.997
22530W        W26598   5.490   8.251  11.681
22531W        W26599   6.873  10.649  12.453
22532W        W26600   6.550   8.502  14.051
22533W        W26601   7.263  10.158  12.185
22534W        W26602   5.890   9.450  13.669
22535W        W26603   3.656   9.001  11.875
22536W        W26604   4.767   9.416  13.448
22537W        W26605   5.971   8.680  11.826
22538W        W26606   5.848   9.170  11.930
22539W        W26607   4.191   8.590  13.404
22540W        W26608   4.176   8.466  14.326
22541W        W26609   4.066   7.383  12.485
22542W        W26610   5.834   7.730  13.046
22543W        W26611   5.482   7.915  14.209
22544W        W26612   5.837   8.064  11.387
22545W        W26613   7.020  10.457  14.141
22546W        W26614   5.987   7.538  14.180
22547W        W26615   7.006   9.839  14.302
22548W        W26616   6.436   8.006  13.898
22549W        W26617   6.236   7.944  12.168
22550W        W26618   6.629   9.078  14.572
22551W        W26619   4.369  10.654  12.558
22552W        W26620   5.027   8.371  11.544
22553W        W26621   4.596   7.655  14.208
22554W        W26622   6.648   8.139  11.889
22555W        W26623   7.015   8.621  11.834
22556W        W26624   4.758  10.838  14.305
22557W        W26625   4.684   7.374  11.540
22558W        W26626   7.005   7.908  12.575
22559W        W26627   7.155  10.157  11.020
22560W        W26628   4.062   9.360  12.722
22561W        W26629   5.979   7.947  10.952
22562W        W26630   7.113  10.279  12.672
22563W        W26631   7.152   7.473  13.422
22564W        W26632   5.597   8.685  13.976
22565W        W26633   5.690  10.024  11.679
22566W        W26634   6.090   9.318  14.419
22567W        W26635   5.764   7.295  12.728
22568W        W26636   4.376   8.198  12.791
22569W        W26637   3.930   9.398  13.565
22570W        W26638   5.789  10.591  12.271
22571W        W26639   6.983   8.188  13.143
22572W        W26640   5.620  10.535  13.910
22573W        W26641   6.963   9.594  11.115
22574W        W26642   5.398   9.077  12.176
22575W        W26643   7.250   7.588  13.917
22576W        W26644   5.399   9.423  13.511
22577W        W26645   5.616   8.309  12.956
22578W        W26646   6.468   8.607  11.794
22579W        W26647   6.755   8.340  11.436
22580W        W26648   6.564  10.380  11.825
22581W        W26649   6.398   9.983  12.621
22582W        W26650   6.294   9.062  11.599
22583W        W26651   5.727   9.272  12.585
22584W        W26652   6.608   9.060  12.652
22585W        W26653   3.983   8.075  13.076
22586W        W26654   6.761   9.127  13.903
22587W        W26655   7.112  10.745  13.049
22588W        W26656   5.042  10.189  12.451
22589W        W26657   6.049  10.722  13.775
22590W        W26658   6.043   8.052  13.539
22591W        W26659   5.250  10.760  13.600
22592W        W26660   6.947   7.714  12.066
22593W        W26661   6.738   9.033  13.367
22594W        W26662   3.721   8.354  13.405
22595W        W26663   6.581   8.149  12.423
22596W        W26664   6.992   8.300  14.200
22597W        W26665   5.877   9.999  12.418
22598W        W26666   5.133  10.590  12.031
22599W        W26667   4.248   7.770  11.289
22600W        W26668   5.352   7.424  13.099
22601W        W26669   4.380  10.544  10.947
22602W        W26670   4.754   9.010  11.698
22603W        W26671   5.408   9.639  14.011
22604W        W26672   5.238   7.997  12.001
22605W        W26673   6.594   7.594  12.429
22606W        W26674   6.314  10.876  12.757
22607W        W26675   5.726  10.524  13.097
22608W        W26676   5.122   9.561  13.058
22609W        W26677   6.892  10.284  13.184
22610W        W26678   4.586   7.787  11.953
22611W        W26679   5.108  10.084  12.913
22612W        W26680   4.591   8.015  10.978
22613W        W26681   5.392   8.624  13.372
22614W        W26682   6.240   7.490  13.242
22615W        W26683   3.660   9.333  13.127
22616W        W26684   5.364   9.151  11.285
22617W        W26685   4.632   7.466  11.055
22618W        W26686   5.370   8.547  12.106
22619W        W26687   6.340   7.523  13.805
22620W        W26688   4.928   9.535  13.914
22621W        W26689   5.732   9.317  14.131
22622W        W26690   6.349   9.347  14.024
22623W        W26691   5.633   7.487  14.529
22624W        W26692   4.855   8.103  12.922
22625W        W26693   4.281   8.059  12.320
22626W        W26694   4.067  10.771  11.996
22627W        W26695   5.399  10.101  14.121
22628W        W26696   4.434   9.586  11.480
22629W        W26697   6.114   8.971  12.701
22630W        W26698   6.394   8.770  13.100
22631W        W26699   5.599   9.444  13.034
22632W        W26700   6.069   9.818  11.166
22633W        W26701   5.741   7.839  12.494
22634W        W26702   7.220   8.117  11.762
22635W        W26703   3.714  10.706  13.793
22636W        W26704   4.131   9.932  13.325
22637W        W26705   3.698  10.778  11.557
22638W        W26706   5.597   8.048  13.363
22639W        W26707   4.960  10.071  11.212
22640W        W26708   6.865  10.453  11.398
22641W        W26709   5.840   9.106  11.412
22642W        W26710   4.683   8.297  11.929
22643W        W26711   5.515   8.207  10.981
22644W        W26712   6.099   9.772  14.159
22645W        W26713   6.452   7.678  11.776
22646W        W26714   3.782   7.526  11.224
22647W        W26715   5.068   9.845  13.514
22648W        W26716   4.867   9.761  12.606
22649W        W26717   4.609   9.713  11.004
22650W        W26718   3.850   9.954  11.772
22651W        W26719   4.354   9.024  14.214
22652W        W26720   5.058   7.584  14.400
22653W        W26721   5.767   7.726  13.756
22654W        W26722   4.962   7.494  12.037
22655W        W26723   6.021   7.571  11.542
22656W        W26724   3.966   7.503  13.119
22657W        W26725   4.014   8.466  12.489
22658W        W26726   6.703   7.574  12.895
22659W        W26727   4.125   8.072  11.709
22660W        W26728   6.696   7.760  13.325
22661W        W26729   7.092   8.963  11.010
22662W        W26730   4.384   7.721  12.829
22663W        W26731   5.498   8.293  13.769
22664W        W26732   3.646   7.983  11.247
22665W        W26733   4.432   9.372  13.808
22666W        W26734   5.790   8.770  12.987
22667W        W26735   5.657  10.849  11.283
22668W        W26736   3.803   9.356  10.980
22669W        W26737   4.538   9.767  14.106
22670W        W26738   4.059   8.934  13.737
22671W        W26739   5.050   9.039  13.531
22672W        W26740   6.818   7.398  13.793
22673W        W26741   7.216   9.008  13.784
22674W        W26742   7.204   9.208  11.470
22675W        W26743   6.067   9.540  11.569
22676W        W26744   6.541  10.840  11.264
22677W        W26745   5.718   8.830  14.406
22678W        W26746   4.048   9.797  14.446
22679W        W26747   7.254   7.719  14.398
22680W        W26748   6.972   8.647  13.019
22681W        W26749   5.280  10.777  14.496
22682W        W26750   5.135   7.406  11.223
22683W        W26751   6.674  10.005  11.166
22684W        W26752   4.443   8.098  14.052
22685W        W26753   4.877  10.092  13.914
22686W        W26754   7.003   8.083  13.712
22687W        W26755   6.214  10.742  11.680
22688W        W26756   6.453   9.361  13.047
22689W        W26757   4.703   7.777  13.714
22690W        W26758   5.172   8.846  14.471
22691W        W26759   4.675  10.025  11.665
22692W        W26760   6.430   9.523  11.929
22693W        W26761   4.198   8.149  13.653
22694W        W26762   5.527  10.211  12.117
22695W        W26763   7.277   8.771  12.298
22696W        W26764   5.499   7.404  14.017
22697W        W26765   6.279  10.109  13.096
22698W        W26766   6.582  10.453  12.804
22699W        W26767   5.801  10.255  11.232
22700W        W26768   3.811  10.147  14.074
22701W        W26769   4.554   8.139  13.312
22702W        W26770   4.524   7.487  12.422
22703W        W26771   6.145   8.329  13.114
22704W        W26772   4.943   9.500  11.314
22705W        W26773   6.941   9.442  12.813
22706W        W26774   4.268  10.200  14.236
22707W        W26775   6.655  10.882  12.033
22708W        W26776   4.754   7.902  12.478
22709W        W26777   4.523   9.395  12.568
22710W        W26778   4.836  10.806  13.318
22711W        W26779   6.903  10.902  14.350
22712W        W26780   6.062   9.090  13.283
22713W        W26781   3.911   8.888  11.198
22714W        W26782   7.045  10.546  11.895
22715W        W26783   6.882   7.870  11.514
22716W        W26784   5.021   7.389  13.917
22717W        W26785   6.727  10.191  12.375
22718W        W26786   6.756   8.747  12.280
22719W        W26787   4.873   8.420  12.496
22720W        W26788   5.118   8.682  13.820
22721W        W26789   6.229   9.835  13.683
22722W        W26790   4.879   8.289  13.795
22723W        W26791   4.858  10.755  12.411
22724W        W26792   4.175  10.714  14.045
22725W        W26793   4.287  10.075  11.175
22726W        W26794   6.804   9.833  11.985
22727W        W26795   4.408   8.625  13.871
22728W        W26796   7.181   8.555  11.352
22729W        W26797   4.926   9.612  11.823
22730W        W26798   6.025   8.994  13.904
22731W        W26799   5.916   8.622  13.448
22732W        W26800   4.476   8.994  13.477
22733W        W26801   6.686  10.882  13.306
22734W        W26802   6.477   7.516  14.300
22735W        W26803   4.141   7.666  13.887
22736W        W26804   4.480   8.689  12.940
22737W        W26805   4.849   8.503  11.062
22738W        W26806   3.652  10.262  13.607
22739W        W26807   5.237   8.971  13.050
22740W        W26808   5.060   7.996  11.155
22741W        W26809   4.195   8.812  11.936
22742W        W26810   3.966  10.664  13.373
22743W        W26811   6.761   8.890  11.481
22744W        W26812   6.856   7.806  14.167
22745W        W26813   6.292  10.015  12.130
22746W        W26814   3.890   8.939  14.307
22747W        W26815   6.856   7.403  11.603
22748W        W26816   6.376   9.878  11.614
22749W        W26817   5.278   8.936  11.699
22750W        W26818   6.465   7.740  11.222
22751W        W26819   6.530   8.347  13.408
22752W        W26820   4.239   8.940  12.615
22753W        W26821   4.533   9.879  12.264
22754W        W26822   6.296   8.499  12.229
22755W        W26823   5.319   7.878  12.925
22756W        W26824   7.281   9.789  13.436
22757W        W26825   7.199   7.776  12.997
22758W        W26826   3.738  10.606  12.373
22759W        W26827   4.247   9.793  11.909
22760W        W26828   4.162   7.410  14.462
22761W        W26829   5.281  10.263  14.564
22762W        W26830   7.036   9.231  12.354
22763W        W26831   6.390   9.408  11.234
22764W        W26832   5.685  10.929  13.446
22765W        W26833   6.542   9.651  14.483
22766W        W26834   5.357   7.361  11.763
22767W        W26835   6.070   8.230  12.622
22768W        W26836   3.756   9.817  12.954
22769W        W26837   5.009   7.779  11.595
22770W        W26838   4.813   9.263  14.444
22771W        W26839   5.807   8.244  12.158
22772W        W26840   6.012   9.654  13.280
22773W        W26841   4.166  10.259  13.715
22774W        W26842   4.757  10.242  14.438
22775W        W26843   4.608   8.039  11.452
22776W        W26844   6.125   8.181  11.777
22777W        W26845   6.083  10.289  14.014
22778W        W26846   4.768   8.881  12.613
22779W        W26847   4.423  10.579  13.478
22780W        W26848   7.168  10.696  11.079
22781W        W26849   4.031   9.368  14.075
22782W        W26850   6.026   9.630  12.763
22783W        W26851   4.462   9.279  12.005
22784W        W26852   4.833  10.286  13.400
22785W        W26853   5.211   7.705  12.441
22786W        W26854   3.822   9.689  11.371
22787W        W26855   5.341   8.640  11.241
22788W        W26856   3.987   9.189  12.260
22789W        W26857   5.277   7.831  13.724
22790W        W26858   6.949   7.540  11.151
22791W        W26859   7.042   9.286  14.250
22792W        W26860   5.696  10.543  14.402
22793W        W26861   7.254   9.637  13.924
22794W        W26862   6.662  10.435  14.535
22795W        W26863   4.401  10.891  13.013
22796W        W26864   7.260   9.513  11.887
22797W        W26865   5.790   8.780  12.400
22798W        W26866   5.557   7.392  12.290
22799W        W26867   4.616  10.376  12.127
22800W        W26868   5.115   8.117  13.352
22801W        W26869   4.815   7.486  12.821
22802W        W26870   3.878  10.308  11.369
22803W        W26871   5.694   9.672  12.087
22804W        W26872   4.569  10.467  13.966
22805W        W26873   4.046   9.290  11.662
22806W        W26874   3.931   7.833  12.661
22807W        W26875   5.479   9.798  12.718
22808W        W26876   3.731   7.652  11.738
22809W        W26877   6.395   8.858  13.665
22810W        W26878   6.272   8.244  11.237
22811W        W26879   6.789   9.916  12.885
22812W        W26880   5.450  10.400  12.716
22813W        W26881   4.862  10.504  11.627
22814W        W26882   6.144   7.407  11.057
22815W        W26883   3.944  10.667  12.798
22816W        W26884   6.141   8.425  14.433
22817W        W26885   4.124   7.955  14.432
22818W        W26886   3.855   8.555  11.765
22819W        W26887   4.546   8.544  11.490
22820W        W26888   6.309   8.871  14.307
22821W        W26889   4.652   9.152  13.016
22822W        W26890   6.126   7.438  12.136
22823W        W26891   5.257  10.869  12.639
22824W        W26892   6.471  10.331  13.576
22825W        W26893   6.055  10.480  12.687
22826W        W26894   6.074   9.460  12.281
22827W        W26895   5.536   7.685  11.352
22828W        W26896   7.217   7.313  12.074
22829W        W26897   4.905   8.948  11.237
22830W        W26898   7.071   8.285  12.227
22831W        W26899   5.763   9.455  11.104
22832W        W26900   6.699   9.655  13.852
22833W        W26901   6.353  10.356  11.319
22834W        W26902   4.968   8.031  14.225
22835W        W26903   4.788   8.615  13.466
22836W        W26904   6.880  10.110  13.743
22837W        W26905   5.980   8.060  14.120
22838W        W26906   3.824   8.531  13.897
22839W        W26907   5.584   9.008  13.623
22840W        W26908   3.941   9.766  12.280
22841W        W26909   4.088   9.063  13.170
22842W        W26910   6.405   9.349  13.520
22843W        W26911   6.177  10.729  14.331
22844W        W26912   6.073   8.468  13.884
22845W        W26913   6.350  10.522  12.289
22846W        W26914   5.352  10.242  13.612
22847W        W26915   4.837  10.597  12.881
22848W        W26916   6.642   9.768  13.300
22849W        W26917   5.692   9.840  14.437
22850W        W26918   4.297   9.793  12.776
22851W        W26919   6.643   9.552  12.421
22852W        W26920   6.284  10.618  13.172
22853W        W26921   4.262  10.347  13.042
22854W        W26922   5.283   8.399  14.252
22855W        W26923   5.734  10.565  11.763
22856W        W26924   5.042   9.820  14.401
22857W        W26925   5.168  10.058  11.778
22858W        W26926   4.389   8.798  11.037
22859W        W26927   3.728  10.884  17.936
22860W        W26928   4.104   9.777  17.459
22861W        W26929   6.809   9.507  15.229
22862W        W26930   6.939  10.592  17.256
22863W        W26931   4.857  10.583  14.782
22864W        W26932   4.940   8.735  15.765
22865W        W26933   4.455   8.583  15.929
22866W        W26934   5.446   9.398  15.363
22867W        W26935   5.121  10.490  17.718
22868W        W26936   3.770   8.051  17.681
22869W        W26937   4.532   7.331  17.483
22870W        W26938   6.226   7.719  16.370
22871W        W26939   5.875   8.590  14.940
22872W        W26940   6.445   8.024  18.031
22873W        W26941   3.811   7.816  17.156
22874W        W26942   3.910  10.435  18.177
22875W        W26943   5.432   9.825  14.909
22876W        W26944   4.757   8.499  17.839
22877W        W26945   7.216   8.358  16.338
22878W        W26946   6.980   9.401  17.197
22879W        W26947   5.288   8.734  16.224
22880W        W26948   5.834  10.073  16.593
22881W        W26949   4.334   9.507  16.825
22882W        W26950   3.693   9.035  16.396
22883W        W26951   4.729   9.007  17.588
22884W        W26952   7.000   8.790  17.842
22885W        W26953   4.616  10.234  16.287
22886W        W26954   5.737   9.923  17.421
22887W        W26955   4.957   8.563  16.646
22888W        W26956   5.249   9.347  16.289
22889W        W26957   6.246  10.120  18.137
22890W        W26958   5.325   9.440  18.147
22891W        W26959   5.306   9.156  17.625
22892W        W26960   3.715   8.547  18.147
22893W        W26961   6.547  10.082  17.746
22894W        W26962   4.128   7.664  15.744
22895W        W26963   4.655   9.922  16.743
22896W        W26964   7.118   9.705  16.033
22897W        W26965   6.531   8.105  16.600
22898W        W26966   6.816   8.058  14.695
22899W        W26967   7.281   8.859  17.001
22900W        W26968   7.022  10.032  15.192
22901W        W26969   4.151  10.818  14.946
22902W        W26970   4.544  10.864  15.622
22903W        W26971   4.341   7.618  17.048
22904W        W26972   6.964   8.636  17.323
22905W        W26973   6.369   9.058  15.782
22906W        W26974   6.335   8.746  14.809
22907W        W26975   5.543   9.890  16.949
22908W        W26976   5.349   8.220  16.148
22909W        W26977   5.949  10.307  17.142
22910W        W26978   6.820   9.098  15.564
22911W        W26979   5.722   7.756  15.580
22912W        W26980   4.379  10.450  15.263
22913W        W26981   3.750   7.949  15.862
22914W        W26982   6.536   8.556  16.336
22915W        W26983   3.994  10.173  16.251
22916W        W26984   5.335  10.523  15.121
22917W        W26985   6.727   8.549  14.585
22918W        W26986   3.750  10.307  16.749
22919W        W26987   4.541   9.879  17.229
22920W        W26988   4.914   9.239  15.848
22921W        W26989   4.936   7.644  16.941
22922W        W26990   7.165   7.406  16.238
22923W        W26991   4.384   9.278  14.706
22924W        W26992   4.039   8.311  14.885
22925W        W26993   4.101  10.267  15.679
22926W        W26994   5.232   9.750  15.927
22927W        W26995   6.564  10.609  17.641
22928W        W26996   5.490   8.251  15.325
22929W        W26997   6.873  10.649  16.097
22930W        W26998   6.550   8.502  17.695
22931W        W26999   7.263  10.158  15.829
22932W        W27000   5.890   9.450  17.313
22933W        W27001   3.656   9.001  15.519
22934W        W27002   4.767   9.416  17.092
22935W        W27003   5.971   8.680  15.470
22936W        W27004   5.848   9.170  15.574
22937W        W27005   4.191   8.590  17.048
22938W        W27006   4.176   8.466  17.970
22939W        W27007   4.066   7.383  16.129
22940W        W27008   5.834   7.730  16.690
22941W        W27009   5.482   7.915  17.853
22942W        W27010   5.837   8.064  15.031
22943W        W27011   7.020  10.457  17.785
22944W        W27012   5.987   7.538  17.824
22945W        W27013   7.006   9.839  17.946
22946W        W27014   6.436   8.006  17.542
22947W        W27015   6.236   7.944  15.812
22948W        W27016   6.629   9.078  18.216
22949W        W27017   4.369  10.654  16.202
22950W        W27018   5.027   8.371  15.188
22951W        W27019   4.596   7.655  17.852
22952W        W27020   6.648   8.139  15.533
22953W        W27021   7.015   8.621  15.478
22954W        W27022   4.758  10.838  17.949
22955W        W27023   4.684   7.374  15.184
22956W        W27024   7.005   7.908  16.219
22957W        W27025   7.155  10.157  14.664
22958W        W27026   4.062   9.360  16.366
22959W        W27027   5.979   7.947  14.596
22960W        W27028   7.113  10.279  16.316
22961W        W27029   7.152   7.473  17.066
22962W        W27030   5.690  10.024  15.323
22963W        W27031   6.090   9.318  18.063
22964W        W27032   5.764   7.295  16.372
22965W        W27033   4.376   8.198  16.435
22966W        W27034   3.930   9.398  17.209
22967W        W27035   5.789  10.591  15.915
22968W        W27036   6.983   8.188  16.787
22969W        W27037   5.620  10.535  17.554
22970W        W27038   6.963   9.594  14.759
22971W        W27039   5.398   9.077  15.820
22972W        W27040   7.250   7.588  17.561
22973W        W27041   5.399   9.423  17.155
22974W        W27042   5.616   8.309  16.600
22975W        W27043   6.468   8.607  15.438
22976W        W27044   6.755   8.340  15.080
22977W        W27045   6.564  10.380  15.469
22978W        W27046   6.398   9.983  16.265
22979W        W27047   6.294   9.062  15.243
22980W        W27048   5.727   9.272  16.229
22981W        W27049   6.608   9.060  16.296
22982W        W27050   3.983   8.075  16.720
22983W        W27051   6.761   9.127  17.547
22984W        W27052   7.112  10.745  16.693
22985W        W27053   5.042  10.189  16.095
22986W        W27054   6.049  10.722  17.419
22987W        W27055   6.043   8.052  17.183
22988W        W27056   5.250  10.760  17.244
22989W        W27057   6.947   7.714  15.710
22990W        W27058   6.738   9.033  17.011
22991W        W27059   3.721   8.354  17.049
22992W        W27060   6.581   8.149  16.067
22993W        W27061   6.992   8.300  17.844
22994W        W27062   5.877   9.999  16.062
22995W        W27063   5.133  10.590  15.675
22996W        W27064   4.248   7.770  14.933
22997W        W27065   5.352   7.424  16.743
22998W        W27066   4.380  10.544  14.591
22999W        W27067   4.754   9.010  15.342
23000W        W27068   5.408   9.639  17.655
23001W        W27069   5.238   7.997  15.645
23002W        W27070   6.594   7.594  16.073
23003W        W27071   6.314  10.876  16.401
23004W        W27072   5.726  10.524  16.741
23005W        W27073   5.122   9.561  16.702
23006W        W27074   6.892  10.284  16.828
23007W        W27075   4.586   7.787  15.597
23008W        W27076   4.591   8.015  14.622
23009W        W27077   5.392   8.624  17.016
23010W        W27078   6.240   7.490  16.886
23011W        W27079   3.660   9.333  16.771
23012W        W27080   5.364   9.151  14.929
23013W        W27081   4.632   7.466  14.699
23014W        W27082   5.370   8.547  15.750
23015W        W27083   6.340   7.523  17.449
23016W        W27084   4.928   9.535  17.558
23017W        W27085   5.732   9.317  17.775
23018W        W27086   6.349   9.347  17.668
23019W        W27087   5.633   7.487  18.173
23020W        W27088   4.855   8.103  16.566
23021W        W27089   4.281   8.059  15.964
23022W        W27090   4.067  10.771  15.640
23023W        W27091   4.434   9.586  15.124
23024W        W27092   6.114   8.971  16.345
23025W        W27093   6.394   8.770  16.744
23026W        W27094   5.599   9.444  16.678
23027W        W27095   6.069   9.818  14.810
23028W        W27096   5.741   7.839  16.138
23029W        W27097   7.220   8.117  15.406
23030W        W27098   3.714  10.706  17.437
23031W        W27099   4.131   9.932  16.969
23032W        W27100   3.698  10.778  15.201
23033W        W27101   5.597   8.048  17.007
23034W        W27102   4.960  10.071  14.856
23035W        W27103   6.865  10.453  15.042
23036W        W27104   5.840   9.106  15.056
23037W        W27105   4.683   8.297  15.573
23038W        W27106   5.515   8.207  14.625
23039W        W27107   6.099   9.772  17.803
23040W        W27108   6.452   7.678  15.420
23041W        W27109   3.782   7.526  14.868
23042W        W27110   5.068   9.845  17.158
23043W        W27111   4.867   9.761  16.250
23044W        W27112   4.609   9.713  14.648
23045W        W27113   3.850   9.954  15.416
23046W        W27114   4.354   9.024  17.858
23047W        W27115   5.058   7.584  18.044
23048W        W27116   5.767   7.726  17.400
23049W        W27117   4.962   7.494  15.681
23050W        W27118   6.021   7.571  15.186
23051W        W27119   3.966   7.503  16.763
23052W        W27120   6.703   7.574  16.539
23053W        W27121   4.125   8.072  15.353
23054W        W27122   6.696   7.760  16.969
23055W        W27123   7.092   8.963  14.654
23056W        W27124   4.384   7.721  16.473
23057W        W27125   3.646   7.983  14.891
23058W        W27126   4.432   9.372  17.452
23059W        W27127   5.790   8.770  16.631
23060W        W27128   5.657  10.849  14.927
23061W        W27129   3.803   9.356  14.624
23062W        W27130   4.538   9.767  17.750
23063W        W27131   4.059   8.934  17.381
23064W        W27132   5.050   9.039  17.175
23065W        W27133   6.818   7.398  17.437
23066W        W27134   7.216   9.008  17.428
23067W        W27135   7.204   9.208  15.114
23068W        W27136   6.067   9.540  15.213
23069W        W27137   6.541  10.840  14.908
23070W        W27138   5.718   8.830  18.050
23071W        W27139   4.048   9.797  18.090
23072W        W27140   7.254   7.719  18.042
23073W        W27141   6.972   8.647  16.663
23074W        W27142   5.135   7.406  14.867
23075W        W27143   6.674  10.005  14.810
23076W        W27144   4.443   8.098  17.696
23077W        W27145   4.877  10.092  17.558
23078W        W27146   7.003   8.083  17.356
23079W        W27147   6.214  10.742  15.324
23080W        W27148   6.453   9.361  16.691
23081W        W27149   4.703   7.777  17.358
23082W        W27150   5.172   8.846  18.115
23083W        W27151   4.675  10.025  15.309
23084W        W27152   6.430   9.523  15.573
23085W        W27153   4.198   8.149  17.297
23086W        W27154   5.527  10.211  15.761
23087W        W27155   7.277   8.771  15.942
23088W        W27156   5.499   7.404  17.661
23089W        W27157   6.279  10.109  16.740
23090W        W27158   6.582  10.453  16.448
23091W        W27159   5.801  10.255  14.876
23092W        W27160   3.811  10.147  17.718
23093W        W27161   4.554   8.139  16.956
23094W        W27162   4.524   7.487  16.066
23095W        W27163   6.145   8.329  16.758
23096W        W27164   4.943   9.500  14.958
23097W        W27165   6.941   9.442  16.457
23098W        W27166   4.268  10.200  17.880
23099W        W27167   6.655  10.882  15.677
23100W        W27168   4.754   7.902  16.122
23101W        W27169   4.523   9.395  16.212
23102W        W27170   4.836  10.806  16.962
23103W        W27171   6.903  10.902  17.994
23104W        W27172   6.062   9.090  16.927
23105W        W27173   3.911   8.888  14.842
23106W        W27174   7.045  10.546  15.539
23107W        W27175   6.882   7.870  15.158
23108W        W27176   5.021   7.389  17.561
23109W        W27177   6.727  10.191  16.019
23110W        W27178   6.756   8.747  15.924
23111W        W27179   4.873   8.420  16.140
23112W        W27180   5.118   8.682  17.464
23113W        W27181   6.229   9.835  17.327
23114W        W27182   4.879   8.289  17.439
23115W        W27183   4.858  10.755  16.055
23116W        W27184   4.175  10.714  17.689
23117W        W27185   4.287  10.075  14.819
23118W        W27186   6.804   9.833  15.629
23119W        W27187   4.408   8.625  17.515
23120W        W27188   7.181   8.555  14.996
23121W        W27189   4.926   9.612  15.467
23122W        W27190   6.025   8.994  17.548
23123W        W27191   5.916   8.622  17.092
23124W        W27192   4.476   8.994  17.121
23125W        W27193   6.686  10.882  16.950
23126W        W27194   6.477   7.516  17.944
23127W        W27195   4.141   7.666  17.531
23128W        W27196   4.480   8.689  16.584
23129W        W27197   4.849   8.503  14.706
23130W        W27198   3.652  10.262  17.251
23131W        W27199   5.237   8.971  16.694
23132W        W27200   5.060   7.996  14.799
23133W        W27201   4.195   8.812  15.580
23134W        W27202   6.761   8.890  15.125
23135W        W27203   6.856   7.806  17.811
23136W        W27204   6.292  10.015  15.774
23137W        W27205   3.890   8.939  17.951
23138W        W27206   6.856   7.403  15.247
23139W        W27207   6.376   9.878  15.258
23140W        W27208   5.278   8.936  15.343
23141W        W27209   6.465   7.740  14.866
23142W        W27210   6.530   8.347  17.052
23143W        W27211   4.239   8.940  16.259
23144W        W27212   4.533   9.879  15.908
23145W        W27213   6.296   8.499  15.873
23146W        W27214   5.319   7.878  16.569
23147W        W27215   7.281   9.789  17.080
23148W        W27216   7.199   7.776  16.641
23149W        W27217   3.738  10.606  16.017
23150W        W27218   4.247   9.793  15.553
23151W        W27219   4.162   7.410  18.106
23152W        W27220   7.036   9.231  15.998
23153W        W27221   6.390   9.408  14.878
23154W        W27222   5.685  10.929  17.090
23155W        W27223   6.542   9.651  18.127
23156W        W27224   5.357   7.361  15.407
23157W        W27225   6.070   8.230  16.266
23158W        W27226   3.756   9.817  16.598
23159W        W27227   5.009   7.779  15.239
23160W        W27228   4.813   9.263  18.088
23161W        W27229   5.807   8.244  15.802
23162W        W27230   6.012   9.654  16.924
23163W        W27231   4.166  10.259  17.359
23164W        W27232   4.757  10.242  18.082
23165W        W27233   4.608   8.039  15.096
23166W        W27234   6.125   8.181  15.421
23167W        W27235   6.083  10.289  17.658
23168W        W27236   4.768   8.881  16.257
23169W        W27237   4.423  10.579  17.122
23170W        W27238   7.168  10.696  14.723
23171W        W27239   4.031   9.368  17.719
23172W        W27240   6.026   9.630  16.407
23173W        W27241   4.462   9.279  15.649
23174W        W27242   5.211   7.705  16.085
23175W        W27243   3.822   9.689  15.015
23176W        W27244   5.341   8.640  14.885
23177W        W27245   3.987   9.189  15.904
23178W        W27246   5.277   7.831  17.368
23179W        W27247   6.949   7.540  14.795
23180W        W27248   7.042   9.286  17.894
23181W        W27249   5.696  10.543  18.046
23182W        W27250   7.254   9.637  17.568
23183W        W27251   6.662  10.435  18.179
23184W        W27252   4.401  10.891  16.657
23185W        W27253   7.260   9.513  15.531
23186W        W27254   5.790   8.780  16.044
23187W        W27255   5.557   7.392  15.934
23188W        W27256   4.616  10.376  15.771
23189W        W27257   5.115   8.117  16.996
23190W        W27258   4.815   7.486  16.465
23191W        W27259   3.878  10.308  15.013
23192W        W27260   5.694   9.672  15.731
23193W        W27261   4.569  10.467  17.610
23194W        W27262   4.046   9.290  15.306
23195W        W27263   3.931   7.833  16.305
23196W        W27264   5.479   9.798  16.362
23197W        W27265   3.731   7.652  15.382
23198W        W27266   6.395   8.858  17.309
23199W        W27267   6.272   8.244  14.881
23200W        W27268   6.789   9.916  16.529
23201W        W27269   5.450  10.400  16.360
23202W        W27270   4.862  10.504  15.271
23203W        W27271   6.144   7.407  14.701
23204W        W27272   6.141   8.425  18.077
23205W        W27273   4.124   7.955  18.076
23206W        W27274   3.855   8.555  15.409
23207W        W27275   4.546   8.544  15.134
23208W        W27276   6.309   8.871  17.951
23209W        W27277   4.652   9.152  16.660
23210W        W27278   6.126   7.438  15.780
23211W        W27279   5.257  10.869  16.283
23212W        W27280   6.471  10.331  17.220
23213W        W27281   6.055  10.480  16.331
23214W        W27282   6.074   9.460  15.925
23215W        W27283   5.536   7.685  14.996
23216W        W27284   7.217   7.313  15.718
23217W        W27285   4.905   8.948  14.881
23218W        W27286   7.071   8.285  15.871
23219W        W27287   5.763   9.455  14.748
23220W        W27288   6.699   9.655  17.496
23221W        W27289   6.353  10.356  14.963
23222W        W27290   4.968   8.031  17.869
23223W        W27291   4.788   8.615  17.110
23224W        W27292   6.880  10.110  17.387
23225W        W27293   5.980   8.060  17.764
23226W        W27294   3.824   8.531  17.541
23227W        W27295   5.584   9.008  17.267
23228W        W27296   3.941   9.766  15.924
23229W        W27297   4.088   9.063  16.814
23230W        W27298   6.405   9.349  17.164
23231W        W27299   6.177  10.729  17.975
23232W        W27300   6.073   8.468  17.528
23233W        W27301   6.350  10.522  15.933
23234W        W27302   4.837  10.597  16.525
23235W        W27303   6.642   9.768  16.944
23236W        W27304   5.692   9.840  18.081
23237W        W27305   4.297   9.793  16.420
23238W        W27306   6.643   9.552  16.065
23239W        W27307   6.284  10.618  16.816
23240W        W27308   4.262  10.347  16.686
23241W        W27309   5.283   8.399  17.896
23242W        W27310   5.734  10.565  15.407
23243W        W27311   5.042   9.820  18.045
23244W        W27312   5.168  10.058  15.422
23245W        W27313   4.389   8.798  14.681
23246W        W27314   3.728  10.884  21.580
23247W        W27315   4.104   9.777  21.103
23248W        W27316   6.809   9.507  18.873
23249W        W27317   6.939  10.592  20.900
23250W        W27318   4.857  10.583  18.426
23251W        W27319   4.940   8.735  19.409
23252W        W27320   4.455   8.583  19.573
23253W        W27321   5.446   9.398  19.007
23254W        W27322   5.121  10.490  21.362
23255W        W27323   3.770   8.051  21.325
23256W        W27324   4.532   7.331  21.127
23257W        W27325   6.226   7.719  20.014
23258W        W27326   5.875   8.590  18.584
23259W        W27327   6.445   8.024  21.675
23260W        W27328   3.811   7.816  20.800
23261W        W27329   3.910  10.435  21.821
23262W        W27330   5.432   9.825  18.553
23263W        W27331   3.864   8.608  20.246
23264W        W27332   4.757   8.499  21.483
23265W        W27333   7.216   8.358  19.982
23266W        W27334   6.980   9.401  20.841
23267W        W27335   5.288   8.734  19.868
23268W        W27336   5.834  10.073  20.237
23269W        W27337   4.334   9.507  20.469
23270W        W27338   3.693   9.035  20.040
23271W        W27339   4.729   9.007  21.232
23272W        W27340   7.000   8.790  21.486
23273W        W27341   4.616  10.234  19.931
23274W        W27342   5.737   9.923  21.065
23275W        W27343   4.957   8.563  20.290
23276W        W27344   5.249   9.347  19.933
23277W        W27345   6.246  10.120  21.781
23278W        W27346   5.325   9.440  21.791
23279W        W27347   5.306   9.156  21.269
23280W        W27348   3.715   8.547  21.791
23281W        W27349   6.547  10.082  21.390
23282W        W27350   4.128   7.664  19.388
23283W        W27351   4.655   9.922  20.387
23284W        W27352   7.118   9.705  19.677
23285W        W27353   6.531   8.105  20.244
23286W        W27354   6.816   8.058  18.339
23287W        W27355   7.281   8.859  20.645
23288W        W27356   5.248  10.566  20.398
23289W        W27357   7.022  10.032  18.836
23290W        W27358   4.151  10.818  18.590
23291W        W27359   4.544  10.864  19.266
23292W        W27360   4.341   7.618  20.692
23293W        W27361   6.964   8.636  20.967
23294W        W27362   6.369   9.058  19.426
23295W        W27363   6.335   8.746  18.453
23296W        W27364   5.543   9.890  20.593
23297W        W27365   5.349   8.220  19.792
23298W        W27366   5.949  10.307  20.786
23299W        W27367   6.820   9.098  19.208
23300W        W27368   5.722   7.756  19.224
23301W        W27369   4.379  10.450  18.907
23302W        W27370   3.750   7.949  19.506
23303W        W27371   6.536   8.556  19.980
23304W        W27372   3.994  10.173  19.895
23305W        W27373   5.335  10.523  18.765
23306W        W27374   6.727   8.549  18.229
23307W        W27375   3.750  10.307  20.393
23308W        W27376   4.541   9.879  20.873
23309W        W27377   4.914   9.239  19.492
23310W        W27378   4.936   7.644  20.585
23311W        W27379   7.165   7.406  19.882
23312W        W27380   4.384   9.278  18.350
23313W        W27381   4.039   8.311  18.529
23314W        W27382   4.101  10.267  19.323
23315W        W27383   5.232   9.750  19.571
23316W        W27384   6.564  10.609  21.285
23317W        W27385   5.490   8.251  18.969
23318W        W27386   6.873  10.649  19.741
23319W        W27387   6.550   8.502  21.339
23320W        W27388   7.263  10.158  19.473
23321W        W27389   5.890   9.450  20.957
23322W        W27390   3.656   9.001  19.163
23323W        W27391   4.767   9.416  20.736
23324W        W27392   5.971   8.680  19.114
23325W        W27393   5.848   9.170  19.218
23326W        W27394   4.191   8.590  20.692
23327W        W27395   4.176   8.466  21.614
23328W        W27396   4.066   7.383  19.773
23329W        W27397   5.834   7.730  20.334
23330W        W27398   5.482   7.915  21.497
23331W        W27399   5.837   8.064  18.675
23332W        W27400   7.020  10.457  21.429
23333W        W27401   5.987   7.538  21.468
23334W        W27402   7.006   9.839  21.590
23335W        W27403   6.436   8.006  21.186
23336W        W27404   6.236   7.944  19.456
23337W        W27405   6.629   9.078  21.860
23338W        W27406   4.369  10.654  19.846
23339W        W27407   5.027   8.371  18.832
23340W        W27408   4.596   7.655  21.496
23341W        W27409   6.648   8.139  19.177
23342W        W27410   7.015   8.621  19.122
23343W        W27411   4.758  10.838  21.593
23344W        W27412   4.684   7.374  18.828
23345W        W27413   7.005   7.908  19.863
23346W        W27414   7.155  10.157  18.308
23347W        W27415   4.062   9.360  20.010
23348W        W27416   5.979   7.947  18.240
23349W        W27417   7.113  10.279  19.960
23350W        W27418   7.152   7.473  20.710
23351W        W27419   5.597   8.685  21.264
23352W        W27420   5.690  10.024  18.967
23353W        W27421   6.090   9.318  21.707
23354W        W27422   5.764   7.295  20.016
23355W        W27423   4.376   8.198  20.079
23356W        W27424   3.930   9.398  20.853
23357W        W27425   5.789  10.591  19.559
23358W        W27426   6.983   8.188  20.431
23359W        W27427   5.620  10.535  21.198
23360W        W27428   6.963   9.594  18.403
23361W        W27429   5.398   9.077  19.464
23362W        W27430   7.250   7.588  21.205
23363W        W27431   5.399   9.423  20.799
23364W        W27432   5.616   8.309  20.244
23365W        W27433   6.468   8.607  19.082
23366W        W27434   6.755   8.340  18.724
23367W        W27435   6.564  10.380  19.113
23368W        W27436   6.398   9.983  19.909
23369W        W27437   6.294   9.062  18.887
23370W        W27438   5.727   9.272  19.873
23371W        W27439   6.608   9.060  19.940
23372W        W27440   3.983   8.075  20.364
23373W        W27441   6.761   9.127  21.191
23374W        W27442   7.112  10.745  20.337
23375W        W27443   5.042  10.189  19.739
23376W        W27444   6.049  10.722  21.063
23377W        W27445   6.043   8.052  20.827
23378W        W27446   5.250  10.760  20.888
23379W        W27447   6.947   7.714  19.354
23380W        W27448   6.738   9.033  20.655
23381W        W27449   3.721   8.354  20.693
23382W        W27450   6.581   8.149  19.711
23383W        W27451   6.992   8.300  21.488
23384W        W27452   5.877   9.999  19.706
23385W        W27453   5.133  10.590  19.319
23386W        W27454   4.248   7.770  18.577
23387W        W27455   5.352   7.424  20.387
23388W        W27456   4.380  10.544  18.235
23389W        W27457   4.754   9.010  18.986
23390W        W27458   5.408   9.639  21.299
23391W        W27459   5.238   7.997  19.289
23392W        W27460   6.594   7.594  19.717
23393W        W27461   6.314  10.876  20.045
23394W        W27462   5.726  10.524  20.385
23395W        W27463   5.122   9.561  20.346
23396W        W27464   6.892  10.284  20.472
23397W        W27465   4.586   7.787  19.241
23398W        W27466   5.108  10.084  20.201
23399W        W27467   4.591   8.015  18.266
23400W        W27468   5.392   8.624  20.660
23401W        W27469   6.240   7.490  20.530
23402W        W27470   3.660   9.333  20.415
23403W        W27471   5.364   9.151  18.573
23404W        W27472   4.632   7.466  18.343
23405W        W27473   5.370   8.547  19.394
23406W        W27474   6.340   7.523  21.093
23407W        W27475   4.928   9.535  21.202
23408W        W27476   5.732   9.317  21.419
23409W        W27477   6.349   9.347  21.312
23410W        W27478   5.633   7.487  21.817
23411W        W27479   4.855   8.103  20.210
23412W        W27480   4.281   8.059  19.608
23413W        W27481   4.067  10.771  19.284
23414W        W27482   5.399  10.101  21.409
23415W        W27483   4.434   9.586  18.768
23416W        W27484   6.114   8.971  19.989
23417W        W27485   6.394   8.770  20.388
23418W        W27486   5.599   9.444  20.322
23419W        W27487   6.069   9.818  18.454
23420W        W27488   5.741   7.839  19.782
23421W        W27489   7.220   8.117  19.050
23422W        W27490   3.714  10.706  21.081
23423W        W27491   4.131   9.932  20.613
23424W        W27492   3.698  10.778  18.845
23425W        W27493   5.597   8.048  20.651
23426W        W27494   4.960  10.071  18.500
23427W        W27495   6.865  10.453  18.686
23428W        W27496   5.840   9.106  18.700
23429W        W27497   4.683   8.297  19.217
23430W        W27498   5.515   8.207  18.269
23431W        W27499   6.099   9.772  21.447
23432W        W27500   6.452   7.678  19.064
23433W        W27501   3.782   7.526  18.512
23434W        W27502   5.068   9.845  20.802
23435W        W27503   4.867   9.761  19.894
23436W        W27504   4.609   9.713  18.292
23437W        W27505   3.850   9.954  19.060
23438W        W27506   4.354   9.024  21.502
23439W        W27507   5.058   7.584  21.688
23440W        W27508   5.767   7.726  21.044
23441W        W27509   4.962   7.494  19.325
23442W        W27510   6.021   7.571  18.830
23443W        W27511   3.966   7.503  20.407
23444W        W27512   4.014   8.466  19.777
23445W        W27513   6.703   7.574  20.183
23446W        W27514   4.125   8.072  18.997
23447W        W27515   6.696   7.760  20.613
23448W        W27516   7.092   8.963  18.298
23449W        W27517   4.384   7.721  20.117
23450W        W27518   5.498   8.293  21.057
23451W        W27519   3.646   7.983  18.535
23452W        W27520   4.432   9.372  21.096
23453W        W27521   5.790   8.770  20.275
23454W        W27522   5.657  10.849  18.571
23455W        W27523   3.803   9.356  18.268
23456W        W27524   4.538   9.767  21.394
23457W        W27525   4.059   8.934  21.025
23458W        W27526   5.050   9.039  20.819
23459W        W27527   6.818   7.398  21.081
23460W        W27528   7.216   9.008  21.072
23461W        W27529   7.204   9.208  18.758
23462W        W27530   6.067   9.540  18.857
23463W        W27531   6.541  10.840  18.552
23464W        W27532   5.718   8.830  21.694
23465W        W27533   4.048   9.797  21.734
23466W        W27534   7.254   7.719  21.686
23467W        W27535   6.972   8.647  20.307
23468W        W27536   5.280  10.777  21.784
23469W        W27537   5.135   7.406  18.511
23470W        W27538   6.674  10.005  18.454
23471W        W27539   4.443   8.098  21.340
23472W        W27540   4.877  10.092  21.202
23473W        W27541   7.003   8.083  21.000
23474W        W27542   6.214  10.742  18.968
23475W        W27543   6.453   9.361  20.335
23476W        W27544   4.703   7.777  21.002
23477W        W27545   5.172   8.846  21.759
23478W        W27546   4.675  10.025  18.953
23479W        W27547   6.430   9.523  19.217
23480W        W27548   4.198   8.149  20.941
23481W        W27549   5.527  10.211  19.405
23482W        W27550   5.499   7.404  21.305
23483W        W27551   6.279  10.109  20.384
23484W        W27552   6.582  10.453  20.092
23485W        W27553   5.801  10.255  18.520
23486W        W27554   3.811  10.147  21.362
23487W        W27555   4.554   8.139  20.600
23488W        W27556   4.524   7.487  19.710
23489W        W27557   6.145   8.329  20.402
23490W        W27558   4.943   9.500  18.602
23491W        W27559   6.941   9.442  20.101
23492W        W27560   4.268  10.200  21.524
23493W        W27561   6.655  10.882  19.321
23494W        W27562   4.754   7.902  19.766
23495W        W27563   4.523   9.395  19.856
23496W        W27564   4.836  10.806  20.606
23497W        W27565   6.903  10.902  21.638
23498W        W27566   6.062   9.090  20.571
23499W        W27567   3.911   8.888  18.486
23500W        W27568   7.045  10.546  19.183
23501W        W27569   6.882   7.870  18.802
23502W        W27570   5.021   7.389  21.205
23503W        W27571   6.727  10.191  19.663
23504W        W27572   6.756   8.747  19.568
23505W        W27573   4.873   8.420  19.784
23506W        W27574   5.118   8.682  21.108
23507W        W27575   6.229   9.835  20.971
23508W        W27576   4.879   8.289  21.083
23509W        W27577   4.858  10.755  19.699
23510W        W27578   4.175  10.714  21.333
23511W        W27579   4.287  10.075  18.463
23512W        W27580   6.804   9.833  19.273
23513W        W27581   4.408   8.625  21.159
23514W        W27582   7.181   8.555  18.640
23515W        W27583   4.926   9.612  19.111
23516W        W27584   6.025   8.994  21.192
23517W        W27585   5.916   8.622  20.736
23518W        W27586   4.476   8.994  20.765
23519W        W27587   6.686  10.882  20.594
23520W        W27588   6.477   7.516  21.588
23521W        W27589   4.141   7.666  21.175
23522W        W27590   4.480   8.689  20.228
23523W        W27591   4.849   8.503  18.350
23524W        W27592   3.652  10.262  20.895
23525W        W27593   5.237   8.971  20.338
23526W        W27594   5.060   7.996  18.443
23527W        W27595   4.195   8.812  19.224
23528W        W27596   3.966  10.664  20.661
23529W        W27597   6.761   8.890  18.769
23530W        W27598   6.856   7.806  21.455
23531W        W27599   6.292  10.015  19.418
23532W        W27600   3.890   8.939  21.595
23533W        W27601   6.856   7.403  18.891
23534W        W27602   6.376   9.878  18.902
23535W        W27603   5.278   8.936  18.987
23536W        W27604   6.465   7.740  18.510
23537W        W27605   6.530   8.347  20.696
23538W        W27606   4.239   8.940  19.903
23539W        W27607   4.533   9.879  19.552
23540W        W27608   6.296   8.499  19.517
23541W        W27609   5.319   7.878  20.213
23542W        W27610   7.281   9.789  20.724
23543W        W27611   7.199   7.776  20.285
23544W        W27612   3.738  10.606  19.661
23545W        W27613   4.247   9.793  19.197
23546W        W27614   4.162   7.410  21.750
23547W        W27615   5.281  10.263  21.852
23548W        W27616   7.036   9.231  19.642
23549W        W27617   6.390   9.408  18.522
23550W        W27618   5.685  10.929  20.734
23551W        W27619   6.542   9.651  21.771
23552W        W27620   5.357   7.361  19.051
23553W        W27621   6.070   8.230  19.910
23554W        W27622   3.756   9.817  20.242
23555W        W27623   5.009   7.779  18.883
23556W        W27624   4.813   9.263  21.732
23557W        W27625   5.807   8.244  19.446
23558W        W27626   6.012   9.654  20.568
23559W        W27627   4.166  10.259  21.003
23560W        W27628   4.757  10.242  21.726
23561W        W27629   4.608   8.039  18.740
23562W        W27630   6.125   8.181  19.065
23563W        W27631   6.083  10.289  21.302
23564W        W27632   4.768   8.881  19.901
23565W        W27633   4.423  10.579  20.766
23566W        W27634   7.168  10.696  18.367
23567W        W27635   4.031   9.368  21.363
23568W        W27636   6.026   9.630  20.051
23569W        W27637   4.462   9.279  19.293
23570W        W27638   4.833  10.286  20.688
23571W        W27639   5.211   7.705  19.729
23572W        W27640   3.822   9.689  18.659
23573W        W27641   5.341   8.640  18.529
23574W        W27642   3.987   9.189  19.548
23575W        W27643   5.277   7.831  21.012
23576W        W27644   6.949   7.540  18.439
23577W        W27645   7.042   9.286  21.538
23578W        W27646   5.696  10.543  21.690
23579W        W27647   7.254   9.637  21.212
23580W        W27648   6.662  10.435  21.823
23581W        W27649   4.401  10.891  20.301
23582W        W27650   7.260   9.513  19.175
23583W        W27651   5.790   8.780  19.688
23584W        W27652   5.557   7.392  19.578
23585W        W27653   4.616  10.376  19.415
23586W        W27654   5.115   8.117  20.640
23587W        W27655   4.815   7.486  20.109
23588W        W27656   3.878  10.308  18.657
23589W        W27657   5.694   9.672  19.375
23590W        W27658   4.569  10.467  21.254
23591W        W27659   4.046   9.290  18.950
23592W        W27660   3.931   7.833  19.949
23593W        W27661   5.479   9.798  20.006
23594W        W27662   3.731   7.652  19.026
23595W        W27663   6.395   8.858  20.953
23596W        W27664   6.272   8.244  18.525
23597W        W27665   6.789   9.916  20.173
23598W        W27666   5.450  10.400  20.004
23599W        W27667   4.862  10.504  18.915
23600W        W27668   6.144   7.407  18.345
23601W        W27669   3.944  10.667  20.086
23602W        W27670   6.141   8.425  21.721
23603W        W27671   4.124   7.955  21.720
23604W        W27672   3.855   8.555  19.053
23605W        W27673   4.546   8.544  18.778
23606W        W27674   6.309   8.871  21.595
23607W        W27675   4.652   9.152  20.304
23608W        W27676   6.126   7.438  19.424
23609W        W27677   5.257  10.869  19.927
23610W        W27678   6.471  10.331  20.864
23611W        W27679   6.055  10.480  19.975
23612W        W27680   6.074   9.460  19.569
23613W        W27681   5.536   7.685  18.640
23614W        W27682   7.217   7.313  19.362
23615W        W27683   4.905   8.948  18.525
23616W        W27684   7.071   8.285  19.515
23617W        W27685   5.763   9.455  18.392
23618W        W27686   6.699   9.655  21.140
23619W        W27687   6.353  10.356  18.607
23620W        W27688   4.968   8.031  21.513
23621W        W27689   4.788   8.615  20.754
23622W        W27690   6.880  10.110  21.031
23623W        W27691   5.980   8.060  21.408
23624W        W27692   3.824   8.531  21.185
23625W        W27693   5.584   9.008  20.911
23626W        W27694   3.941   9.766  19.568
23627W        W27695   4.088   9.063  20.458
23628W        W27696   6.405   9.349  20.808
23629W        W27697   6.177  10.729  21.619
23630W        W27698   6.073   8.468  21.172
23631W        W27699   6.350  10.522  19.577
23632W        W27700   5.352  10.242  20.900
23633W        W27701   4.837  10.597  20.169
23634W        W27702   6.642   9.768  20.588
23635W        W27703   5.692   9.840  21.725
23636W        W27704   4.297   9.793  20.064
23637W        W27705   6.643   9.552  19.709
23638W        W27706   6.284  10.618  20.460
23639W        W27707   4.262  10.347  20.330
23640W        W27708   5.283   8.399  21.540
23641W        W27709   5.042   9.820  21.689
23642W        W27710   5.168  10.058  19.066
23643W        W27711   4.389   8.798  18.325
23644W        W27712   6.809   9.507  22.518
23645W        W27713   4.857  10.583  22.071
23646W        W27714   4.940   8.735  23.054
23647W        W27715   4.455   8.583  23.218
23648W        W27716   5.446   9.398  22.652
23649W        W27717   5.875   8.590  22.229
23650W        W27718   5.432   9.825  22.198
23651W        W27719   4.128   7.664  23.033
23652W        W27720   6.816   8.058  21.984
23653W        W27721   7.022  10.032  22.481
23654W        W27722   4.151  10.818  22.235
23655W        W27723   4.544  10.864  22.911
23656W        W27724   6.369   9.058  23.071
23657W        W27725   6.335   8.746  22.098
23658W        W27726   6.820   9.098  22.853
23659W        W27727   5.722   7.756  22.869
23660W        W27728   4.379  10.450  22.552
23661W        W27729   5.335  10.523  22.410
23662W        W27730   6.727   8.549  21.874
23663W        W27731   4.914   9.239  23.137
23664W        W27732   4.384   9.278  21.995
23665W        W27733   4.039   8.311  22.174
23666W        W27734   4.101  10.267  22.968
23667W        W27735   5.232   9.750  23.216
23668W        W27736   5.490   8.251  22.614
23669W        W27737   3.656   9.001  22.808
23670W        W27738   5.971   8.680  22.759
23671W        W27739   5.848   9.170  22.863
23672W        W27740   5.837   8.064  22.320
23673W        W27741   6.236   7.944  23.101
23674W        W27742   5.027   8.371  22.477
23675W        W27743   6.648   8.139  22.822
23676W        W27744   7.015   8.621  22.767
23677W        W27745   4.684   7.374  22.473
23678W        W27746   7.155  10.157  21.953
23679W        W27747   5.979   7.947  21.885
23680W        W27748   5.690  10.024  22.612
23681W        W27749   5.789  10.591  23.204
23682W        W27750   6.963   9.594  22.048
23683W        W27751   5.398   9.077  23.109
23684W        W27752   6.468   8.607  22.727
23685W        W27753   6.755   8.340  22.369
23686W        W27754   6.564  10.380  22.758
23687W        W27755   6.294   9.062  22.532
23688W        W27756   6.947   7.714  22.999
23689W        W27757   5.133  10.590  22.964
23690W        W27758   4.248   7.770  22.222
23691W        W27759   4.380  10.544  21.880
23692W        W27760   4.754   9.010  22.631
23693W        W27761   5.238   7.997  22.934
23694W        W27762   4.586   7.787  22.886
23695W        W27763   4.591   8.015  21.911
23696W        W27764   5.364   9.151  22.218
23697W        W27765   4.632   7.466  21.988
23698W        W27766   5.370   8.547  23.039
23699W        W27767   4.281   8.059  23.253
23700W        W27768   4.067  10.771  22.929
23701W        W27769   4.434   9.586  22.413
23702W        W27770   6.069   9.818  22.099
23703W        W27771   7.220   8.117  22.695
23704W        W27772   3.698  10.778  22.490
23705W        W27773   4.960  10.071  22.145
23706W        W27774   6.865  10.453  22.331
23707W        W27775   5.840   9.106  22.345
23708W        W27776   4.683   8.297  22.862
23709W        W27777   5.515   8.207  21.914
23710W        W27778   6.452   7.678  22.709
23711W        W27779   3.782   7.526  22.157
23712W        W27780   4.609   9.713  21.937
23713W        W27781   3.850   9.954  22.705
23714W        W27782   4.962   7.494  22.970
23715W        W27783   6.021   7.571  22.475
23716W        W27784   4.125   8.072  22.642
23717W        W27785   7.092   8.963  21.943
23718W        W27786   3.646   7.983  22.180
23719W        W27787   5.657  10.849  22.216
23720W        W27788   3.803   9.356  21.913
23721W        W27789   7.204   9.208  22.403
23722W        W27790   6.067   9.540  22.502
23723W        W27791   6.541  10.840  22.197
23724W        W27792   5.135   7.406  22.156
23725W        W27793   6.674  10.005  22.099
23726W        W27794   6.214  10.742  22.613
23727W        W27795   4.675  10.025  22.598
23728W        W27796   6.430   9.523  22.862
23729W        W27797   5.527  10.211  23.050
23730W        W27798   7.277   8.771  23.231
23731W        W27799   5.801  10.255  22.165
23732W        W27800   4.943   9.500  22.247
23733W        W27801   6.655  10.882  22.966
23734W        W27802   3.911   8.888  22.131
23735W        W27803   7.045  10.546  22.828
23736W        W27804   6.882   7.870  22.447
23737W        W27805   6.756   8.747  23.213
23738W        W27806   4.287  10.075  22.108
23739W        W27807   6.804   9.833  22.918
23740W        W27808   7.181   8.555  22.285
23741W        W27809   4.926   9.612  22.756
23742W        W27810   4.849   8.503  21.995
23743W        W27811   5.060   7.996  22.088
23744W        W27812   4.195   8.812  22.869
23745W        W27813   6.761   8.890  22.414
23746W        W27814   6.292  10.015  23.063
23747W        W27815   6.856   7.403  22.536
23748W        W27816   6.376   9.878  22.547
23749W        W27817   5.278   8.936  22.632
23750W        W27818   6.465   7.740  22.155
23751W        W27819   4.533   9.879  23.197
23752W        W27820   6.296   8.499  23.162
23753W        W27821   3.738  10.606  23.306
23754W        W27822   4.247   9.793  22.842
23755W        W27823   7.036   9.231  23.287
23756W        W27824   6.390   9.408  22.167
23757W        W27825   5.357   7.361  22.696
23758W        W27826   5.009   7.779  22.528
23759W        W27827   5.807   8.244  23.091
23760W        W27828   4.608   8.039  22.385
23761W        W27829   6.125   8.181  22.710
23762W        W27830   7.168  10.696  22.012
23763W        W27831   3.822   9.689  22.304
23764W        W27832   5.341   8.640  22.174
23765W        W27833   3.987   9.189  23.193
23766W        W27834   6.949   7.540  22.084
23767W        W27835   7.260   9.513  22.820
23768W        W27836   5.557   7.392  23.223
23769W        W27837   4.616  10.376  23.060
23770W        W27838   3.878  10.308  22.302
23771W        W27839   5.694   9.672  23.020
23772W        W27840   4.046   9.290  22.595
23773W        W27841   3.731   7.652  22.671
23774W        W27842   6.272   8.244  22.170
23775W        W27843   4.862  10.504  22.560
23776W        W27844   6.144   7.407  21.990
23777W        W27845   3.855   8.555  22.698
23778W        W27846   4.546   8.544  22.423
23779W        W27847   6.074   9.460  23.214
23780W        W27848   5.536   7.685  22.285
23781W        W27849   7.217   7.313  23.007
23782W        W27850   4.905   8.948  22.170
23783W        W27851   7.071   8.285  23.160
23784W        W27852   5.763   9.455  22.037
23785W        W27853   6.353  10.356  22.252
23786W        W27854   3.941   9.766  23.213
23787W        W27855   6.350  10.522  23.222
23788W        W27856   5.734  10.565  22.696
23789W        W27857   5.168  10.058  22.711
23790W        W27858   4.389   8.798  21.970
23791W        W27859   3.728  14.528   3.359
23792W        W27860   4.104  13.421   2.882
23793W        W27861   6.809  13.151   0.652
23794W        W27862   6.939  14.236   2.679
23795W        W27863   4.857  14.227   0.205
23796W        W27864   4.940  12.379   1.188
23797W        W27865   4.455  12.227   1.352
23798W        W27866   5.446  13.042   0.786
23799W        W27867   5.121  14.134   3.141
23800W        W27868   3.770  11.695   3.104
23801W        W27869   4.532  10.975   2.906
23802W        W27870   6.226  11.363   1.793
23803W        W27871   5.875  12.234   0.363
23804W        W27872   6.445  11.668   3.454
23805W        W27873   3.811  11.460   2.579
23806W        W27874   3.910  14.079   3.600
23807W        W27875   5.432  13.469   0.332
23808W        W27876   3.864  12.252   2.025
23809W        W27877   4.757  12.143   3.262
23810W        W27878   7.216  12.002   1.761
23811W        W27879   6.980  13.045   2.620
23812W        W27880   5.288  12.378   1.647
23813W        W27881   5.834  13.717   2.016
23814W        W27882   4.334  13.151   2.248
23815W        W27883   3.693  12.679   1.819
23816W        W27884   4.729  12.651   3.011
23817W        W27885   7.000  12.434   3.265
23818W        W27886   4.616  13.878   1.710
23819W        W27887   5.737  13.567   2.844
23820W        W27888   4.957  12.207   2.069
23821W        W27889   5.249  12.991   1.712
23822W        W27890   6.246  13.764   3.560
23823W        W27891   5.325  13.084   3.570
23824W        W27892   5.306  12.800   3.048
23825W        W27893   3.715  12.191   3.570
23826W        W27894   6.547  13.726   3.169
23827W        W27895   4.128  11.308   1.167
23828W        W27896   4.655  13.566   2.166
23829W        W27897   7.118  13.349   1.456
23830W        W27898   6.531  11.749   2.023
23831W        W27899   6.816  11.702   0.118
23832W        W27900   7.281  12.503   2.424
23833W        W27901   5.248  14.210   2.177
23834W        W27902   7.022  13.676   0.615
23835W        W27903   4.151  14.462   0.369
23836W        W27904   4.544  14.508   1.045
23837W        W27905   4.341  11.262   2.471
23838W        W27906   6.964  12.280   2.746
23839W        W27907   6.369  12.702   1.205
23840W        W27908   6.335  12.390   0.232
23841W        W27909   5.543  13.534   2.372
23842W        W27910   5.349  11.864   1.571
23843W        W27911   5.949  13.951   2.565
23844W        W27912   6.820  12.742   0.987
23845W        W27913   5.722  11.400   1.003
23846W        W27914   4.379  14.094   0.686
23847W        W27915   3.750  11.593   1.285
23848W        W27916   6.536  12.200   1.759
23849W        W27917   3.994  13.817   1.674
23850W        W27918   5.335  14.167   0.544
23851W        W27919   6.727  12.193   0.008
23852W        W27920   3.750  13.951   2.172
23853W        W27921   4.541  13.523   2.652
23854W        W27922   4.914  12.883   1.271
23855W        W27923   4.936  11.288   2.364
23856W        W27924   7.165  11.050   1.661
23857W        W27925   4.384  12.922   0.129
23858W        W27926   4.039  11.955   0.308
23859W        W27927   4.101  13.911   1.102
23860W        W27928   5.232  13.394   1.350
23861W        W27929   6.564  14.253   3.064
23862W        W27930   5.490  11.895   0.748
23863W        W27931   6.873  14.293   1.520
23864W        W27932   6.550  12.146   3.118
23865W        W27933   7.263  13.802   1.252
23866W        W27934   5.890  13.094   2.736
23867W        W27935   3.656  12.645   0.942
23868W        W27936   4.767  13.060   2.515
23869W        W27937   5.971  12.324   0.893
23870W        W27938   5.848  12.814   0.997
23871W        W27939   4.191  12.234   2.471
23872W        W27940   4.176  12.110   3.393
23873W        W27941   4.066  11.027   1.552
23874W        W27942   5.834  11.374   2.113
23875W        W27943   5.482  11.559   3.276
23876W        W27944   5.837  11.708   0.454
23877W        W27945   7.020  14.101   3.208
23878W        W27946   5.987  11.182   3.247
23879W        W27947   7.006  13.483   3.369
23880W        W27948   6.436  11.650   2.965
23881W        W27949   6.236  11.588   1.235
23882W        W27950   6.629  12.722   3.639
23883W        W27951   4.369  14.298   1.625
23884W        W27952   5.027  12.015   0.611
23885W        W27953   4.596  11.299   3.275
23886W        W27954   6.648  11.783   0.956
23887W        W27955   7.015  12.265   0.901
23888W        W27956   4.758  14.482   3.372
23889W        W27957   4.684  11.018   0.607
23890W        W27958   7.005  11.552   1.642
23891W        W27959   7.155  13.801   0.087
23892W        W27960   4.062  13.004   1.789
23893W        W27961   5.979  11.591   0.019
23894W        W27962   7.113  13.923   1.739
23895W        W27963   7.152  11.117   2.489
23896W        W27964   5.597  12.329   3.043
23897W        W27965   5.690  13.668   0.746
23898W        W27966   6.090  12.962   3.486
23899W        W27967   5.764  10.939   1.795
23900W        W27968   4.376  11.842   1.858
23901W        W27969   3.930  13.042   2.632
23902W        W27970   5.789  14.235   1.338
23903W        W27971   6.983  11.832   2.210
23904W        W27972   5.620  14.179   2.977
23905W        W27973   6.963  13.238   0.182
23906W        W27974   5.398  12.721   1.243
23907W        W27975   7.250  11.232   2.984
23908W        W27976   5.399  13.067   2.578
23909W        W27977   5.616  11.953   2.023
23910W        W27978   6.468  12.251   0.861
23911W        W27979   6.755  11.984   0.503
23912W        W27980   6.564  14.024   0.892
23913W        W27981   6.398  13.627   1.688
23914W        W27982   6.294  12.706   0.666
23915W        W27983   5.727  12.916   1.652
23916W        W27984   6.608  12.704   1.719
23917W        W27985   3.983  11.719   2.143
23918W        W27986   6.761  12.771   2.970
23919W        W27987   7.112  14.389   2.116
23920W        W27988   5.042  13.833   1.518
23921W        W27989   6.049  14.366   2.842
23922W        W27990   6.043  11.696   2.606
23923W        W27991   5.250  14.404   2.667
23924W        W27992   6.947  11.358   1.133
23925W        W27993   6.738  12.677   2.434
23926W        W27994   3.721  11.998   2.472
23927W        W27995   6.581  11.793   1.490
23928W        W27996   6.992  11.944   3.267
23929W        W27997   5.877  13.643   1.485
23930W        W27998   5.133  14.234   1.098
23931W        W27999   4.248  11.414   0.356
23932W        W28000   5.352  11.068   2.166
23933W        W28001   4.380  14.188   0.014
23934W        W28002   4.754  12.654   0.765
23935W        W28003   5.408  13.283   3.078
23936W        W28004   5.238  11.641   1.068
23937W        W28005   6.594  11.238   1.496
23938W        W28006   6.314  14.520   1.824
23939W        W28007   5.726  14.168   2.164
23940W        W28008   5.122  13.205   2.125
23941W        W28009   6.892  13.928   2.251
23942W        W28010   4.586  11.431   1.020
23943W        W28011   5.108  13.728   1.980
23944W        W28012   4.591  11.659   0.045
23945W        W28013   5.392  12.268   2.439
23946W        W28014   6.240  11.134   2.309
23947W        W28015   3.660  12.977   2.194
23948W        W28016   5.364  12.795   0.352
23949W        W28017   4.632  11.110   0.122
23950W        W28018   5.370  12.191   1.173
23951W        W28019   6.340  11.167   2.872
23952W        W28020   4.928  13.179   2.981
23953W        W28021   5.732  12.961   3.198
23954W        W28022   6.349  12.991   3.091
23955W        W28023   5.633  11.131   3.596
23956W        W28024   4.855  11.747   1.989
23957W        W28025   4.281  11.703   1.387
23958W        W28026   4.067  14.415   1.063
23959W        W28027   5.399  13.745   3.188
23960W        W28028   4.434  13.230   0.547
23961W        W28029   6.114  12.615   1.768
23962W        W28030   6.394  12.414   2.167
23963W        W28031   5.599  13.088   2.101
23964W        W28032   6.069  13.462   0.233
23965W        W28033   5.741  11.483   1.561
23966W        W28034   7.220  11.761   0.829
23967W        W28035   3.714  14.350   2.860
23968W        W28036   4.131  13.576   2.392
23969W        W28037   3.698  14.422   0.624
23970W        W28038   5.597  11.692   2.430
23971W        W28039   4.960  13.715   0.279
23972W        W28040   6.865  14.097   0.465
23973W        W28041   5.840  12.750   0.479
23974W        W28042   4.683  11.941   0.996
23975W        W28043   5.515  11.851   0.048
23976W        W28044   6.099  13.416   3.226
23977W        W28045   6.452  11.322   0.843
23978W        W28046   3.782  11.170   0.291
23979W        W28047   5.068  13.489   2.581
23980W        W28048   4.867  13.405   1.673
23981W        W28049   4.609  13.357   0.071
23982W        W28050   3.850  13.598   0.839
23983W        W28051   4.354  12.668   3.281
23984W        W28052   5.058  11.228   3.467
23985W        W28053   5.767  11.370   2.823
23986W        W28054   4.962  11.138   1.104
23987W        W28055   6.021  11.215   0.609
23988W        W28056   3.966  11.147   2.186
23989W        W28057   4.014  12.110   1.556
23990W        W28058   6.703  11.218   1.962
23991W        W28059   4.125  11.716   0.776
23992W        W28060   6.696  11.404   2.392
23993W        W28061   7.092  12.607   0.077
23994W        W28062   4.384  11.365   1.896
23995W        W28063   5.498  11.937   2.836
23996W        W28064   3.646  11.627   0.314
23997W        W28065   4.432  13.016   2.875
23998W        W28066   5.790  12.414   2.054
23999W        W28067   5.657  14.493   0.350
24000W        W28068   3.803  13.000   0.047
24001W        W28069   4.538  13.411   3.173
24002W        W28070   4.059  12.578   2.804
24003W        W28071   5.050  12.683   2.598
24004W        W28072   6.818  11.042   2.860
24005W        W28073   7.216  12.652   2.851
24006W        W28074   7.204  12.852   0.537
24007W        W28075   6.067  13.184   0.636
24008W        W28076   6.541  14.484   0.331
24009W        W28077   5.718  12.474   3.473
24010W        W28078   4.048  13.441   3.513
24011W        W28079   7.254  11.363   3.465
24012W        W28080   6.972  12.291   2.086
24013W        W28081   5.280  14.421   3.563
24014W        W28082   5.135  11.050   0.290
24015W        W28083   6.674  13.649   0.233
24016W        W28084   4.443  11.742   3.119
24017W        W28085   4.877  13.736   2.981
24018W        W28086   7.003  11.727   2.779
24019W        W28087   6.214  14.386   0.747
24020W        W28088   6.453  13.005   2.114
24021W        W28089   4.703  11.421   2.781
24022W        W28090   5.172  12.490   3.538
24023W        W28091   4.675  13.669   0.732
24024W        W28092   6.430  13.167   0.996
24025W        W28093   4.198  11.793   2.720
24026W        W28094   5.527  13.855   1.184
24027W        W28095   7.277  12.415   1.365
24028W        W28096   5.499  11.048   3.084
24029W        W28097   6.279  13.753   2.163
24030W        W28098   6.582  14.097   1.871
24031W        W28099   5.801  13.899   0.299
24032W        W28100   3.811  13.791   3.141
24033W        W28101   4.554  11.783   2.379
24034W        W28102   4.524  11.131   1.489
24035W        W28103   6.145  11.973   2.181
24036W        W28104   4.943  13.144   0.381
24037W        W28105   6.941  13.086   1.880
24038W        W28106   4.268  13.844   3.303
24039W        W28107   6.655  14.526   1.100
24040W        W28108   4.754  11.546   1.545
24041W        W28109   4.523  13.039   1.635
24042W        W28110   4.836  14.450   2.385
24043W        W28111   6.903  14.546   3.417
24044W        W28112   6.062  12.734   2.350
24045W        W28113   3.911  12.532   0.265
24046W        W28114   7.045  14.190   0.962
24047W        W28115   6.882  11.514   0.581
24048W        W28116   5.021  11.033   2.984
24049W        W28117   6.727  13.835   1.442
24050W        W28118   6.756  12.391   1.347
24051W        W28119   4.873  12.064   1.563
24052W        W28120   5.118  12.326   2.887
24053W        W28121   6.229  13.479   2.750
24054W        W28122   4.879  11.933   2.862
24055W        W28123   4.858  14.399   1.478
24056W        W28124   4.175  14.358   3.112
24057W        W28125   4.287  13.719   0.242
24058W        W28126   6.804  13.477   1.052
24059W        W28127   4.408  12.269   2.938
24060W        W28128   7.181  12.199   0.419
24061W        W28129   4.926  13.256   0.890
24062W        W28130   6.025  12.638   2.971
24063W        W28131   5.916  12.266   2.515
24064W        W28132   4.476  12.638   2.544
24065W        W28133   6.686  14.526   2.373
24066W        W28134   6.477  11.160   3.367
24067W        W28135   4.141  11.310   2.954
24068W        W28136   4.480  12.333   2.007
24069W        W28137   4.849  12.147   0.129
24070W        W28138   3.652  13.906   2.674
24071W        W28139   5.237  12.615   2.117
24072W        W28140   5.060  11.640   0.222
24073W        W28141   4.195  12.456   1.003
24074W        W28142   3.966  14.308   2.440
24075W        W28143   6.761  12.534   0.548
24076W        W28144   6.856  11.450   3.234
24077W        W28145   6.292  13.659   1.197
24078W        W28146   3.890  12.583   3.374
24079W        W28147   6.856  11.047   0.670
24080W        W28148   6.376  13.522   0.681
24081W        W28149   5.278  12.580   0.766
24082W        W28150   6.465  11.384   0.289
24083W        W28151   6.530  11.991   2.475
24084W        W28152   4.239  12.584   1.682
24085W        W28153   4.533  13.523   1.331
24086W        W28154   6.296  12.143   1.296
24087W        W28155   5.319  11.522   1.992
24088W        W28156   7.281  13.433   2.503
24089W        W28157   7.199  11.420   2.064
24090W        W28158   3.738  14.250   1.440
24091W        W28159   4.247  13.437   0.976
24092W        W28160   4.162  11.054   3.529
24093W        W28161   5.281  13.907   3.631
24094W        W28162   7.036  12.875   1.421
24095W        W28163   6.390  13.052   0.301
24096W        W28164   5.685  14.573   2.513
24097W        W28165   6.542  13.295   3.550
24098W        W28166   5.357  11.005   0.830
24099W        W28167   6.070  11.874   1.689
24100W        W28168   3.756  13.461   2.021
24101W        W28169   5.009  11.423   0.662
24102W        W28170   4.813  12.907   3.511
24103W        W28171   5.807  11.888   1.225
24104W        W28172   6.012  13.298   2.347
24105W        W28173   4.166  13.903   2.782
24106W        W28174   4.757  13.886   3.505
24107W        W28175   4.608  11.683   0.519
24108W        W28176   6.125  11.825   0.844
24109W        W28177   6.083  13.933   3.081
24110W        W28178   4.768  12.525   1.680
24111W        W28179   4.423  14.223   2.545
24112W        W28180   7.168  14.340   0.146
24113W        W28181   4.031  13.012   3.142
24114W        W28182   6.026  13.274   1.830
24115W        W28183   4.462  12.923   1.072
24116W        W28184   4.833  13.930   2.467
24117W        W28185   5.211  11.349   1.508
24118W        W28186   3.822  13.333   0.438
24119W        W28187   5.341  12.284   0.308
24120W        W28188   3.987  12.833   1.327
24121W        W28189   5.277  11.475   2.791
24122W        W28190   6.949  11.184   0.218
24123W        W28191   7.042  12.930   3.317
24124W        W28192   5.696  14.187   3.469
24125W        W28193   7.254  13.281   2.991
24126W        W28194   6.662  14.079   3.602
24127W        W28195   4.401  14.535   2.080
24128W        W28196   7.260  13.157   0.954
24129W        W28197   5.790  12.424   1.467
24130W        W28198   5.557  11.036   1.357
24131W        W28199   4.616  14.020   1.194
24132W        W28200   5.115  11.761   2.419
24133W        W28201   4.815  11.130   1.888
24134W        W28202   3.878  13.952   0.436
24135W        W28203   5.694  13.316   1.154
24136W        W28204   4.569  14.111   3.033
24137W        W28205   4.046  12.934   0.729
24138W        W28206   3.931  11.477   1.728
24139W        W28207   5.479  13.442   1.785
24140W        W28208   3.731  11.296   0.805
24141W        W28209   6.395  12.502   2.732
24142W        W28210   6.272  11.888   0.304
24143W        W28211   6.789  13.560   1.952
24144W        W28212   5.450  14.044   1.783
24145W        W28213   4.862  14.148   0.694
24146W        W28214   6.144  11.051   0.124
24147W        W28215   3.944  14.311   1.865
24148W        W28216   6.141  12.069   3.500
24149W        W28217   4.124  11.599   3.499
24150W        W28218   3.855  12.199   0.832
24151W        W28219   4.546  12.188   0.557
24152W        W28220   6.309  12.515   3.374
24153W        W28221   4.652  12.796   2.083
24154W        W28222   6.126  11.082   1.203
24155W        W28223   5.257  14.513   1.706
24156W        W28224   6.471  13.975   2.643
24157W        W28225   6.055  14.124   1.754
24158W        W28226   6.074  13.104   1.348
24159W        W28227   5.536  11.329   0.419
24160W        W28228   7.217  10.957   1.141
24161W        W28229   4.905  12.592   0.304
24162W        W28230   7.071  11.929   1.294
24163W        W28231   5.763  13.099   0.171
24164W        W28232   6.699  13.299   2.919
24165W        W28233   6.353  14.000   0.386
24166W        W28234   4.968  11.675   3.292
24167W        W28235   4.788  12.259   2.533
24168W        W28236   6.880  13.754   2.810
24169W        W28237   5.980  11.704   3.187
24170W        W28238   3.824  12.175   2.964
24171W        W28239   5.584  12.652   2.690
24172W        W28240   3.941  13.410   1.347
24173W        W28241   4.088  12.707   2.237
24174W        W28242   6.405  12.993   2.587
24175W        W28243   6.177  14.373   3.398
24176W        W28244   6.073  12.112   2.951
24177W        W28245   6.350  14.166   1.356
24178W        W28246   5.352  13.886   2.679
24179W        W28247   4.837  14.241   1.948
24180W        W28248   6.642  13.412   2.367
24181W        W28249   5.692  13.484   3.504
24182W        W28250   4.297  13.437   1.843
24183W        W28251   6.643  13.196   1.488
24184W        W28252   6.284  14.262   2.239
24185W        W28253   4.262  13.991   2.109
24186W        W28254   5.283  12.043   3.319
24187W        W28255   5.734  14.209   0.830
24188W        W28256   5.042  13.464   3.468
24189W        W28257   5.168  13.702   0.845
24190W        W28258   4.389  12.442   0.104
24191W        W28259   3.728  14.528   7.003
24192W        W28260   4.104  13.421   6.526
24193W        W28261   6.809  13.151   4.296
24194W        W28262   6.939  14.236   6.323
24195W        W28263   4.857  14.227   3.849
24196W        W28264   4.940  12.379   4.832
24197W        W28265   4.455  12.227   4.996
24198W        W28266   5.446  13.042   4.430
24199W        W28267   5.121  14.134   6.785
24200W        W28268   3.770  11.695   6.748
24201W        W28269   4.532  10.975   6.550
24202W        W28270   6.226  11.363   5.437
24203W        W28271   5.875  12.234   4.007
24204W        W28272   6.445  11.668   7.098
24205W        W28273   3.811  11.460   6.223
24206W        W28274   3.910  14.079   7.244
24207W        W28275   5.432  13.469   3.976
24208W        W28276   3.864  12.252   5.669
24209W        W28277   4.757  12.143   6.906
24210W        W28278   7.216  12.002   5.405
24211W        W28279   6.980  13.045   6.264
24212W        W28280   5.288  12.378   5.291
24213W        W28281   5.834  13.717   5.660
24214W        W28282   4.334  13.151   5.892
24215W        W28283   3.693  12.679   5.463
24216W        W28284   4.729  12.651   6.655
24217W        W28285   7.000  12.434   6.909
24218W        W28286   4.616  13.878   5.354
24219W        W28287   5.737  13.567   6.488
24220W        W28288   4.957  12.207   5.713
24221W        W28289   5.249  12.991   5.356
24222W        W28290   6.246  13.764   7.204
24223W        W28291   5.325  13.084   7.214
24224W        W28292   5.306  12.800   6.692
24225W        W28293   3.715  12.191   7.214
24226W        W28294   6.547  13.726   6.813
24227W        W28295   4.128  11.308   4.811
24228W        W28296   4.655  13.566   5.810
24229W        W28297   7.118  13.349   5.100
24230W        W28298   6.531  11.749   5.667
24231W        W28299   6.816  11.702   3.762
24232W        W28300   7.281  12.503   6.068
24233W        W28301   5.248  14.210   5.821
24234W        W28302   7.022  13.676   4.259
24235W        W28303   4.151  14.462   4.013
24236W        W28304   4.544  14.508   4.689
24237W        W28305   4.341  11.262   6.115
24238W        W28306   6.964  12.280   6.390
24239W        W28307   6.369  12.702   4.849
24240W        W28308   6.335  12.390   3.876
24241W        W28309   5.543  13.534   6.016
24242W        W28310   5.349  11.864   5.215
24243W        W28311   5.949  13.951   6.209
24244W        W28312   6.820  12.742   4.631
24245W        W28313   5.722  11.400   4.647
24246W        W28314   4.379  14.094   4.330
24247W        W28315   3.750  11.593   4.929
24248W        W28316   6.536  12.200   5.403
24249W        W28317   3.994  13.817   5.318
24250W        W28318   5.335  14.167   4.188
24251W        W28319   6.727  12.193   3.652
24252W        W28320   3.750  13.951   5.816
24253W        W28321   4.541  13.523   6.296
24254W        W28322   4.914  12.883   4.915
24255W        W28323   4.936  11.288   6.008
24256W        W28324   7.165  11.050   5.305
24257W        W28325   4.384  12.922   3.773
24258W        W28326   4.039  11.955   3.952
24259W        W28327   4.101  13.911   4.746
24260W        W28328   5.232  13.394   4.994
24261W        W28329   6.564  14.253   6.708
24262W        W28330   5.490  11.895   4.392
24263W        W28331   6.873  14.293   5.164
24264W        W28332   6.550  12.146   6.762
24265W        W28333   7.263  13.802   4.896
24266W        W28334   5.890  13.094   6.380
24267W        W28335   3.656  12.645   4.586
24268W        W28336   4.767  13.060   6.159
24269W        W28337   5.971  12.324   4.537
24270W        W28338   5.848  12.814   4.641
24271W        W28339   4.191  12.234   6.115
24272W        W28340   4.176  12.110   7.037
24273W        W28341   4.066  11.027   5.196
24274W        W28342   5.834  11.374   5.757
24275W        W28343   5.482  11.559   6.920
24276W        W28344   5.837  11.708   4.098
24277W        W28345   7.020  14.101   6.852
24278W        W28346   5.987  11.182   6.891
24279W        W28347   7.006  13.483   7.013
24280W        W28348   6.436  11.650   6.609
24281W        W28349   6.236  11.588   4.879
24282W        W28350   6.629  12.722   7.283
24283W        W28351   4.369  14.298   5.269
24284W        W28352   5.027  12.015   4.255
24285W        W28353   4.596  11.299   6.919
24286W        W28354   6.648  11.783   4.600
24287W        W28355   7.015  12.265   4.545
24288W        W28356   4.758  14.482   7.016
24289W        W28357   4.684  11.018   4.251
24290W        W28358   7.005  11.552   5.286
24291W        W28359   7.155  13.801   3.731
24292W        W28360   4.062  13.004   5.433
24293W        W28361   5.979  11.591   3.663
24294W        W28362   7.113  13.923   5.383
24295W        W28363   7.152  11.117   6.133
24296W        W28364   5.597  12.329   6.687
24297W        W28365   5.690  13.668   4.390
24298W        W28366   6.090  12.962   7.130
24299W        W28367   5.764  10.939   5.439
24300W        W28368   4.376  11.842   5.502
24301W        W28369   3.930  13.042   6.276
24302W        W28370   5.789  14.235   4.982
24303W        W28371   6.983  11.832   5.854
24304W        W28372   5.620  14.179   6.621
24305W        W28373   6.963  13.238   3.826
24306W        W28374   5.398  12.721   4.887
24307W        W28375   7.250  11.232   6.628
24308W        W28376   5.399  13.067   6.222
24309W        W28377   5.616  11.953   5.667
24310W        W28378   6.468  12.251   4.505
24311W        W28379   6.755  11.984   4.147
24312W        W28380   6.564  14.024   4.536
24313W        W28381   6.398  13.627   5.332
24314W        W28382   6.294  12.706   4.310
24315W        W28383   5.727  12.916   5.296
24316W        W28384   6.608  12.704   5.363
24317W        W28385   3.983  11.719   5.787
24318W        W28386   6.761  12.771   6.614
24319W        W28387   7.112  14.389   5.760
24320W        W28388   5.042  13.833   5.162
24321W        W28389   6.049  14.366   6.486
24322W        W28390   6.043  11.696   6.250
24323W        W28391   5.250  14.404   6.311
24324W        W28392   6.947  11.358   4.777
24325W        W28393   6.738  12.677   6.078
24326W        W28394   3.721  11.998   6.116
24327W        W28395   6.581  11.793   5.134
24328W        W28396   6.992  11.944   6.911
24329W        W28397   5.877  13.643   5.129
24330W        W28398   5.133  14.234   4.742
24331W        W28399   4.248  11.414   4.000
24332W        W28400   5.352  11.068   5.810
24333W        W28401   4.380  14.188   3.658
24334W        W28402   4.754  12.654   4.409
24335W        W28403   5.408  13.283   6.722
24336W        W28404   5.238  11.641   4.712
24337W        W28405   6.594  11.238   5.140
24338W        W28406   6.314  14.520   5.468
24339W        W28407   5.726  14.168   5.808
24340W        W28408   5.122  13.205   5.769
24341W        W28409   6.892  13.928   5.895
24342W        W28410   4.586  11.431   4.664
24343W        W28411   5.108  13.728   5.624
24344W        W28412   4.591  11.659   3.689
24345W        W28413   5.392  12.268   6.083
24346W        W28414   6.240  11.134   5.953
24347W        W28415   3.660  12.977   5.838
24348W        W28416   5.364  12.795   3.996
24349W        W28417   4.632  11.110   3.766
24350W        W28418   5.370  12.191   4.817
24351W        W28419   6.340  11.167   6.516
24352W        W28420   4.928  13.179   6.625
24353W        W28421   5.732  12.961   6.842
24354W        W28422   6.349  12.991   6.735
24355W        W28423   5.633  11.131   7.240
24356W        W28424   4.855  11.747   5.633
24357W        W28425   4.281  11.703   5.031
24358W        W28426   4.067  14.415   4.707
24359W        W28427   5.399  13.745   6.832
24360W        W28428   4.434  13.230   4.191
24361W        W28429   6.114  12.615   5.412
24362W        W28430   6.394  12.414   5.811
24363W        W28431   5.599  13.088   5.745
24364W        W28432   6.069  13.462   3.877
24365W        W28433   5.741  11.483   5.205
24366W        W28434   7.220  11.761   4.473
24367W        W28435   3.714  14.350   6.504
24368W        W28436   4.131  13.576   6.036
24369W        W28437   3.698  14.422   4.268
24370W        W28438   5.597  11.692   6.074
24371W        W28439   4.960  13.715   3.923
24372W        W28440   6.865  14.097   4.109
24373W        W28441   5.840  12.750   4.123
24374W        W28442   4.683  11.941   4.640
24375W        W28443   5.515  11.851   3.692
24376W        W28444   6.099  13.416   6.870
24377W        W28445   6.452  11.322   4.487
24378W        W28446   3.782  11.170   3.935
24379W        W28447   5.068  13.489   6.225
24380W        W28448   4.867  13.405   5.317
24381W        W28449   4.609  13.357   3.715
24382W        W28450   3.850  13.598   4.483
24383W        W28451   4.354  12.668   6.925
24384W        W28452   5.058  11.228   7.111
24385W        W28453   5.767  11.370   6.467
24386W        W28454   4.962  11.138   4.748
24387W        W28455   6.021  11.215   4.253
24388W        W28456   3.966  11.147   5.830
24389W        W28457   4.014  12.110   5.200
24390W        W28458   6.703  11.218   5.606
24391W        W28459   4.125  11.716   4.420
24392W        W28460   6.696  11.404   6.036
24393W        W28461   7.092  12.607   3.721
24394W        W28462   4.384  11.365   5.540
24395W        W28463   5.498  11.937   6.480
24396W        W28464   3.646  11.627   3.958
24397W        W28465   4.432  13.016   6.519
24398W        W28466   5.790  12.414   5.698
24399W        W28467   5.657  14.493   3.994
24400W        W28468   3.803  13.000   3.691
24401W        W28469   4.538  13.411   6.817
24402W        W28470   4.059  12.578   6.448
24403W        W28471   5.050  12.683   6.242
24404W        W28472   6.818  11.042   6.504
24405W        W28473   7.216  12.652   6.495
24406W        W28474   7.204  12.852   4.181
24407W        W28475   6.067  13.184   4.280
24408W        W28476   6.541  14.484   3.975
24409W        W28477   5.718  12.474   7.117
24410W        W28478   4.048  13.441   7.157
24411W        W28479   7.254  11.363   7.109
24412W        W28480   6.972  12.291   5.730
24413W        W28481   5.280  14.421   7.207
24414W        W28482   5.135  11.050   3.934
24415W        W28483   6.674  13.649   3.877
24416W        W28484   4.443  11.742   6.763
24417W        W28485   4.877  13.736   6.625
24418W        W28486   7.003  11.727   6.423
24419W        W28487   6.214  14.386   4.391
24420W        W28488   6.453  13.005   5.758
24421W        W28489   4.703  11.421   6.425
24422W        W28490   5.172  12.490   7.182
24423W        W28491   4.675  13.669   4.376
24424W        W28492   6.430  13.167   4.640
24425W        W28493   4.198  11.793   6.364
24426W        W28494   5.527  13.855   4.828
24427W        W28495   7.277  12.415   5.009
24428W        W28496   5.499  11.048   6.728
24429W        W28497   6.279  13.753   5.807
24430W        W28498   6.582  14.097   5.515
24431W        W28499   5.801  13.899   3.943
24432W        W28500   3.811  13.791   6.785
24433W        W28501   4.554  11.783   6.023
24434W        W28502   4.524  11.131   5.133
24435W        W28503   6.145  11.973   5.825
24436W        W28504   4.943  13.144   4.025
24437W        W28505   6.941  13.086   5.524
24438W        W28506   4.268  13.844   6.947
24439W        W28507   6.655  14.526   4.744
24440W        W28508   4.754  11.546   5.189
24441W        W28509   4.523  13.039   5.279
24442W        W28510   4.836  14.450   6.029
24443W        W28511   6.903  14.546   7.061
24444W        W28512   6.062  12.734   5.994
24445W        W28513   3.911  12.532   3.909
24446W        W28514   7.045  14.190   4.606
24447W        W28515   6.882  11.514   4.225
24448W        W28516   5.021  11.033   6.628
24449W        W28517   6.727  13.835   5.086
24450W        W28518   6.756  12.391   4.991
24451W        W28519   4.873  12.064   5.207
24452W        W28520   5.118  12.326   6.531
24453W        W28521   6.229  13.479   6.394
24454W        W28522   4.879  11.933   6.506
24455W        W28523   4.858  14.399   5.122
24456W        W28524   4.175  14.358   6.756
24457W        W28525   4.287  13.719   3.886
24458W        W28526   6.804  13.477   4.696
24459W        W28527   4.408  12.269   6.582
24460W        W28528   7.181  12.199   4.063
24461W        W28529   4.926  13.256   4.534
24462W        W28530   6.025  12.638   6.615
24463W        W28531   5.916  12.266   6.159
24464W        W28532   4.476  12.638   6.188
24465W        W28533   6.686  14.526   6.017
24466W        W28534   6.477  11.160   7.011
24467W        W28535   4.141  11.310   6.598
24468W        W28536   4.480  12.333   5.651
24469W        W28537   4.849  12.147   3.773
24470W        W28538   3.652  13.906   6.318
24471W        W28539   5.237  12.615   5.761
24472W        W28540   5.060  11.640   3.866
24473W        W28541   4.195  12.456   4.647
24474W        W28542   3.966  14.308   6.084
24475W        W28543   6.761  12.534   4.192
24476W        W28544   6.856  11.450   6.878
24477W        W28545   6.292  13.659   4.841
24478W        W28546   3.890  12.583   7.018
24479W        W28547   6.856  11.047   4.314
24480W        W28548   6.376  13.522   4.325
24481W        W28549   5.278  12.580   4.410
24482W        W28550   6.465  11.384   3.933
24483W        W28551   6.530  11.991   6.119
24484W        W28552   4.239  12.584   5.326
24485W        W28553   4.533  13.523   4.975
24486W        W28554   6.296  12.143   4.940
24487W        W28555   5.319  11.522   5.636
24488W        W28556   7.281  13.433   6.147
24489W        W28557   7.199  11.420   5.708
24490W        W28558   3.738  14.250   5.084
24491W        W28559   4.247  13.437   4.620
24492W        W28560   4.162  11.054   7.173
24493W        W28561   5.281  13.907   7.275
24494W        W28562   7.036  12.875   5.065
24495W        W28563   6.390  13.052   3.945
24496W        W28564   5.685  14.573   6.157
24497W        W28565   6.542  13.295   7.194
24498W        W28566   5.357  11.005   4.474
24499W        W28567   6.070  11.874   5.333
24500W        W28568   3.756  13.461   5.665
24501W        W28569   5.009  11.423   4.306
24502W        W28570   4.813  12.907   7.155
24503W        W28571   5.807  11.888   4.869
24504W        W28572   6.012  13.298   5.991
24505W        W28573   4.166  13.903   6.426
24506W        W28574   4.757  13.886   7.149
24507W        W28575   4.608  11.683   4.163
24508W        W28576   6.125  11.825   4.488
24509W        W28577   6.083  13.933   6.725
24510W        W28578   4.768  12.525   5.324
24511W        W28579   4.423  14.223   6.189
24512W        W28580   7.168  14.340   3.790
24513W        W28581   4.031  13.012   6.786
24514W        W28582   6.026  13.274   5.474
24515W        W28583   4.462  12.923   4.716
24516W        W28584   4.833  13.930   6.111
24517W        W28585   5.211  11.349   5.152
24518W        W28586   3.822  13.333   4.082
24519W        W28587   5.341  12.284   3.952
24520W        W28588   3.987  12.833   4.971
24521W        W28589   5.277  11.475   6.435
24522W        W28590   6.949  11.184   3.862
24523W        W28591   7.042  12.930   6.961
24524W        W28592   5.696  14.187   7.113
24525W        W28593   7.254  13.281   6.635
24526W        W28594   6.662  14.079   7.246
24527W        W28595   4.401  14.535   5.724
24528W        W28596   7.260  13.157   4.598
24529W        W28597   5.790  12.424   5.111
24530W        W28598   5.557  11.036   5.001
24531W        W28599   4.616  14.020   4.838
24532W        W28600   5.115  11.761   6.063
24533W        W28601   4.815  11.130   5.532
24534W        W28602   3.878  13.952   4.080
24535W        W28603   5.694  13.316   4.798
24536W        W28604   4.569  14.111   6.677
24537W        W28605   4.046  12.934   4.373
24538W        W28606   3.931  11.477   5.372
24539W        W28607   5.479  13.442   5.429
24540W        W28608   3.731  11.296   4.449
24541W        W28609   6.395  12.502   6.376
24542W        W28610   6.272  11.888   3.948
24543W        W28611   6.789  13.560   5.596
24544W        W28612   5.450  14.044   5.427
24545W        W28613   4.862  14.148   4.338
24546W        W28614   6.144  11.051   3.768
24547W        W28615   3.944  14.311   5.509
24548W        W28616   6.141  12.069   7.144
24549W        W28617   4.124  11.599   7.143
24550W        W28618   3.855  12.199   4.476
24551W        W28619   4.546  12.188   4.201
24552W        W28620   6.309  12.515   7.018
24553W        W28621   4.652  12.796   5.727
24554W        W28622   6.126  11.082   4.847
24555W        W28623   5.257  14.513   5.350
24556W        W28624   6.471  13.975   6.287
24557W        W28625   6.055  14.124   5.398
24558W        W28626   6.074  13.104   4.992
24559W        W28627   5.536  11.329   4.063
24560W        W28628   7.217  10.957   4.785
24561W        W28629   4.905  12.592   3.948
24562W        W28630   7.071  11.929   4.938
24563W        W28631   5.763  13.099   3.815
24564W        W28632   6.699  13.299   6.563
24565W        W28633   6.353  14.000   4.030
24566W        W28634   4.968  11.675   6.936
24567W        W28635   4.788  12.259   6.177
24568W        W28636   6.880  13.754   6.454
24569W        W28637   5.980  11.704   6.831
24570W        W28638   3.824  12.175   6.608
24571W        W28639   5.584  12.652   6.334
24572W        W28640   3.941  13.410   4.991
24573W        W28641   4.088  12.707   5.881
24574W        W28642   6.405  12.993   6.231
24575W        W28643   6.177  14.373   7.042
24576W        W28644   6.073  12.112   6.595
24577W        W28645   6.350  14.166   5.000
24578W        W28646   5.352  13.886   6.323
24579W        W28647   4.837  14.241   5.592
24580W        W28648   6.642  13.412   6.011
24581W        W28649   5.692  13.484   7.148
24582W        W28650   4.297  13.437   5.487
24583W        W28651   6.643  13.196   5.132
24584W        W28652   6.284  14.262   5.883
24585W        W28653   4.262  13.991   5.753
24586W        W28654   5.283  12.043   6.963
24587W        W28655   5.734  14.209   4.474
24588W        W28656   5.042  13.464   7.112
24589W        W28657   5.168  13.702   4.489
24590W        W28658   4.389  12.442   3.748
24591W        W28659   3.728  14.528  10.648
24592W        W28660   4.104  13.421  10.171
24593W        W28661   6.809  13.151   7.941
24594W        W28662   6.939  14.236   9.968
24595W        W28663   4.857  14.227   7.494
24596W        W28664   4.940  12.379   8.477
24597W        W28665   4.455  12.227   8.641
24598W        W28666   5.446  13.042   8.075
24599W        W28667   5.121  14.134  10.430
24600W        W28668   3.770  11.695  10.393
24601W        W28669   4.532  10.975  10.195
24602W        W28670   6.226  11.363   9.082
24603W        W28671   5.875  12.234   7.652
24604W        W28672   6.445  11.668  10.743
24605W        W28673   3.811  11.460   9.868
24606W        W28674   3.910  14.079  10.889
24607W        W28675   5.432  13.469   7.621
24608W        W28676   3.864  12.252   9.314
24609W        W28677   4.757  12.143  10.551
24610W        W28678   7.216  12.002   9.050
24611W        W28679   6.980  13.045   9.909
24612W        W28680   5.288  12.378   8.936
24613W        W28681   5.834  13.717   9.305
24614W        W28682   4.334  13.151   9.537
24615W        W28683   3.693  12.679   9.108
24616W        W28684   4.729  12.651  10.300
24617W        W28685   7.000  12.434  10.554
24618W        W28686   4.616  13.878   8.999
24619W        W28687   5.737  13.567  10.133
24620W        W28688   4.957  12.207   9.358
24621W        W28689   5.249  12.991   9.001
24622W        W28690   6.246  13.764  10.849
24623W        W28691   5.325  13.084  10.859
24624W        W28692   5.306  12.800  10.337
24625W        W28693   3.715  12.191  10.859
24626W        W28694   6.547  13.726  10.458
24627W        W28695   4.128  11.308   8.456
24628W        W28696   4.655  13.566   9.455
24629W        W28697   7.118  13.349   8.745
24630W        W28698   6.531  11.749   9.312
24631W        W28699   6.816  11.702   7.407
24632W        W28700   7.281  12.503   9.713
24633W        W28701   5.248  14.210   9.466
24634W        W28702   7.022  13.676   7.904
24635W        W28703   4.151  14.462   7.658
24636W        W28704   4.544  14.508   8.334
24637W        W28705   4.341  11.262   9.760
24638W        W28706   6.964  12.280  10.035
24639W        W28707   6.369  12.702   8.494
24640W        W28708   6.335  12.390   7.521
24641W        W28709   5.543  13.534   9.661
24642W        W28710   5.349  11.864   8.860
24643W        W28711   5.949  13.951   9.854
24644W        W28712   6.820  12.742   8.276
24645W        W28713   5.722  11.400   8.292
24646W        W28714   4.379  14.094   7.975
24647W        W28715   3.750  11.593   8.574
24648W        W28716   6.536  12.200   9.048
24649W        W28717   3.994  13.817   8.963
24650W        W28718   5.335  14.167   7.833
24651W        W28719   6.727  12.193   7.297
24652W        W28720   3.750  13.951   9.461
24653W        W28721   4.541  13.523   9.941
24654W        W28722   4.914  12.883   8.560
24655W        W28723   4.936  11.288   9.653
24656W        W28724   7.165  11.050   8.950
24657W        W28725   4.384  12.922   7.418
24658W        W28726   4.039  11.955   7.597
24659W        W28727   4.101  13.911   8.391
24660W        W28728   5.232  13.394   8.639
24661W        W28729   6.564  14.253  10.353
24662W        W28730   5.490  11.895   8.037
24663W        W28731   6.873  14.293   8.809
24664W        W28732   6.550  12.146  10.407
24665W        W28733   7.263  13.802   8.541
24666W        W28734   5.890  13.094  10.025
24667W        W28735   3.656  12.645   8.231
24668W        W28736   4.767  13.060   9.804
24669W        W28737   5.971  12.324   8.182
24670W        W28738   5.848  12.814   8.286
24671W        W28739   4.191  12.234   9.760
24672W        W28740   4.176  12.110  10.682
24673W        W28741   4.066  11.027   8.841
24674W        W28742   5.834  11.374   9.402
24675W        W28743   5.482  11.559  10.565
24676W        W28744   5.837  11.708   7.743
24677W        W28745   7.020  14.101  10.497
24678W        W28746   5.987  11.182  10.536
24679W        W28747   7.006  13.483  10.658
24680W        W28748   6.436  11.650  10.254
24681W        W28749   6.236  11.588   8.524
24682W        W28750   6.629  12.722  10.928
24683W        W28751   4.369  14.298   8.914
24684W        W28752   5.027  12.015   7.900
24685W        W28753   4.596  11.299  10.564
24686W        W28754   6.648  11.783   8.245
24687W        W28755   7.015  12.265   8.190
24688W        W28756   4.758  14.482  10.661
24689W        W28757   4.684  11.018   7.896
24690W        W28758   7.005  11.552   8.931
24691W        W28759   7.155  13.801   7.376
24692W        W28760   4.062  13.004   9.078
24693W        W28761   5.979  11.591   7.308
24694W        W28762   7.113  13.923   9.028
24695W        W28763   7.152  11.117   9.778
24696W        W28764   5.597  12.329  10.332
24697W        W28765   5.690  13.668   8.035
24698W        W28766   6.090  12.962  10.775
24699W        W28767   5.764  10.939   9.084
24700W        W28768   4.376  11.842   9.147
24701W        W28769   3.930  13.042   9.921
24702W        W28770   5.789  14.235   8.627
24703W        W28771   6.983  11.832   9.499
24704W        W28772   5.620  14.179  10.266
24705W        W28773   6.963  13.238   7.471
24706W        W28774   5.398  12.721   8.532
24707W        W28775   7.250  11.232  10.273
24708W        W28776   5.399  13.067   9.867
24709W        W28777   5.616  11.953   9.312
24710W        W28778   6.468  12.251   8.150
24711W        W28779   6.755  11.984   7.792
24712W        W28780   6.564  14.024   8.181
24713W        W28781   6.398  13.627   8.977
24714W        W28782   6.294  12.706   7.955
24715W        W28783   5.727  12.916   8.941
24716W        W28784   6.608  12.704   9.008
24717W        W28785   3.983  11.719   9.432
24718W        W28786   6.761  12.771  10.259
24719W        W28787   7.112  14.389   9.405
24720W        W28788   5.042  13.833   8.807
24721W        W28789   6.049  14.366  10.131
24722W        W28790   6.043  11.696   9.895
24723W        W28791   5.250  14.404   9.956
24724W        W28792   6.947  11.358   8.422
24725W        W28793   6.738  12.677   9.723
24726W        W28794   3.721  11.998   9.761
24727W        W28795   6.581  11.793   8.779
24728W        W28796   6.992  11.944  10.556
24729W        W28797   5.877  13.643   8.774
24730W        W28798   5.133  14.234   8.387
24731W        W28799   4.248  11.414   7.645
24732W        W28800   5.352  11.068   9.455
24733W        W28801   4.380  14.188   7.303
24734W        W28802   4.754  12.654   8.054
24735W        W28803   5.408  13.283  10.367
24736W        W28804   5.238  11.641   8.357
24737W        W28805   6.594  11.238   8.785
24738W        W28806   6.314  14.520   9.113
24739W        W28807   5.726  14.168   9.453
24740W        W28808   5.122  13.205   9.414
24741W        W28809   6.892  13.928   9.540
24742W        W28810   4.586  11.431   8.309
24743W        W28811   5.108  13.728   9.269
24744W        W28812   4.591  11.659   7.334
24745W        W28813   5.392  12.268   9.728
24746W        W28814   6.240  11.134   9.598
24747W        W28815   3.660  12.977   9.483
24748W        W28816   5.364  12.795   7.641
24749W        W28817   4.632  11.110   7.411
24750W        W28818   5.370  12.191   8.462
24751W        W28819   6.340  11.167  10.161
24752W        W28820   4.928  13.179  10.270
24753W        W28821   5.732  12.961  10.487
24754W        W28822   6.349  12.991  10.380
24755W        W28823   5.633  11.131  10.885
24756W        W28824   4.855  11.747   9.278
24757W        W28825   4.281  11.703   8.676
24758W        W28826   4.067  14.415   8.352
24759W        W28827   5.399  13.745  10.477
24760W        W28828   4.434  13.230   7.836
24761W        W28829   6.114  12.615   9.057
24762W        W28830   6.394  12.414   9.456
24763W        W28831   5.599  13.088   9.390
24764W        W28832   6.069  13.462   7.522
24765W        W28833   5.741  11.483   8.850
24766W        W28834   7.220  11.761   8.118
24767W        W28835   3.714  14.350  10.149
24768W        W28836   4.131  13.576   9.681
24769W        W28837   3.698  14.422   7.913
24770W        W28838   5.597  11.692   9.719
24771W        W28839   4.960  13.715   7.568
24772W        W28840   6.865  14.097   7.754
24773W        W28841   5.840  12.750   7.768
24774W        W28842   4.683  11.941   8.285
24775W        W28843   5.515  11.851   7.337
24776W        W28844   6.099  13.416  10.515
24777W        W28845   6.452  11.322   8.132
24778W        W28846   3.782  11.170   7.580
24779W        W28847   5.068  13.489   9.870
24780W        W28848   4.867  13.405   8.962
24781W        W28849   4.609  13.357   7.360
24782W        W28850   3.850  13.598   8.128
24783W        W28851   4.354  12.668  10.570
24784W        W28852   5.058  11.228  10.756
24785W        W28853   5.767  11.370  10.112
24786W        W28854   4.962  11.138   8.393
24787W        W28855   6.021  11.215   7.898
24788W        W28856   3.966  11.147   9.475
24789W        W28857   4.014  12.110   8.845
24790W        W28858   6.703  11.218   9.251
24791W        W28859   4.125  11.716   8.065
24792W        W28860   6.696  11.404   9.681
24793W        W28861   7.092  12.607   7.366
24794W        W28862   4.384  11.365   9.185
24795W        W28863   5.498  11.937  10.125
24796W        W28864   3.646  11.627   7.603
24797W        W28865   4.432  13.016  10.164
24798W        W28866   5.790  12.414   9.343
24799W        W28867   5.657  14.493   7.639
24800W        W28868   3.803  13.000   7.336
24801W        W28869   4.538  13.411  10.462
24802W        W28870   4.059  12.578  10.093
24803W        W28871   5.050  12.683   9.887
24804W        W28872   6.818  11.042  10.149
24805W        W28873   7.216  12.652  10.140
24806W        W28874   7.204  12.852   7.826
24807W        W28875   6.067  13.184   7.925
24808W        W28876   6.541  14.484   7.620
24809W        W28877   5.718  12.474  10.762
24810W        W28878   4.048  13.441  10.802
24811W        W28879   7.254  11.363  10.754
24812W        W28880   6.972  12.291   9.375
24813W        W28881   5.280  14.421  10.852
24814W        W28882   5.135  11.050   7.579
24815W        W28883   6.674  13.649   7.522
24816W        W28884   4.443  11.742  10.408
24817W        W28885   4.877  13.736  10.270
24818W        W28886   7.003  11.727  10.068
24819W        W28887   6.214  14.386   8.036
24820W        W28888   6.453  13.005   9.403
24821W        W28889   4.703  11.421  10.070
24822W        W28890   5.172  12.490  10.827
24823W        W28891   4.675  13.669   8.021
24824W        W28892   6.430  13.167   8.285
24825W        W28893   4.198  11.793  10.009
24826W        W28894   5.527  13.855   8.473
24827W        W28895   7.277  12.415   8.654
24828W        W28896   5.499  11.048  10.373
24829W        W28897   6.279  13.753   9.452
24830W        W28898   6.582  14.097   9.160
24831W        W28899   5.801  13.899   7.588
24832W        W28900   3.811  13.791  10.430
24833W        W28901   4.554  11.783   9.668
24834W        W28902   4.524  11.131   8.778
24835W        W28903   6.145  11.973   9.470
24836W        W28904   4.943  13.144   7.670
24837W        W28905   6.941  13.086   9.169
24838W        W28906   4.268  13.844  10.592
24839W        W28907   6.655  14.526   8.389
24840W        W28908   4.754  11.546   8.834
24841W        W28909   4.523  13.039   8.924
24842W        W28910   4.836  14.450   9.674
24843W        W28911   6.903  14.546  10.706
24844W        W28912   6.062  12.734   9.639
24845W        W28913   3.911  12.532   7.554
24846W        W28914   7.045  14.190   8.251
24847W        W28915   6.882  11.514   7.870
24848W        W28916   5.021  11.033  10.273
24849W        W28917   6.727  13.835   8.731
24850W        W28918   6.756  12.391   8.636
24851W        W28919   4.873  12.064   8.852
24852W        W28920   5.118  12.326  10.176
24853W        W28921   6.229  13.479  10.039
24854W        W28922   4.879  11.933  10.151
24855W        W28923   4.858  14.399   8.767
24856W        W28924   4.175  14.358  10.401
24857W        W28925   4.287  13.719   7.531
24858W        W28926   6.804  13.477   8.341
24859W        W28927   4.408  12.269  10.227
24860W        W28928   7.181  12.199   7.708
24861W        W28929   4.926  13.256   8.179
24862W        W28930   6.025  12.638  10.260
24863W        W28931   5.916  12.266   9.804
24864W        W28932   4.476  12.638   9.833
24865W        W28933   6.686  14.526   9.662
24866W        W28934   6.477  11.160  10.656
24867W        W28935   4.141  11.310  10.243
24868W        W28936   4.480  12.333   9.296
24869W        W28937   4.849  12.147   7.418
24870W        W28938   3.652  13.906   9.963
24871W        W28939   5.237  12.615   9.406
24872W        W28940   5.060  11.640   7.511
24873W        W28941   4.195  12.456   8.292
24874W        W28942   3.966  14.308   9.729
24875W        W28943   6.761  12.534   7.837
24876W        W28944   6.856  11.450  10.523
24877W        W28945   6.292  13.659   8.486
24878W        W28946   3.890  12.583  10.663
24879W        W28947   6.856  11.047   7.959
24880W        W28948   6.376  13.522   7.970
24881W        W28949   5.278  12.580   8.055
24882W        W28950   6.465  11.384   7.578
24883W        W28951   6.530  11.991   9.764
24884W        W28952   4.239  12.584   8.971
24885W        W28953   4.533  13.523   8.620
24886W        W28954   6.296  12.143   8.585
24887W        W28955   5.319  11.522   9.281
24888W        W28956   7.281  13.433   9.792
24889W        W28957   7.199  11.420   9.353
24890W        W28958   3.738  14.250   8.729
24891W        W28959   4.247  13.437   8.265
24892W        W28960   4.162  11.054  10.818
24893W        W28961   5.281  13.907  10.920
24894W        W28962   7.036  12.875   8.710
24895W        W28963   6.390  13.052   7.590
24896W        W28964   5.685  14.573   9.802
24897W        W28965   6.542  13.295  10.839
24898W        W28966   5.357  11.005   8.119
24899W        W28967   6.070  11.874   8.978
24900W        W28968   3.756  13.461   9.310
24901W        W28969   5.009  11.423   7.951
24902W        W28970   4.813  12.907  10.800
24903W        W28971   5.807  11.888   8.514
24904W        W28972   6.012  13.298   9.636
24905W        W28973   4.166  13.903  10.071
24906W        W28974   4.757  13.886  10.794
24907W        W28975   4.608  11.683   7.808
24908W        W28976   6.125  11.825   8.133
24909W        W28977   6.083  13.933  10.370
24910W        W28978   4.768  12.525   8.969
24911W        W28979   4.423  14.223   9.834
24912W        W28980   7.168  14.340   7.435
24913W        W28981   4.031  13.012  10.431
24914W        W28982   6.026  13.274   9.119
24915W        W28983   4.462  12.923   8.361
24916W        W28984   4.833  13.930   9.756
24917W        W28985   5.211  11.349   8.797
24918W        W28986   3.822  13.333   7.727
24919W        W28987   5.341  12.284   7.597
24920W        W28988   3.987  12.833   8.616
24921W        W28989   5.277  11.475  10.080
24922W        W28990   6.949  11.184   7.507
24923W        W28991   7.042  12.930  10.606
24924W        W28992   5.696  14.187  10.758
24925W        W28993   7.254  13.281  10.280
24926W        W28994   6.662  14.079  10.891
24927W        W28995   4.401  14.535   9.369
24928W        W28996   7.260  13.157   8.243
24929W        W28997   5.790  12.424   8.756
24930W        W28998   5.557  11.036   8.646
24931W        W28999   4.616  14.020   8.483
24932W        W29000   5.115  11.761   9.708
24933W        W29001   4.815  11.130   9.177
24934W        W29002   3.878  13.952   7.725
24935W        W29003   5.694  13.316   8.443
24936W        W29004   4.569  14.111  10.322
24937W        W29005   4.046  12.934   8.018
24938W        W29006   3.931  11.477   9.017
24939W        W29007   5.479  13.442   9.074
24940W        W29008   3.731  11.296   8.094
24941W        W29009   6.395  12.502  10.021
24942W        W29010   6.272  11.888   7.593
24943W        W29011   6.789  13.560   9.241
24944W        W29012   5.450  14.044   9.072
24945W        W29013   4.862  14.148   7.983
24946W        W29014   6.144  11.051   7.413
24947W        W29015   3.944  14.311   9.154
24948W        W29016   6.141  12.069  10.789
24949W        W29017   4.124  11.599  10.788
24950W        W29018   3.855  12.199   8.121
24951W        W29019   4.546  12.188   7.846
24952W        W29020   6.309  12.515  10.663
24953W        W29021   4.652  12.796   9.372
24954W        W29022   6.126  11.082   8.492
24955W        W29023   5.257  14.513   8.995
24956W        W29024   6.471  13.975   9.932
24957W        W29025   6.055  14.124   9.043
24958W        W29026   6.074  13.104   8.637
24959W        W29027   5.536  11.329   7.708
24960W        W29028   7.217  10.957   8.430
24961W        W29029   4.905  12.592   7.593
24962W        W29030   7.071  11.929   8.583
24963W        W29031   5.763  13.099   7.460
24964W        W29032   6.699  13.299  10.208
24965W        W29033   6.353  14.000   7.675
24966W        W29034   4.968  11.675  10.581
24967W        W29035   4.788  12.259   9.822
24968W        W29036   6.880  13.754  10.099
24969W        W29037   5.980  11.704  10.476
24970W        W29038   3.824  12.175  10.253
24971W        W29039   5.584  12.652   9.979
24972W        W29040   3.941  13.410   8.636
24973W        W29041   4.088  12.707   9.526
24974W        W29042   6.405  12.993   9.876
24975W        W29043   6.177  14.373  10.687
24976W        W29044   6.073  12.112  10.240
24977W        W29045   6.350  14.166   8.645
24978W        W29046   5.352  13.886   9.968
24979W        W29047   4.837  14.241   9.237
24980W        W29048   6.642  13.412   9.656
24981W        W29049   5.692  13.484  10.793
24982W        W29050   4.297  13.437   9.132
24983W        W29051   6.643  13.196   8.777
24984W        W29052   6.284  14.262   9.528
24985W        W29053   4.262  13.991   9.398
24986W        W29054   5.283  12.043  10.608
24987W        W29055   5.734  14.209   8.119
24988W        W29056   5.042  13.464  10.757
24989W        W29057   5.168  13.702   8.134
24990W        W29058   4.389  12.442   7.393
24991W        W29059   3.728  14.528  14.292
24992W        W29060   4.104  13.421  13.815
24993W        W29061   6.809  13.151  11.585
24994W        W29062   6.939  14.236  13.612
24995W        W29063   4.857  14.227  11.138
24996W        W29064   4.940  12.379  12.121
24997W        W29065   4.455  12.227  12.285
24998W        W29066   5.446  13.042  11.719
24999W        W29067   5.121  14.134  14.074
25000W        W29068   3.770  11.695  14.037
25001W        W29069   4.532  10.975  13.839
25002W        W29070   6.226  11.363  12.726
25003W        W29071   5.875  12.234  11.296
25004W        W29072   6.445  11.668  14.387
25005W        W29073   3.811  11.460  13.512
25006W        W29074   3.910  14.079  14.533
25007W        W29075   5.432  13.469  11.265
25008W        W29076   3.864  12.252  12.958
25009W        W29077   4.757  12.143  14.195
25010W        W29078   7.216  12.002  12.694
25011W        W29079   6.980  13.045  13.553
25012W        W29080   5.288  12.378  12.580
25013W        W29081   5.834  13.717  12.949
25014W        W29082   4.334  13.151  13.181
25015W        W29083   3.693  12.679  12.752
25016W        W29084   4.729  12.651  13.944
25017W        W29085   7.000  12.434  14.198
25018W        W29086   4.616  13.878  12.643
25019W        W29087   5.737  13.567  13.777
25020W        W29088   4.957  12.207  13.002
25021W        W29089   5.249  12.991  12.645
25022W        W29090   6.246  13.764  14.493
25023W        W29091   5.325  13.084  14.503
25024W        W29092   5.306  12.800  13.981
25025W        W29093   3.715  12.191  14.503
25026W        W29094   6.547  13.726  14.102
25027W        W29095   4.128  11.308  12.100
25028W        W29096   4.655  13.566  13.099
25029W        W29097   7.118  13.349  12.389
25030W        W29098   6.531  11.749  12.956
25031W        W29099   6.816  11.702  11.051
25032W        W29100   7.281  12.503  13.357
25033W        W29101   5.248  14.210  13.110
25034W        W29102   7.022  13.676  11.548
25035W        W29103   4.151  14.462  11.302
25036W        W29104   4.544  14.508  11.978
25037W        W29105   4.341  11.262  13.404
25038W        W29106   6.964  12.280  13.679
25039W        W29107   6.369  12.702  12.138
25040W        W29108   6.335  12.390  11.165
25041W        W29109   5.543  13.534  13.305
25042W        W29110   5.349  11.864  12.504
25043W        W29111   5.949  13.951  13.498
25044W        W29112   6.820  12.742  11.920
25045W        W29113   5.722  11.400  11.936
25046W        W29114   4.379  14.094  11.619
25047W        W29115   3.750  11.593  12.218
25048W        W29116   6.536  12.200  12.692
25049W        W29117   3.994  13.817  12.607
25050W        W29118   5.335  14.167  11.477
25051W        W29119   6.727  12.193  10.941
25052W        W29120   3.750  13.951  13.105
25053W        W29121   4.541  13.523  13.585
25054W        W29122   4.914  12.883  12.204
25055W        W29123   4.936  11.288  13.297
25056W        W29124   7.165  11.050  12.594
25057W        W29125   4.384  12.922  11.062
25058W        W29126   4.039  11.955  11.241
25059W        W29127   4.101  13.911  12.035
25060W        W29128   5.232  13.394  12.283
25061W        W29129   6.564  14.253  13.997
25062W        W29130   5.490  11.895  11.681
25063W        W29131   6.873  14.293  12.453
25064W        W29132   6.550  12.146  14.051
25065W        W29133   7.263  13.802  12.185
25066W        W29134   5.890  13.094  13.669
25067W        W29135   3.656  12.645  11.875
25068W        W29136   4.767  13.060  13.448
25069W        W29137   5.971  12.324  11.826
25070W        W29138   5.848  12.814  11.930
25071W        W29139   4.191  12.234  13.404
25072W        W29140   4.176  12.110  14.326
25073W        W29141   4.066  11.027  12.485
25074W        W29142   5.834  11.374  13.046
25075W        W29143   5.482  11.559  14.209
25076W        W29144   5.837  11.708  11.387
25077W        W29145   7.020  14.101  14.141
25078W        W29146   5.987  11.182  14.180
25079W        W29147   7.006  13.483  14.302
25080W        W29148   6.436  11.650  13.898
25081W        W29149   6.236  11.588  12.168
25082W        W29150   6.629  12.722  14.572
25083W        W29151   4.369  14.298  12.558
25084W        W29152   5.027  12.015  11.544
25085W        W29153   4.596  11.299  14.208
25086W        W29154   6.648  11.783  11.889
25087W        W29155   7.015  12.265  11.834
25088W        W29156   4.758  14.482  14.305
25089W        W29157   4.684  11.018  11.540
25090W        W29158   7.005  11.552  12.575
25091W        W29159   7.155  13.801  11.020
25092W        W29160   4.062  13.004  12.722
25093W        W29161   5.979  11.591  10.952
25094W        W29162   7.113  13.923  12.672
25095W        W29163   7.152  11.117  13.422
25096W        W29164   5.597  12.329  13.976
25097W        W29165   5.690  13.668  11.679
25098W        W29166   6.090  12.962  14.419
25099W        W29167   5.764  10.939  12.728
25100W        W29168   4.376  11.842  12.791
25101W        W29169   3.930  13.042  13.565
25102W        W29170   5.789  14.235  12.271
25103W        W29171   6.983  11.832  13.143
25104W        W29172   5.620  14.179  13.910
25105W        W29173   6.963  13.238  11.115
25106W        W29174   5.398  12.721  12.176
25107W        W29175   7.250  11.232  13.917
25108W        W29176   5.399  13.067  13.511
25109W        W29177   5.616  11.953  12.956
25110W        W29178   6.468  12.251  11.794
25111W        W29179   6.755  11.984  11.436
25112W        W29180   6.564  14.024  11.825
25113W        W29181   6.398  13.627  12.621
25114W        W29182   6.294  12.706  11.599
25115W        W29183   5.727  12.916  12.585
25116W        W29184   6.608  12.704  12.652
25117W        W29185   3.983  11.719  13.076
25118W        W29186   6.761  12.771  13.903
25119W        W29187   7.112  14.389  13.049
25120W        W29188   5.042  13.833  12.451
25121W        W29189   6.049  14.366  13.775
25122W        W29190   6.043  11.696  13.539
25123W        W29191   5.250  14.404  13.600
25124W        W29192   6.947  11.358  12.066
25125W        W29193   6.738  12.677  13.367
25126W        W29194   3.721  11.998  13.405
25127W        W29195   6.581  11.793  12.423
25128W        W29196   6.992  11.944  14.200
25129W        W29197   5.877  13.643  12.418
25130W        W29198   5.133  14.234  12.031
25131W        W29199   4.248  11.414  11.289
25132W        W29200   5.352  11.068  13.099
25133W        W29201   4.380  14.188  10.947
25134W        W29202   4.754  12.654  11.698
25135W        W29203   5.408  13.283  14.011
25136W        W29204   5.238  11.641  12.001
25137W        W29205   6.594  11.238  12.429
25138W        W29206   6.314  14.520  12.757
25139W        W29207   5.726  14.168  13.097
25140W        W29208   5.122  13.205  13.058
25141W        W29209   6.892  13.928  13.184
25142W        W29210   4.586  11.431  11.953
25143W        W29211   5.108  13.728  12.913
25144W        W29212   4.591  11.659  10.978
25145W        W29213   5.392  12.268  13.372
25146W        W29214   6.240  11.134  13.242
25147W        W29215   3.660  12.977  13.127
25148W        W29216   5.364  12.795  11.285
25149W        W29217   4.632  11.110  11.055
25150W        W29218   5.370  12.191  12.106
25151W        W29219   6.340  11.167  13.805
25152W        W29220   4.928  13.179  13.914
25153W        W29221   5.732  12.961  14.131
25154W        W29222   6.349  12.991  14.024
25155W        W29223   5.633  11.131  14.529
25156W        W29224   4.855  11.747  12.922
25157W        W29225   4.281  11.703  12.320
25158W        W29226   4.067  14.415  11.996
25159W        W29227   5.399  13.745  14.121
25160W        W29228   4.434  13.230  11.480
25161W        W29229   6.114  12.615  12.701
25162W        W29230   6.394  12.414  13.100
25163W        W29231   5.599  13.088  13.034
25164W        W29232   6.069  13.462  11.166
25165W        W29233   5.741  11.483  12.494
25166W        W29234   7.220  11.761  11.762
25167W        W29235   3.714  14.350  13.793
25168W        W29236   4.131  13.576  13.325
25169W        W29237   3.698  14.422  11.557
25170W        W29238   5.597  11.692  13.363
25171W        W29239   4.960  13.715  11.212
25172W        W29240   6.865  14.097  11.398
25173W        W29241   5.840  12.750  11.412
25174W        W29242   4.683  11.941  11.929
25175W        W29243   5.515  11.851  10.981
25176W        W29244   6.099  13.416  14.159
25177W        W29245   6.452  11.322  11.776
25178W        W29246   3.782  11.170  11.224
25179W        W29247   5.068  13.489  13.514
25180W        W29248   4.867  13.405  12.606
25181W        W29249   4.609  13.357  11.004
25182W        W29250   3.850  13.598  11.772
25183W        W29251   4.354  12.668  14.214
25184W        W29252   5.058  11.228  14.400
25185W        W29253   5.767  11.370  13.756
25186W        W29254   4.962  11.138  12.037
25187W        W29255   6.021  11.215  11.542
25188W        W29256   3.966  11.147  13.119
25189W        W29257   4.014  12.110  12.489
25190W        W29258   6.703  11.218  12.895
25191W        W29259   4.125  11.716  11.709
25192W        W29260   6.696  11.404  13.325
25193W        W29261   7.092  12.607  11.010
25194W        W29262   4.384  11.365  12.829
25195W        W29263   5.498  11.937  13.769
25196W        W29264   3.646  11.627  11.247
25197W        W29265   4.432  13.016  13.808
25198W        W29266   5.790  12.414  12.987
25199W        W29267   5.657  14.493  11.283
25200W        W29268   3.803  13.000  10.980
25201W        W29269   4.538  13.411  14.106
25202W        W29270   4.059  12.578  13.737
25203W        W29271   5.050  12.683  13.531
25204W        W29272   6.818  11.042  13.793
25205W        W29273   7.216  12.652  13.784
25206W        W29274   7.204  12.852  11.470
25207W        W29275   6.067  13.184  11.569
25208W        W29276   6.541  14.484  11.264
25209W        W29277   5.718  12.474  14.406
25210W        W29278   4.048  13.441  14.446
25211W        W29279   7.254  11.363  14.398
25212W        W29280   6.972  12.291  13.019
25213W        W29281   5.280  14.421  14.496
25214W        W29282   5.135  11.050  11.223
25215W        W29283   6.674  13.649  11.166
25216W        W29284   4.443  11.742  14.052
25217W        W29285   4.877  13.736  13.914
25218W        W29286   7.003  11.727  13.712
25219W        W29287   6.214  14.386  11.680
25220W        W29288   6.453  13.005  13.047
25221W        W29289   4.703  11.421  13.714
25222W        W29290   5.172  12.490  14.471
25223W        W29291   4.675  13.669  11.665
25224W        W29292   6.430  13.167  11.929
25225W        W29293   4.198  11.793  13.653
25226W        W29294   5.527  13.855  12.117
25227W        W29295   7.277  12.415  12.298
25228W        W29296   5.499  11.048  14.017
25229W        W29297   6.279  13.753  13.096
25230W        W29298   6.582  14.097  12.804
25231W        W29299   5.801  13.899  11.232
25232W        W29300   3.811  13.791  14.074
25233W        W29301   4.554  11.783  13.312
25234W        W29302   4.524  11.131  12.422
25235W        W29303   6.145  11.973  13.114
25236W        W29304   4.943  13.144  11.314
25237W        W29305   6.941  13.086  12.813
25238W        W29306   4.268  13.844  14.236
25239W        W29307   6.655  14.526  12.033
25240W        W29308   4.754  11.546  12.478
25241W        W29309   4.523  13.039  12.568
25242W        W29310   4.836  14.450  13.318
25243W        W29311   6.903  14.546  14.350
25244W        W29312   6.062  12.734  13.283
25245W        W29313   3.911  12.532  11.198
25246W        W29314   7.045  14.190  11.895
25247W        W29315   6.882  11.514  11.514
25248W        W29316   5.021  11.033  13.917
25249W        W29317   6.727  13.835  12.375
25250W        W29318   6.756  12.391  12.280
25251W        W29319   4.873  12.064  12.496
25252W        W29320   5.118  12.326  13.820
25253W        W29321   6.229  13.479  13.683
25254W        W29322   4.879  11.933  13.795
25255W        W29323   4.858  14.399  12.411
25256W        W29324   4.175  14.358  14.045
25257W        W29325   4.287  13.719  11.175
25258W        W29326   6.804  13.477  11.985
25259W        W29327   4.408  12.269  13.871
25260W        W29328   7.181  12.199  11.352
25261W        W29329   4.926  13.256  11.823
25262W        W29330   6.025  12.638  13.904
25263W        W29331   5.916  12.266  13.448
25264W        W29332   4.476  12.638  13.477
25265W        W29333   6.686  14.526  13.306
25266W        W29334   6.477  11.160  14.300
25267W        W29335   4.141  11.310  13.887
25268W        W29336   4.480  12.333  12.940
25269W        W29337   4.849  12.147  11.062
25270W        W29338   3.652  13.906  13.607
25271W        W29339   5.237  12.615  13.050
25272W        W29340   5.060  11.640  11.155
25273W        W29341   4.195  12.456  11.936
25274W        W29342   3.966  14.308  13.373
25275W        W29343   6.761  12.534  11.481
25276W        W29344   6.856  11.450  14.167
25277W        W29345   6.292  13.659  12.130
25278W        W29346   3.890  12.583  14.307
25279W        W29347   6.856  11.047  11.603
25280W        W29348   6.376  13.522  11.614
25281W        W29349   5.278  12.580  11.699
25282W        W29350   6.465  11.384  11.222
25283W        W29351   6.530  11.991  13.408
25284W        W29352   4.239  12.584  12.615
25285W        W29353   4.533  13.523  12.264
25286W        W29354   6.296  12.143  12.229
25287W        W29355   5.319  11.522  12.925
25288W        W29356   7.281  13.433  13.436
25289W        W29357   7.199  11.420  12.997
25290W        W29358   3.738  14.250  12.373
25291W        W29359   4.247  13.437  11.909
25292W        W29360   4.162  11.054  14.462
25293W        W29361   5.281  13.907  14.564
25294W        W29362   7.036  12.875  12.354
25295W        W29363   6.390  13.052  11.234
25296W        W29364   5.685  14.573  13.446
25297W        W29365   6.542  13.295  14.483
25298W        W29366   5.357  11.005  11.763
25299W        W29367   6.070  11.874  12.622
25300W        W29368   3.756  13.461  12.954
25301W        W29369   5.009  11.423  11.595
25302W        W29370   4.813  12.907  14.444
25303W        W29371   5.807  11.888  12.158
25304W        W29372   6.012  13.298  13.280
25305W        W29373   4.166  13.903  13.715
25306W        W29374   4.757  13.886  14.438
25307W        W29375   4.608  11.683  11.452
25308W        W29376   6.125  11.825  11.777
25309W        W29377   6.083  13.933  14.014
25310W        W29378   4.768  12.525  12.613
25311W        W29379   4.423  14.223  13.478
25312W        W29380   7.168  14.340  11.079
25313W        W29381   4.031  13.012  14.075
25314W        W29382   6.026  13.274  12.763
25315W        W29383   4.462  12.923  12.005
25316W        W29384   4.833  13.930  13.400
25317W        W29385   5.211  11.349  12.441
25318W        W29386   3.822  13.333  11.371
25319W        W29387   5.341  12.284  11.241
25320W        W29388   3.987  12.833  12.260
25321W        W29389   5.277  11.475  13.724
25322W        W29390   6.949  11.184  11.151
25323W        W29391   7.042  12.930  14.250
25324W        W29392   5.696  14.187  14.402
25325W        W29393   7.254  13.281  13.924
25326W        W29394   6.662  14.079  14.535
25327W        W29395   4.401  14.535  13.013
25328W        W29396   7.260  13.157  11.887
25329W        W29397   5.790  12.424  12.400
25330W        W29398   5.557  11.036  12.290
25331W        W29399   4.616  14.020  12.127
25332W        W29400   5.115  11.761  13.352
25333W        W29401   4.815  11.130  12.821
25334W        W29402   3.878  13.952  11.369
25335W        W29403   5.694  13.316  12.087
25336W        W29404   4.569  14.111  13.966
25337W        W29405   4.046  12.934  11.662
25338W        W29406   3.931  11.477  12.661
25339W        W29407   5.479  13.442  12.718
25340W        W29408   3.731  11.296  11.738
25341W        W29409   6.395  12.502  13.665
25342W        W29410   6.272  11.888  11.237
25343W        W29411   6.789  13.560  12.885
25344W        W29412   5.450  14.044  12.716
25345W        W29413   4.862  14.148  11.627
25346W        W29414   6.144  11.051  11.057
25347W        W29415   3.944  14.311  12.798
25348W        W29416   6.141  12.069  14.433
25349W        W29417   4.124  11.599  14.432
25350W        W29418   3.855  12.199  11.765
25351W        W29419   4.546  12.188  11.490
25352W        W29420   6.309  12.515  14.307
25353W        W29421   4.652  12.796  13.016
25354W        W29422   6.126  11.082  12.136
25355W        W29423   5.257  14.513  12.639
25356W        W29424   6.471  13.975  13.576
25357W        W29425   6.055  14.124  12.687
25358W        W29426   6.074  13.104  12.281
25359W        W29427   5.536  11.329  11.352
25360W        W29428   7.217  10.957  12.074
25361W        W29429   4.905  12.592  11.237
25362W        W29430   7.071  11.929  12.227
25363W        W29431   5.763  13.099  11.104
25364W        W29432   6.699  13.299  13.852
25365W        W29433   6.353  14.000  11.319
25366W        W29434   4.968  11.675  14.225
25367W        W29435   4.788  12.259  13.466
25368W        W29436   6.880  13.754  13.743
25369W        W29437   5.980  11.704  14.120
25370W        W29438   3.824  12.175  13.897
25371W        W29439   5.584  12.652  13.623
25372W        W29440   3.941  13.410  12.280
25373W        W29441   4.088  12.707  13.170
25374W        W29442   6.405  12.993  13.520
25375W        W29443   6.177  14.373  14.331
25376W        W29444   6.073  12.112  13.884
25377W        W29445   6.350  14.166  12.289
25378W        W29446   5.352  13.886  13.612
25379W        W29447   4.837  14.241  12.881
25380W        W29448   6.642  13.412  13.300
25381W        W29449   5.692  13.484  14.437
25382W        W29450   4.297  13.437  12.776
25383W        W29451   6.643  13.196  12.421
25384W        W29452   6.284  14.262  13.172
25385W        W29453   4.262  13.991  13.042
25386W        W29454   5.283  12.043  14.252
25387W        W29455   5.734  14.209  11.763
25388W        W29456   5.042  13.464  14.401
25389W        W29457   5.168  13.702  11.778
25390W        W29458   4.389  12.442  11.037
25391W        W29459   3.728  14.528  17.936
25392W        W29460   4.104  13.421  17.459
25393W        W29461   6.809  13.151  15.229
25394W        W29462   6.939  14.236  17.256
25395W        W29463   4.857  14.227  14.782
25396W        W29464   4.940  12.379  15.765
25397W        W29465   4.455  12.227  15.929
25398W        W29466   5.446  13.042  15.363
25399W        W29467   5.121  14.134  17.718
25400W        W29468   3.770  11.695  17.681
25401W        W29469   4.532  10.975  17.483
25402W        W29470   6.226  11.363  16.370
25403W        W29471   5.875  12.234  14.940
25404W        W29472   6.445  11.668  18.031
25405W        W29473   3.811  11.460  17.156
25406W        W29474   3.910  14.079  18.177
25407W        W29475   5.432  13.469  14.909
25408W        W29476   3.864  12.252  16.602
25409W        W29477   4.757  12.143  17.839
25410W        W29478   7.216  12.002  16.338
25411W        W29479   6.980  13.045  17.197
25412W        W29480   5.288  12.378  16.224
25413W        W29481   5.834  13.717  16.593
25414W        W29482   4.334  13.151  16.825
25415W        W29483   3.693  12.679  16.396
25416W        W29484   4.729  12.651  17.588
25417W        W29485   7.000  12.434  17.842
25418W        W29486   4.616  13.878  16.287
25419W        W29487   5.737  13.567  17.421
25420W        W29488   4.957  12.207  16.646
25421W        W29489   5.249  12.991  16.289
25422W        W29490   6.246  13.764  18.137
25423W        W29491   5.325  13.084  18.147
25424W        W29492   5.306  12.800  17.625
25425W        W29493   3.715  12.191  18.147
25426W        W29494   6.547  13.726  17.746
25427W        W29495   4.128  11.308  15.744
25428W        W29496   4.655  13.566  16.743
25429W        W29497   7.118  13.349  16.033
25430W        W29498   6.531  11.749  16.600
25431W        W29499   6.816  11.702  14.695
25432W        W29500   5.248  14.210  16.754
25433W        W29501   7.022  13.676  15.192
25434W        W29502   4.151  14.462  14.946
25435W        W29503   4.544  14.508  15.622
25436W        W29504   6.964  12.280  17.323
25437W        W29505   6.369  12.702  15.782
25438W        W29506   6.335  12.390  14.809
25439W        W29507   5.543  13.534  16.949
25440W        W29508   5.349  11.864  16.148
25441W        W29509   5.949  13.951  17.142
25442W        W29510   6.820  12.742  15.564
25443W        W29511   5.722  11.400  15.580
25444W        W29512   4.379  14.094  15.263
25445W        W29513   3.750  11.593  15.862
25446W        W29514   6.536  12.200  16.336
25447W        W29515   3.994  13.817  16.251
25448W        W29516   5.335  14.167  15.121
25449W        W29517   6.727  12.193  14.585
25450W        W29518   3.750  13.951  16.749
25451W        W29519   4.541  13.523  17.229
25452W        W29520   4.914  12.883  15.848
25453W        W29521   4.936  11.288  16.941
25454W        W29522   4.384  12.922  14.706
25455W        W29523   4.039  11.955  14.885
25456W        W29524   4.101  13.911  15.679
25457W        W29525   5.232  13.394  15.927
25458W        W29526   6.564  14.253  17.641
25459W        W29527   5.490  11.895  15.325
25460W        W29528   6.550  12.146  17.695
25461W        W29529   7.263  13.802  15.829
25462W        W29530   5.890  13.094  17.313
25463W        W29531   3.656  12.645  15.519
25464W        W29532   4.767  13.060  17.092
25465W        W29533   5.971  12.324  15.470
25466W        W29534   5.848  12.814  15.574
25467W        W29535   4.191  12.234  17.048
25468W        W29536   4.176  12.110  17.970
25469W        W29537   4.066  11.027  16.129
25470W        W29538   5.834  11.374  16.690
25471W        W29539   5.482  11.559  17.853
25472W        W29540   5.837  11.708  15.031
25473W        W29541   7.020  14.101  17.785
25474W        W29542   5.987  11.182  17.824
25475W        W29543   7.006  13.483  17.946
25476W        W29544   6.436  11.650  17.542
25477W        W29545   6.629  12.722  18.216
25478W        W29546   4.369  14.298  16.202
25479W        W29547   5.027  12.015  15.188
25480W        W29548   4.596  11.299  17.852
25481W        W29549   7.015  12.265  15.478
25482W        W29550   4.758  14.482  17.949
25483W        W29551   4.684  11.018  15.184
25484W        W29552   7.005  11.552  16.219
25485W        W29553   7.155  13.801  14.664
25486W        W29554   4.062  13.004  16.366
25487W        W29555   5.979  11.591  14.596
25488W        W29556   7.113  13.923  16.316
25489W        W29557   7.152  11.117  17.066
25490W        W29558   5.597  12.329  17.620
25491W        W29559   5.690  13.668  15.323
25492W        W29560   6.090  12.962  18.063
25493W        W29561   5.764  10.939  16.372
25494W        W29562   4.376  11.842  16.435
25495W        W29563   3.930  13.042  17.209
25496W        W29564   5.789  14.235  15.915
25497W        W29565   6.983  11.832  16.787
25498W        W29566   5.620  14.179  17.554
25499W        W29567   6.963  13.238  14.759
25500W        W29568   5.398  12.721  15.820
25501W        W29569   7.250  11.232  17.561
25502W        W29570   5.399  13.067  17.155
25503W        W29571   5.616  11.953  16.600
25504W        W29572   6.468  12.251  15.438
25505W        W29573   6.755  11.984  15.080
25506W        W29574   6.564  14.024  15.469
25507W        W29575   6.398  13.627  16.265
25508W        W29576   6.294  12.706  15.243
25509W        W29577   5.727  12.916  16.229
25510W        W29578   6.608  12.704  16.296
25511W        W29579   3.983  11.719  16.720
25512W        W29580   6.761  12.771  17.547
25513W        W29581   7.112  14.389  16.693
25514W        W29582   5.042  13.833  16.095
25515W        W29583   6.049  14.366  17.419
25516W        W29584   6.043  11.696  17.183
25517W        W29585   5.250  14.404  17.244
25518W        W29586   3.721  11.998  17.049
25519W        W29587   6.992  11.944  17.844
25520W        W29588   5.877  13.643  16.062
25521W        W29589   5.133  14.234  15.675
25522W        W29590   4.248  11.414  14.933
25523W        W29591   5.352  11.068  16.743
25524W        W29592   4.380  14.188  14.591
25525W        W29593   4.754  12.654  15.342
25526W        W29594   5.408  13.283  17.655
25527W        W29595   5.238  11.641  15.645
25528W        W29596   6.594  11.238  16.073
25529W        W29597   6.314  14.520  16.401
25530W        W29598   5.726  14.168  16.741
25531W        W29599   5.122  13.205  16.702
25532W        W29600   6.892  13.928  16.828
25533W        W29601   4.586  11.431  15.597
25534W        W29602   5.108  13.728  16.557
25535W        W29603   4.591  11.659  14.622
25536W        W29604   5.392  12.268  17.016
25537W        W29605   6.240  11.134  16.886
25538W        W29606   3.660  12.977  16.771
25539W        W29607   5.364  12.795  14.929
25540W        W29608   4.632  11.110  14.699
25541W        W29609   5.370  12.191  15.750
25542W        W29610   6.340  11.167  17.449
25543W        W29611   4.928  13.179  17.558
25544W        W29612   5.732  12.961  17.775
25545W        W29613   6.349  12.991  17.668
25546W        W29614   4.855  11.747  16.566
25547W        W29615   4.281  11.703  15.964
25548W        W29616   4.067  14.415  15.640
25549W        W29617   5.399  13.745  17.765
25550W        W29618   4.434  13.230  15.124
25551W        W29619   6.114  12.615  16.345
25552W        W29620   6.394  12.414  16.744
25553W        W29621   5.599  13.088  16.678
25554W        W29622   6.069  13.462  14.810
25555W        W29623   5.741  11.483  16.138
25556W        W29624   7.220  11.761  15.406
25557W        W29625   3.714  14.350  17.437
25558W        W29626   4.131  13.576  16.969
25559W        W29627   3.698  14.422  15.201
25560W        W29628   5.597  11.692  17.007
25561W        W29629   4.960  13.715  14.856
25562W        W29630   6.865  14.097  15.042
25563W        W29631   5.840  12.750  15.056
25564W        W29632   4.683  11.941  15.573
25565W        W29633   5.515  11.851  14.625
25566W        W29634   6.099  13.416  17.803
25567W        W29635   6.452  11.322  15.420
25568W        W29636   3.782  11.170  14.868
25569W        W29637   5.068  13.489  17.158
25570W        W29638   4.867  13.405  16.250
25571W        W29639   4.609  13.357  14.648
25572W        W29640   3.850  13.598  15.416
25573W        W29641   4.354  12.668  17.858
25574W        W29642   5.058  11.228  18.044
25575W        W29643   5.767  11.370  17.400
25576W        W29644   4.962  11.138  15.681
25577W        W29645   6.021  11.215  15.186
25578W        W29646   4.014  12.110  16.133
25579W        W29647   6.703  11.218  16.539
25580W        W29648   4.125  11.716  15.353
25581W        W29649   6.696  11.404  16.969
25582W        W29650   7.092  12.607  14.654
25583W        W29651   4.384  11.365  16.473
25584W        W29652   5.498  11.937  17.413
25585W        W29653   3.646  11.627  14.891
25586W        W29654   4.432  13.016  17.452
25587W        W29655   5.790  12.414  16.631
25588W        W29656   5.657  14.493  14.927
25589W        W29657   3.803  13.000  14.624
25590W        W29658   4.538  13.411  17.750
25591W        W29659   4.059  12.578  17.381
25592W        W29660   5.050  12.683  17.175
25593W        W29661   6.818  11.042  17.437
25594W        W29662   7.216  12.652  17.428
25595W        W29663   7.204  12.852  15.114
25596W        W29664   6.067  13.184  15.213
25597W        W29665   6.541  14.484  14.908
25598W        W29666   5.718  12.474  18.050
25599W        W29667   4.048  13.441  18.090
25600W        W29668   7.254  11.363  18.042
25601W        W29669   5.280  14.421  18.140
25602W        W29670   5.135  11.050  14.867
25603W        W29671   6.674  13.649  14.810
25604W        W29672   4.443  11.742  17.696
25605W        W29673   4.877  13.736  17.558
25606W        W29674   7.003  11.727  17.356
25607W        W29675   6.214  14.386  15.324
25608W        W29676   6.453  13.005  16.691
25609W        W29677   4.703  11.421  17.358
25610W        W29678   5.172  12.490  18.115
25611W        W29679   4.675  13.669  15.309
25612W        W29680   6.430  13.167  15.573
25613W        W29681   4.198  11.793  17.297
25614W        W29682   5.527  13.855  15.761
25615W        W29683   7.277  12.415  15.942
25616W        W29684   5.499  11.048  17.661
25617W        W29685   6.279  13.753  16.740
25618W        W29686   5.801  13.899  14.876
25619W        W29687   3.811  13.791  17.718
25620W        W29688   4.554  11.783  16.956
25621W        W29689   4.524  11.131  16.066
25622W        W29690   6.145  11.973  16.758
25623W        W29691   4.943  13.144  14.958
25624W        W29692   6.941  13.086  16.457
25625W        W29693   4.268  13.844  17.880
25626W        W29694   6.655  14.526  15.677
25627W        W29695   4.754  11.546  16.122
25628W        W29696   4.523  13.039  16.212
25629W        W29697   4.836  14.450  16.962
25630W        W29698   6.903  14.546  17.994
25631W        W29699   6.062  12.734  16.927
25632W        W29700   3.911  12.532  14.842
25633W        W29701   6.882  11.514  15.158
25634W        W29702   5.021  11.033  17.561
25635W        W29703   6.727  13.835  16.019
25636W        W29704   4.873  12.064  16.140
25637W        W29705   5.118  12.326  17.464
25638W        W29706   6.229  13.479  17.327
25639W        W29707   4.879  11.933  17.439
25640W        W29708   4.858  14.399  16.055
25641W        W29709   4.175  14.358  17.689
25642W        W29710   4.287  13.719  14.819
25643W        W29711   6.804  13.477  15.629
25644W        W29712   4.408  12.269  17.515
25645W        W29713   7.181  12.199  14.996
25646W        W29714   4.926  13.256  15.467
25647W        W29715   6.025  12.638  17.548
25648W        W29716   5.916  12.266  17.092
25649W        W29717   4.476  12.638  17.121
25650W        W29718   6.686  14.526  16.950
25651W        W29719   6.477  11.160  17.944
25652W        W29720   4.141  11.310  17.531
25653W        W29721   4.480  12.333  16.584
25654W        W29722   4.849  12.147  14.706
25655W        W29723   3.652  13.906  17.251
25656W        W29724   5.237  12.615  16.694
25657W        W29725   5.060  11.640  14.799
25658W        W29726   4.195  12.456  15.580
25659W        W29727   3.966  14.308  17.017
25660W        W29728   6.761  12.534  15.125
25661W        W29729   6.856  11.450  17.811
25662W        W29730   6.292  13.659  15.774
25663W        W29731   3.890  12.583  17.951
25664W        W29732   6.856  11.047  15.247
25665W        W29733   6.376  13.522  15.258
25666W        W29734   5.278  12.580  15.343
25667W        W29735   6.465  11.384  14.866
25668W        W29736   6.530  11.991  17.052
25669W        W29737   4.239  12.584  16.259
25670W        W29738   4.533  13.523  15.908
25671W        W29739   6.296  12.143  15.873
25672W        W29740   5.319  11.522  16.569
25673W        W29741   7.281  13.433  17.080
25674W        W29742   7.199  11.420  16.641
25675W        W29743   3.738  14.250  16.017
25676W        W29744   4.247  13.437  15.553
25677W        W29745   4.162  11.054  18.106
25678W        W29746   5.281  13.907  18.208
25679W        W29747   7.036  12.875  15.998
25680W        W29748   6.390  13.052  14.878
25681W        W29749   5.685  14.573  17.090
25682W        W29750   6.542  13.295  18.127
25683W        W29751   5.357  11.005  15.407
25684W        W29752   6.070  11.874  16.266
25685W        W29753   3.756  13.461  16.598
25686W        W29754   5.009  11.423  15.239
25687W        W29755   4.813  12.907  18.088
25688W        W29756   5.807  11.888  15.802
25689W        W29757   6.012  13.298  16.924
25690W        W29758   4.166  13.903  17.359
25691W        W29759   4.757  13.886  18.082
25692W        W29760   4.608  11.683  15.096
25693W        W29761   6.125  11.825  15.421
25694W        W29762   6.083  13.933  17.658
25695W        W29763   4.768  12.525  16.257
25696W        W29764   4.423  14.223  17.122
25697W        W29765   7.168  14.340  14.723
25698W        W29766   4.031  13.012  17.719
25699W        W29767   6.026  13.274  16.407
25700W        W29768   4.462  12.923  15.649
25701W        W29769   4.833  13.930  17.044
25702W        W29770   5.211  11.349  16.085
25703W        W29771   3.822  13.333  15.015
25704W        W29772   5.341  12.284  14.885
25705W        W29773   3.987  12.833  15.904
25706W        W29774   5.277  11.475  17.368
25707W        W29775   6.949  11.184  14.795
25708W        W29776   7.042  12.930  17.894
25709W        W29777   5.696  14.187  18.046
25710W        W29778   7.254  13.281  17.568
25711W        W29779   6.662  14.079  18.179
25712W        W29780   4.401  14.535  16.657
25713W        W29781   7.260  13.157  15.531
25714W        W29782   5.790  12.424  16.044
25715W        W29783   5.557  11.036  15.934
25716W        W29784   4.616  14.020  15.771
25717W        W29785   5.115  11.761  16.996
25718W        W29786   4.815  11.130  16.465
25719W        W29787   3.878  13.952  15.013
25720W        W29788   5.694  13.316  15.731
25721W        W29789   4.569  14.111  17.610
25722W        W29790   4.046  12.934  15.306
25723W        W29791   5.479  13.442  16.362
25724W        W29792   3.731  11.296  15.382
25725W        W29793   6.395  12.502  17.309
25726W        W29794   6.272  11.888  14.881
25727W        W29795   6.789  13.560  16.529
25728W        W29796   5.450  14.044  16.360
25729W        W29797   4.862  14.148  15.271
25730W        W29798   6.144  11.051  14.701
25731W        W29799   3.944  14.311  16.442
25732W        W29800   6.141  12.069  18.077
25733W        W29801   4.124  11.599  18.076
25734W        W29802   3.855  12.199  15.409
25735W        W29803   4.546  12.188  15.134
25736W        W29804   6.309  12.515  17.951
25737W        W29805   4.652  12.796  16.660
25738W        W29806   6.126  11.082  15.780
25739W        W29807   5.257  14.513  16.283
25740W        W29808   6.471  13.975  17.220
25741W        W29809   6.055  14.124  16.331
25742W        W29810   6.074  13.104  15.925
25743W        W29811   5.536  11.329  14.996
25744W        W29812   7.217  10.957  15.718
25745W        W29813   4.905  12.592  14.881
25746W        W29814   5.763  13.099  14.748
25747W        W29815   6.699  13.299  17.496
25748W        W29816   6.353  14.000  14.963
25749W        W29817   4.968  11.675  17.869
25750W        W29818   4.788  12.259  17.110
25751W        W29819   6.880  13.754  17.387
25752W        W29820   5.980  11.704  17.764
25753W        W29821   3.824  12.175  17.541
25754W        W29822   5.584  12.652  17.267
25755W        W29823   3.941  13.410  15.924
25756W        W29824   4.088  12.707  16.814
25757W        W29825   6.405  12.993  17.164
25758W        W29826   6.177  14.373  17.975
25759W        W29827   6.073  12.112  17.528
25760W        W29828   6.350  14.166  15.933
25761W        W29829   5.352  13.886  17.256
25762W        W29830   4.837  14.241  16.525
25763W        W29831   6.642  13.412  16.944
25764W        W29832   5.692  13.484  18.081
25765W        W29833   4.297  13.437  16.420
25766W        W29834   6.643  13.196  16.065
25767W        W29835   6.284  14.262  16.816
25768W        W29836   4.262  13.991  16.686
25769W        W29837   5.283  12.043  17.896
25770W        W29838   5.734  14.209  15.407
25771W        W29839   5.042  13.464  18.045
25772W        W29840   5.168  13.702  15.422
25773W        W29841   4.389  12.442  14.681
25774W        W29842   3.728  14.528  21.580
25775W        W29843   4.104  13.421  21.103
25776W        W29844   6.809  13.151  18.873
25777W        W29845   6.939  14.236  20.900
25778W        W29846   4.857  14.227  18.426
25779W        W29847   4.940  12.379  19.409
25780W        W29848   4.455  12.227  19.573
25781W        W29849   5.446  13.042  19.007
25782W        W29850   5.121  14.134  21.362
25783W        W29851   3.770  11.695  21.325
25784W        W29852   4.532  10.975  21.127
25785W        W29853   6.226  11.363  20.014
25786W        W29854   5.875  12.234  18.584
25787W        W29855   6.445  11.668  21.675
25788W        W29856   3.811  11.460  20.800
25789W        W29857   3.910  14.079  21.821
25790W        W29858   5.432  13.469  18.553
25791W        W29859   3.864  12.252  20.246
25792W        W29860   4.757  12.143  21.483
25793W        W29861   7.216  12.002  19.982
25794W        W29862   6.980  13.045  20.841
25795W        W29863   5.288  12.378  19.868
25796W        W29864   5.834  13.717  20.237
25797W        W29865   4.334  13.151  20.469
25798W        W29866   3.693  12.679  20.040
25799W        W29867   4.729  12.651  21.232
25800W        W29868   7.000  12.434  21.486
25801W        W29869   4.616  13.878  19.931
25802W        W29870   5.737  13.567  21.065
25803W        W29871   4.957  12.207  20.290
25804W        W29872   5.249  12.991  19.933
25805W        W29873   6.246  13.764  21.781
25806W        W29874   5.325  13.084  21.791
25807W        W29875   5.306  12.800  21.269
25808W        W29876   3.715  12.191  21.791
25809W        W29877   6.547  13.726  21.390
25810W        W29878   4.128  11.308  19.388
25811W        W29879   4.655  13.566  20.387
25812W        W29880   7.118  13.349  19.677
25813W        W29881   6.531  11.749  20.244
25814W        W29882   6.816  11.702  18.339
25815W        W29883   7.281  12.503  20.645
25816W        W29884   5.248  14.210  20.398
25817W        W29885   7.022  13.676  18.836
25818W        W29886   4.151  14.462  18.590
25819W        W29887   4.544  14.508  19.266
25820W        W29888   4.341  11.262  20.692
25821W        W29889   6.964  12.280  20.967
25822W        W29890   6.369  12.702  19.426
25823W        W29891   6.335  12.390  18.453
25824W        W29892   5.543  13.534  20.593
25825W        W29893   5.349  11.864  19.792
25826W        W29894   5.949  13.951  20.786
25827W        W29895   6.820  12.742  19.208
25828W        W29896   5.722  11.400  19.224
25829W        W29897   4.379  14.094  18.907
25830W        W29898   3.750  11.593  19.506
25831W        W29899   6.536  12.200  19.980
25832W        W29900   3.994  13.817  19.895
25833W        W29901   5.335  14.167  18.765
25834W        W29902   6.727  12.193  18.229
25835W        W29903   3.750  13.951  20.393
25836W        W29904   4.541  13.523  20.873
25837W        W29905   4.914  12.883  19.492
25838W        W29906   4.936  11.288  20.585
25839W        W29907   7.165  11.050  19.882
25840W        W29908   4.384  12.922  18.350
25841W        W29909   4.039  11.955  18.529
25842W        W29910   4.101  13.911  19.323
25843W        W29911   5.232  13.394  19.571
25844W        W29912   6.564  14.253  21.285
25845W        W29913   5.490  11.895  18.969
25846W        W29914   6.873  14.293  19.741
25847W        W29915   6.550  12.146  21.339
25848W        W29916   7.263  13.802  19.473
25849W        W29917   5.890  13.094  20.957
25850W        W29918   3.656  12.645  19.163
25851W        W29919   4.767  13.060  20.736
25852W        W29920   5.971  12.324  19.114
25853W        W29921   5.848  12.814  19.218
25854W        W29922   4.191  12.234  20.692
25855W        W29923   4.176  12.110  21.614
25856W        W29924   4.066  11.027  19.773
25857W        W29925   5.834  11.374  20.334
25858W        W29926   5.482  11.559  21.497
25859W        W29927   5.837  11.708  18.675
25860W        W29928   7.020  14.101  21.429
25861W        W29929   5.987  11.182  21.468
25862W        W29930   7.006  13.483  21.590
25863W        W29931   6.436  11.650  21.186
25864W        W29932   6.236  11.588  19.456
25865W        W29933   6.629  12.722  21.860
25866W        W29934   4.369  14.298  19.846
25867W        W29935   5.027  12.015  18.832
25868W        W29936   4.596  11.299  21.496
25869W        W29937   6.648  11.783  19.177
25870W        W29938   7.015  12.265  19.122
25871W        W29939   4.758  14.482  21.593
25872W        W29940   4.684  11.018  18.828
25873W        W29941   7.005  11.552  19.863
25874W        W29942   7.155  13.801  18.308
25875W        W29943   4.062  13.004  20.010
25876W        W29944   5.979  11.591  18.240
25877W        W29945   7.113  13.923  19.960
25878W        W29946   7.152  11.117  20.710
25879W        W29947   5.597  12.329  21.264
25880W        W29948   5.690  13.668  18.967
25881W        W29949   6.090  12.962  21.707
25882W        W29950   5.764  10.939  20.016
25883W        W29951   4.376  11.842  20.079
25884W        W29952   3.930  13.042  20.853
25885W        W29953   5.789  14.235  19.559
25886W        W29954   6.983  11.832  20.431
25887W        W29955   5.620  14.179  21.198
25888W        W29956   6.963  13.238  18.403
25889W        W29957   5.398  12.721  19.464
25890W        W29958   7.250  11.232  21.205
25891W        W29959   5.399  13.067  20.799
25892W        W29960   5.616  11.953  20.244
25893W        W29961   6.468  12.251  19.082
25894W        W29962   6.755  11.984  18.724
25895W        W29963   6.564  14.024  19.113
25896W        W29964   6.398  13.627  19.909
25897W        W29965   6.294  12.706  18.887
25898W        W29966   5.727  12.916  19.873
25899W        W29967   6.608  12.704  19.940
25900W        W29968   3.983  11.719  20.364
25901W        W29969   6.761  12.771  21.191
25902W        W29970   7.112  14.389  20.337
25903W        W29971   5.042  13.833  19.739
25904W        W29972   6.049  14.366  21.063
25905W        W29973   6.043  11.696  20.827
25906W        W29974   5.250  14.404  20.888
25907W        W29975   6.947  11.358  19.354
25908W        W29976   6.738  12.677  20.655
25909W        W29977   3.721  11.998  20.693
25910W        W29978   6.581  11.793  19.711
25911W        W29979   6.992  11.944  21.488
25912W        W29980   5.877  13.643  19.706
25913W        W29981   5.133  14.234  19.319
25914W        W29982   4.248  11.414  18.577
25915W        W29983   5.352  11.068  20.387
25916W        W29984   4.380  14.188  18.235
25917W        W29985   4.754  12.654  18.986
25918W        W29986   5.408  13.283  21.299
25919W        W29987   5.238  11.641  19.289
25920W        W29988   6.594  11.238  19.717
25921W        W29989   6.314  14.520  20.045
25922W        W29990   5.726  14.168  20.385
25923W        W29991   5.122  13.205  20.346
25924W        W29992   6.892  13.928  20.472
25925W        W29993   4.586  11.431  19.241
25926W        W29994   5.108  13.728  20.201
25927W        W29995   4.591  11.659  18.266
25928W        W29996   5.392  12.268  20.660
25929W        W29997   6.240  11.134  20.530
25930W        W29998   3.660  12.977  20.415
25931W        W29999   5.364  12.795  18.573
25932W        W30000   4.632  11.110  18.343
25933W        W30001   5.370  12.191  19.394
25934W        W30002   6.340  11.167  21.093
25935W        W30003   4.928  13.179  21.202
25936W        W30004   5.732  12.961  21.419
25937W        W30005   6.349  12.991  21.312
25938W        W30006   5.633  11.131  21.817
25939W        W30007   4.855  11.747  20.210
25940W        W30008   4.281  11.703  19.608
25941W        W30009   4.067  14.415  19.284
25942W        W30010   5.399  13.745  21.409
25943W        W30011   4.434  13.230  18.768
25944W        W30012   6.114  12.615  19.989
25945W        W30013   6.394  12.414  20.388
25946W        W30014   5.599  13.088  20.322
25947W        W30015   6.069  13.462  18.454
25948W        W30016   5.741  11.483  19.782
25949W        W30017   7.220  11.761  19.050
25950W        W30018   3.714  14.350  21.081
25951W        W30019   4.131  13.576  20.613
25952W        W30020   3.698  14.422  18.845
25953W        W30021   5.597  11.692  20.651
25954W        W30022   4.960  13.715  18.500
25955W        W30023   6.865  14.097  18.686
25956W        W30024   5.840  12.750  18.700
25957W        W30025   4.683  11.941  19.217
25958W        W30026   5.515  11.851  18.269
25959W        W30027   6.099  13.416  21.447
25960W        W30028   6.452  11.322  19.064
25961W        W30029   3.782  11.170  18.512
25962W        W30030   5.068  13.489  20.802
25963W        W30031   4.867  13.405  19.894
25964W        W30032   4.609  13.357  18.292
25965W        W30033   3.850  13.598  19.060
25966W        W30034   4.354  12.668  21.502
25967W        W30035   5.058  11.228  21.688
25968W        W30036   5.767  11.370  21.044
25969W        W30037   6.021  11.215  18.830
25970W        W30038   3.966  11.147  20.407
25971W        W30039   4.014  12.110  19.777
25972W        W30040   6.703  11.218  20.183
25973W        W30041   4.125  11.716  18.997
25974W        W30042   6.696  11.404  20.613
25975W        W30043   7.092  12.607  18.298
25976W        W30044   4.384  11.365  20.117
25977W        W30045   5.498  11.937  21.057
25978W        W30046   3.646  11.627  18.535
25979W        W30047   4.432  13.016  21.096
25980W        W30048   5.790  12.414  20.275
25981W        W30049   5.657  14.493  18.571
25982W        W30050   3.803  13.000  18.268
25983W        W30051   4.538  13.411  21.394
25984W        W30052   4.059  12.578  21.025
25985W        W30053   5.050  12.683  20.819
25986W        W30054   6.818  11.042  21.081
25987W        W30055   7.216  12.652  21.072
25988W        W30056   7.204  12.852  18.758
25989W        W30057   6.067  13.184  18.857
25990W        W30058   6.541  14.484  18.552
25991W        W30059   5.718  12.474  21.694
25992W        W30060   4.048  13.441  21.734
25993W        W30061   7.254  11.363  21.686
25994W        W30062   6.972  12.291  20.307
25995W        W30063   5.280  14.421  21.784
25996W        W30064   6.674  13.649  18.454
25997W        W30065   4.443  11.742  21.340
25998W        W30066   4.877  13.736  21.202
25999W        W30067   7.003  11.727  21.000
26000W        W30068   6.214  14.386  18.968
26001W        W30069   6.453  13.005  20.335
26002W        W30070   4.703  11.421  21.002
26003W        W30071   5.172  12.490  21.759
26004W        W30072   4.675  13.669  18.953
26005W        W30073   6.430  13.167  19.217
26006W        W30074   4.198  11.793  20.941
26007W        W30075   5.527  13.855  19.405
26008W        W30076   7.277  12.415  19.586
26009W        W30077   5.499  11.048  21.305
26010W        W30078   6.279  13.753  20.384
26011W        W30079   6.582  14.097  20.092
26012W        W30080   5.801  13.899  18.520
26013W        W30081   3.811  13.791  21.362
26014W        W30082   4.554  11.783  20.600
26015W        W30083   4.524  11.131  19.710
26016W        W30084   6.145  11.973  20.402
26017W        W30085   4.943  13.144  18.602
26018W        W30086   6.941  13.086  20.101
26019W        W30087   4.268  13.844  21.524
26020W        W30088   6.655  14.526  19.321
26021W        W30089   4.754  11.546  19.766
26022W        W30090   4.523  13.039  19.856
26023W        W30091   4.836  14.450  20.606
26024W        W30092   6.903  14.546  21.638
26025W        W30093   6.062  12.734  20.571
26026W        W30094   3.911  12.532  18.486
26027W        W30095   7.045  14.190  19.183
26028W        W30096   6.882  11.514  18.802
26029W        W30097   5.021  11.033  21.205
26030W        W30098   6.727  13.835  19.663
26031W        W30099   6.756  12.391  19.568
26032W        W30100   4.873  12.064  19.784
26033W        W30101   5.118  12.326  21.108
26034W        W30102   6.229  13.479  20.971
26035W        W30103   4.879  11.933  21.083
26036W        W30104   4.858  14.399  19.699
26037W        W30105   4.175  14.358  21.333
26038W        W30106   4.287  13.719  18.463
26039W        W30107   6.804  13.477  19.273
26040W        W30108   4.408  12.269  21.159
26041W        W30109   7.181  12.199  18.640
26042W        W30110   4.926  13.256  19.111
26043W        W30111   6.025  12.638  21.192
26044W        W30112   5.916  12.266  20.736
26045W        W30113   4.476  12.638  20.765
26046W        W30114   6.686  14.526  20.594
26047W        W30115   6.477  11.160  21.588
26048W        W30116   4.141  11.310  21.175
26049W        W30117   4.480  12.333  20.228
26050W        W30118   4.849  12.147  18.350
26051W        W30119   3.652  13.906  20.895
26052W        W30120   5.237  12.615  20.338
26053W        W30121   5.060  11.640  18.443
26054W        W30122   4.195  12.456  19.224
26055W        W30123   3.966  14.308  20.661
26056W        W30124   6.761  12.534  18.769
26057W        W30125   6.856  11.450  21.455
26058W        W30126   6.292  13.659  19.418
26059W        W30127   3.890  12.583  21.595
26060W        W30128   6.856  11.047  18.891
26061W        W30129   6.376  13.522  18.902
26062W        W30130   5.278  12.580  18.987
26063W        W30131   6.465  11.384  18.510
26064W        W30132   6.530  11.991  20.696
26065W        W30133   4.239  12.584  19.903
26066W        W30134   4.533  13.523  19.552
26067W        W30135   6.296  12.143  19.517
26068W        W30136   5.319  11.522  20.213
26069W        W30137   7.281  13.433  20.724
26070W        W30138   7.199  11.420  20.285
26071W        W30139   3.738  14.250  19.661
26072W        W30140   4.247  13.437  19.197
26073W        W30141   4.162  11.054  21.750
26074W        W30142   5.281  13.907  21.852
26075W        W30143   7.036  12.875  19.642
26076W        W30144   6.390  13.052  18.522
26077W        W30145   5.685  14.573  20.734
26078W        W30146   6.542  13.295  21.771
26079W        W30147   6.070  11.874  19.910
26080W        W30148   3.756  13.461  20.242
26081W        W30149   5.009  11.423  18.883
26082W        W30150   4.813  12.907  21.732
26083W        W30151   5.807  11.888  19.446
26084W        W30152   6.012  13.298  20.568
26085W        W30153   4.166  13.903  21.003
26086W        W30154   4.757  13.886  21.726
26087W        W30155   4.608  11.683  18.740
26088W        W30156   6.125  11.825  19.065
26089W        W30157   6.083  13.933  21.302
26090W        W30158   4.768  12.525  19.901
26091W        W30159   4.423  14.223  20.766
26092W        W30160   7.168  14.340  18.367
26093W        W30161   4.031  13.012  21.363
26094W        W30162   6.026  13.274  20.051
26095W        W30163   4.462  12.923  19.293
26096W        W30164   4.833  13.930  20.688
26097W        W30165   5.211  11.349  19.729
26098W        W30166   3.822  13.333  18.659
26099W        W30167   5.341  12.284  18.529
26100W        W30168   3.987  12.833  19.548
26101W        W30169   5.277  11.475  21.012
26102W        W30170   6.949  11.184  18.439
26103W        W30171   7.042  12.930  21.538
26104W        W30172   5.696  14.187  21.690
26105W        W30173   7.254  13.281  21.212
26106W        W30174   6.662  14.079  21.823
26107W        W30175   4.401  14.535  20.301
26108W        W30176   7.260  13.157  19.175
26109W        W30177   5.790  12.424  19.688
26110W        W30178   5.557  11.036  19.578
26111W        W30179   4.616  14.020  19.415
26112W        W30180   5.115  11.761  20.640
26113W        W30181   4.815  11.130  20.109
26114W        W30182   3.878  13.952  18.657
26115W        W30183   5.694  13.316  19.375
26116W        W30184   4.569  14.111  21.254
26117W        W30185   4.046  12.934  18.950
26118W        W30186   3.931  11.477  19.949
26119W        W30187   5.479  13.442  20.006
26120W        W30188   3.731  11.296  19.026
26121W        W30189   6.395  12.502  20.953
26122W        W30190   6.272  11.888  18.525
26123W        W30191   6.789  13.560  20.173
26124W        W30192   5.450  14.044  20.004
26125W        W30193   4.862  14.148  18.915
26126W        W30194   6.144  11.051  18.345
26127W        W30195   3.944  14.311  20.086
26128W        W30196   6.141  12.069  21.721
26129W        W30197   4.124  11.599  21.720
26130W        W30198   3.855  12.199  19.053
26131W        W30199   4.546  12.188  18.778
26132W        W30200   6.309  12.515  21.595
26133W        W30201   4.652  12.796  20.304
26134W        W30202   6.126  11.082  19.424
26135W        W30203   5.257  14.513  19.927
26136W        W30204   6.471  13.975  20.864
26137W        W30205   6.055  14.124  19.975
26138W        W30206   6.074  13.104  19.569
26139W        W30207   5.536  11.329  18.640
26140W        W30208   7.217  10.957  19.362
26141W        W30209   4.905  12.592  18.525
26142W        W30210   7.071  11.929  19.515
26143W        W30211   5.763  13.099  18.392
26144W        W30212   6.699  13.299  21.140
26145W        W30213   6.353  14.000  18.607
26146W        W30214   4.968  11.675  21.513
26147W        W30215   4.788  12.259  20.754
26148W        W30216   6.880  13.754  21.031
26149W        W30217   5.980  11.704  21.408
26150W        W30218   3.824  12.175  21.185
26151W        W30219   5.584  12.652  20.911
26152W        W30220   3.941  13.410  19.568
26153W        W30221   4.088  12.707  20.458
26154W        W30222   6.405  12.993  20.808
26155W        W30223   6.177  14.373  21.619
26156W        W30224   6.073  12.112  21.172
26157W        W30225   6.350  14.166  19.577
26158W        W30226   5.352  13.886  20.900
26159W        W30227   4.837  14.241  20.169
26160W        W30228   6.642  13.412  20.588
26161W        W30229   5.692  13.484  21.725
26162W        W30230   4.297  13.437  20.064
26163W        W30231   6.643  13.196  19.709
26164W        W30232   6.284  14.262  20.460
26165W        W30233   4.262  13.991  20.330
26166W        W30234   5.283  12.043  21.540
26167W        W30235   5.734  14.209  19.051
26168W        W30236   5.042  13.464  21.689
26169W        W30237   5.168  13.702  19.066
26170W        W30238   4.389  12.442  18.325
26171W        W30239   6.809  13.151  22.518
26172W        W30240   4.857  14.227  22.071
26173W        W30241   4.940  12.379  23.054
26174W        W30242   4.455  12.227  23.218
26175W        W30243   5.446  13.042  22.652
26176W        W30244   5.875  12.234  22.229
26177W        W30245   5.432  13.469  22.198
26178W        W30246   4.128  11.308  23.033
26179W        W30247   6.816  11.702  21.984
26180W        W30248   7.022  13.676  22.481
26181W        W30249   4.151  14.462  22.235
26182W        W30250   4.544  14.508  22.911
26183W        W30251   6.369  12.702  23.071
26184W        W30252   6.335  12.390  22.098
26185W        W30253   6.820  12.742  22.853
26186W        W30254   5.722  11.400  22.869
26187W        W30255   4.379  14.094  22.552
26188W        W30256   5.335  14.167  22.410
26189W        W30257   6.727  12.193  21.874
26190W        W30258   4.914  12.883  23.137
26191W        W30259   4.384  12.922  21.995
26192W        W30260   4.039  11.955  22.174
26193W        W30261   4.101  13.911  22.968
26194W        W30262   5.232  13.394  23.216
26195W        W30263   5.490  11.895  22.614
26196W        W30264   3.656  12.645  22.808
26197W        W30265   5.971  12.324  22.759
26198W        W30266   5.848  12.814  22.863
26199W        W30267   5.837  11.708  22.320
26200W        W30268   6.236  11.588  23.101
26201W        W30269   5.027  12.015  22.477
26202W        W30270   6.648  11.783  22.822
26203W        W30271   7.015  12.265  22.767
26204W        W30272   4.684  11.018  22.473
26205W        W30273   7.155  13.801  21.953
26206W        W30274   5.979  11.591  21.885
26207W        W30275   5.690  13.668  22.612
26208W        W30276   5.789  14.235  23.204
26209W        W30277   6.963  13.238  22.048
26210W        W30278   5.398  12.721  23.109
26211W        W30279   6.468  12.251  22.727
26212W        W30280   6.755  11.984  22.369
26213W        W30281   6.564  14.024  22.758
26214W        W30282   6.294  12.706  22.532
26215W        W30283   6.947  11.358  22.999
26216W        W30284   5.133  14.234  22.964
26217W        W30285   4.248  11.414  22.222
26218W        W30286   4.380  14.188  21.880
26219W        W30287   4.754  12.654  22.631
26220W        W30288   5.238  11.641  22.934
26221W        W30289   4.586  11.431  22.886
26222W        W30290   4.591  11.659  21.911
26223W        W30291   5.364  12.795  22.218
26224W        W30292   4.632  11.110  21.988
26225W        W30293   5.370  12.191  23.039
26226W        W30294   4.281  11.703  23.253
26227W        W30295   4.067  14.415  22.929
26228W        W30296   4.434  13.230  22.413
26229W        W30297   6.069  13.462  22.099
26230W        W30298   7.220  11.761  22.695
26231W        W30299   3.698  14.422  22.490
26232W        W30300   4.960  13.715  22.145
26233W        W30301   6.865  14.097  22.331
26234W        W30302   5.840  12.750  22.345
26235W        W30303   4.683  11.941  22.862
26236W        W30304   5.515  11.851  21.914
26237W        W30305   6.452  11.322  22.709
26238W        W30306   3.782  11.170  22.157
26239W        W30307   4.609  13.357  21.937
26240W        W30308   3.850  13.598  22.705
26241W        W30309   4.962  11.138  22.970
26242W        W30310   6.021  11.215  22.475
26243W        W30311   4.125  11.716  22.642
26244W        W30312   7.092  12.607  21.943
26245W        W30313   3.646  11.627  22.180
26246W        W30314   5.657  14.493  22.216
26247W        W30315   3.803  13.000  21.913
26248W        W30316   7.204  12.852  22.403
26249W        W30317   6.067  13.184  22.502
26250W        W30318   6.541  14.484  22.197
26251W        W30319   5.135  11.050  22.156
26252W        W30320   6.674  13.649  22.099
26253W        W30321   6.214  14.386  22.613
26254W        W30322   4.675  13.669  22.598
26255W        W30323   6.430  13.167  22.862
26256W        W30324   5.527  13.855  23.050
26257W        W30325   7.277  12.415  23.231
26258W        W30326   5.801  13.899  22.165
26259W        W30327   4.943  13.144  22.247
26260W        W30328   6.655  14.526  22.966
26261W        W30329   3.911  12.532  22.131
26262W        W30330   7.045  14.190  22.828
26263W        W30331   6.882  11.514  22.447
26264W        W30332   6.756  12.391  23.213
26265W        W30333   4.287  13.719  22.108
26266W        W30334   6.804  13.477  22.918
26267W        W30335   7.181  12.199  22.285
26268W        W30336   4.926  13.256  22.756
26269W        W30337   4.849  12.147  21.995
26270W        W30338   5.060  11.640  22.088
26271W        W30339   4.195  12.456  22.869
26272W        W30340   6.761  12.534  22.414
26273W        W30341   6.292  13.659  23.063
26274W        W30342   6.856  11.047  22.536
26275W        W30343   6.376  13.522  22.547
26276W        W30344   5.278  12.580  22.632
26277W        W30345   6.465  11.384  22.155
26278W        W30346   4.533  13.523  23.197
26279W        W30347   6.296  12.143  23.162
26280W        W30348   3.738  14.250  23.306
26281W        W30349   4.247  13.437  22.842
26282W        W30350   7.036  12.875  23.287
26283W        W30351   6.390  13.052  22.167
26284W        W30352   5.357  11.005  22.696
26285W        W30353   5.009  11.423  22.528
26286W        W30354   5.807  11.888  23.091
26287W        W30355   4.608  11.683  22.385
26288W        W30356   6.125  11.825  22.710
26289W        W30357   7.168  14.340  22.012
26290W        W30358   3.822  13.333  22.304
26291W        W30359   5.341  12.284  22.174
26292W        W30360   3.987  12.833  23.193
26293W        W30361   6.949  11.184  22.084
26294W        W30362   7.260  13.157  22.820
26295W        W30363   5.557  11.036  23.223
26296W        W30364   4.616  14.020  23.060
26297W        W30365   3.878  13.952  22.302
26298W        W30366   5.694  13.316  23.020
26299W        W30367   4.046  12.934  22.595
26300W        W30368   3.731  11.296  22.671
26301W        W30369   6.272  11.888  22.170
26302W        W30370   4.862  14.148  22.560
26303W        W30371   6.144  11.051  21.990
26304W        W30372   3.855  12.199  22.698
26305W        W30373   4.546  12.188  22.423
26306W        W30374   6.074  13.104  23.214
26307W        W30375   5.536  11.329  22.285
26308W        W30376   7.217  10.957  23.007
26309W        W30377   4.905  12.592  22.170
26310W        W30378   7.071  11.929  23.160
26311W        W30379   5.763  13.099  22.037
26312W        W30380   6.353  14.000  22.252
26313W        W30381   3.941  13.410  23.213
26314W        W30382   6.350  14.166  23.222
26315W        W30383   5.734  14.209  22.696
26316W        W30384   5.168  13.702  22.711
26317W        W30385   4.389  12.442  21.970
26318W        W30386   3.728  18.172   3.359
26319W        W30387   4.104  17.065   2.882
26320W        W30388   6.809  16.795   0.652
26321W        W30389   6.939  17.880   2.679
26322W        W30390   4.857  17.871   0.205
26323W        W30391   4.940  16.023   1.188
26324W        W30392   4.455  15.871   1.352
26325W        W30393   5.446  16.686   0.786
26326W        W30394   5.121  17.778   3.141
26327W        W30395   3.770  15.339   3.104
26328W        W30396   4.532  14.619   2.906
26329W        W30397   6.226  15.007   1.793
26330W        W30398   5.875  15.878   0.363
26331W        W30399   6.445  15.312   3.454
26332W        W30400   3.811  15.104   2.579
26333W        W30401   3.910  17.723   3.600
26334W        W30402   5.432  17.113   0.332
26335W        W30403   3.864  15.896   2.025
26336W        W30404   4.757  15.787   3.262
26337W        W30405   7.216  15.646   1.761
26338W        W30406   6.980  16.689   2.620
26339W        W30407   5.288  16.022   1.647
26340W        W30408   5.834  17.361   2.016
26341W        W30409   4.334  16.795   2.248
26342W        W30410   3.693  16.323   1.819
26343W        W30411   4.729  16.295   3.011
26344W        W30412   7.000  16.078   3.265
26345W        W30413   4.616  17.522   1.710
26346W        W30414   5.737  17.211   2.844
26347W        W30415   4.957  15.851   2.069
26348W        W30416   5.249  16.635   1.712
26349W        W30417   6.246  17.408   3.560
26350W        W30418   5.325  16.728   3.570
26351W        W30419   5.306  16.444   3.048
26352W        W30420   3.715  15.835   3.570
26353W        W30421   6.547  17.370   3.169
26354W        W30422   4.128  14.952   1.167
26355W        W30423   4.655  17.210   2.166
26356W        W30424   7.118  16.993   1.456
26357W        W30425   6.531  15.393   2.023
26358W        W30426   6.816  15.346   0.118
26359W        W30427   7.281  16.147   2.424
26360W        W30428   5.248  17.854   2.177
26361W        W30429   7.022  17.320   0.615
26362W        W30430   4.151  18.106   0.369
26363W        W30431   4.544  18.152   1.045
26364W        W30432   4.341  14.906   2.471
26365W        W30433   6.964  15.924   2.746
26366W        W30434   6.369  16.346   1.205
26367W        W30435   6.335  16.034   0.232
26368W        W30436   5.543  17.178   2.372
26369W        W30437   5.349  15.508   1.571
26370W        W30438   5.949  17.595   2.565
26371W        W30439   6.820  16.386   0.987
26372W        W30440   5.722  15.044   1.003
26373W        W30441   4.379  17.738   0.686
26374W        W30442   3.750  15.237   1.285
26375W        W30443   6.536  15.844   1.759
26376W        W30444   3.994  17.461   1.674
26377W        W30445   5.335  17.811   0.544
26378W        W30446   6.727  15.837   0.008
26379W        W30447   3.750  17.595   2.172
26380W        W30448   4.541  17.167   2.652
26381W        W30449   4.914  16.527   1.271
26382W        W30450   4.936  14.932   2.364
26383W        W30451   7.165  14.694   1.661
26384W        W30452   4.384  16.566   0.129
26385W        W30453   4.039  15.599   0.308
26386W        W30454   4.101  17.555   1.102
26387W        W30455   5.232  17.038   1.350
26388W        W30456   6.564  17.897   3.064
26389W        W30457   5.490  15.539   0.748
26390W        W30458   6.873  17.937   1.520
26391W        W30459   6.550  15.790   3.118
26392W        W30460   7.263  17.446   1.252
26393W        W30461   5.890  16.738   2.736
26394W        W30462   3.656  16.289   0.942
26395W        W30463   4.767  16.704   2.515
26396W        W30464   5.971  15.968   0.893
26397W        W30465   5.848  16.458   0.997
26398W        W30466   4.191  15.878   2.471
26399W        W30467   4.176  15.754   3.393
26400W        W30468   4.066  14.671   1.552
26401W        W30469   5.834  15.018   2.113
26402W        W30470   5.482  15.203   3.276
26403W        W30471   5.837  15.352   0.454
26404W        W30472   7.020  17.745   3.208
26405W        W30473   5.987  14.826   3.247
26406W        W30474   7.006  17.127   3.369
26407W        W30475   6.436  15.294   2.965
26408W        W30476   6.236  15.232   1.235
26409W        W30477   6.629  16.366   3.639
26410W        W30478   4.369  17.942   1.625
26411W        W30479   5.027  15.659   0.611
26412W        W30480   4.596  14.943   3.275
26413W        W30481   6.648  15.427   0.956
26414W        W30482   7.015  15.909   0.901
26415W        W30483   4.758  18.126   3.372
26416W        W30484   4.684  14.662   0.607
26417W        W30485   7.005  15.196   1.642
26418W        W30486   7.155  17.445   0.087
26419W        W30487   4.062  16.648   1.789
26420W        W30488   5.979  15.235   0.019
26421W        W30489   7.113  17.567   1.739
26422W        W30490   7.152  14.761   2.489
26423W        W30491   5.597  15.973   3.043
26424W        W30492   5.690  17.312   0.746
26425W        W30493   6.090  16.606   3.486
26426W        W30494   5.764  14.583   1.795
26427W        W30495   4.376  15.486   1.858
26428W        W30496   3.930  16.686   2.632
26429W        W30497   5.789  17.879   1.338
26430W        W30498   6.983  15.476   2.210
26431W        W30499   5.620  17.823   2.977
26432W        W30500   6.963  16.882   0.182
26433W        W30501   5.398  16.365   1.243
26434W        W30502   7.250  14.876   2.984
26435W        W30503   5.399  16.711   2.578
26436W        W30504   5.616  15.597   2.023
26437W        W30505   6.468  15.895   0.861
26438W        W30506   6.755  15.628   0.503
26439W        W30507   6.564  17.668   0.892
26440W        W30508   6.398  17.271   1.688
26441W        W30509   6.294  16.350   0.666
26442W        W30510   5.727  16.560   1.652
26443W        W30511   6.608  16.348   1.719
26444W        W30512   3.983  15.363   2.143
26445W        W30513   6.761  16.415   2.970
26446W        W30514   7.112  18.033   2.116
26447W        W30515   5.042  17.477   1.518
26448W        W30516   6.049  18.010   2.842
26449W        W30517   6.043  15.340   2.606
26450W        W30518   5.250  18.048   2.667
26451W        W30519   6.947  15.002   1.133
26452W        W30520   6.738  16.321   2.434
26453W        W30521   3.721  15.642   2.472
26454W        W30522   6.581  15.437   1.490
26455W        W30523   6.992  15.588   3.267
26456W        W30524   5.877  17.287   1.485
26457W        W30525   5.133  17.878   1.098
26458W        W30526   4.248  15.058   0.356
26459W        W30527   5.352  14.712   2.166
26460W        W30528   4.380  17.832   0.014
26461W        W30529   4.754  16.298   0.765
26462W        W30530   5.408  16.927   3.078
26463W        W30531   5.238  15.285   1.068
26464W        W30532   6.594  14.882   1.496
26465W        W30533   6.314  18.164   1.824
26466W        W30534   5.726  17.812   2.164
26467W        W30535   5.122  16.849   2.125
26468W        W30536   6.892  17.572   2.251
26469W        W30537   4.586  15.075   1.020
26470W        W30538   5.108  17.372   1.980
26471W        W30539   4.591  15.303   0.045
26472W        W30540   5.392  15.912   2.439
26473W        W30541   6.240  14.778   2.309
26474W        W30542   3.660  16.621   2.194
26475W        W30543   5.364  16.439   0.352
26476W        W30544   4.632  14.754   0.122
26477W        W30545   5.370  15.835   1.173
26478W        W30546   6.340  14.811   2.872
26479W        W30547   4.928  16.823   2.981
26480W        W30548   5.732  16.605   3.198
26481W        W30549   6.349  16.635   3.091
26482W        W30550   5.633  14.775   3.596
26483W        W30551   4.855  15.391   1.989
26484W        W30552   4.281  15.347   1.387
26485W        W30553   4.067  18.059   1.063
26486W        W30554   5.399  17.389   3.188
26487W        W30555   4.434  16.874   0.547
26488W        W30556   6.114  16.259   1.768
26489W        W30557   6.394  16.058   2.167
26490W        W30558   5.599  16.732   2.101
26491W        W30559   6.069  17.106   0.233
26492W        W30560   5.741  15.127   1.561
26493W        W30561   7.220  15.405   0.829
26494W        W30562   3.714  17.994   2.860
26495W        W30563   4.131  17.220   2.392
26496W        W30564   3.698  18.066   0.624
26497W        W30565   5.597  15.336   2.430
26498W        W30566   4.960  17.359   0.279
26499W        W30567   6.865  17.741   0.465
26500W        W30568   5.840  16.394   0.479
26501W        W30569   4.683  15.585   0.996
26502W        W30570   5.515  15.495   0.048
26503W        W30571   6.099  17.060   3.226
26504W        W30572   6.452  14.966   0.843
26505W        W30573   3.782  14.814   0.291
26506W        W30574   5.068  17.133   2.581
26507W        W30575   4.867  17.049   1.673
26508W        W30576   4.609  17.001   0.071
26509W        W30577   3.850  17.242   0.839
26510W        W30578   4.354  16.312   3.281
26511W        W30579   5.058  14.872   3.467
26512W        W30580   5.767  15.014   2.823
26513W        W30581   4.962  14.782   1.104
26514W        W30582   6.021  14.859   0.609
26515W        W30583   3.966  14.791   2.186
26516W        W30584   4.014  15.754   1.556
26517W        W30585   6.703  14.862   1.962
26518W        W30586   4.125  15.360   0.776
26519W        W30587   6.696  15.048   2.392
26520W        W30588   7.092  16.251   0.077
26521W        W30589   4.384  15.009   1.896
26522W        W30590   5.498  15.581   2.836
26523W        W30591   3.646  15.271   0.314
26524W        W30592   4.432  16.660   2.875
26525W        W30593   5.790  16.058   2.054
26526W        W30594   5.657  18.137   0.350
26527W        W30595   3.803  16.644   0.047
26528W        W30596   4.538  17.055   3.173
26529W        W30597   4.059  16.222   2.804
26530W        W30598   5.050  16.327   2.598
26531W        W30599   6.818  14.686   2.860
26532W        W30600   7.216  16.296   2.851
26533W        W30601   7.204  16.496   0.537
26534W        W30602   6.067  16.828   0.636
26535W        W30603   6.541  18.128   0.331
26536W        W30604   5.718  16.118   3.473
26537W        W30605   4.048  17.085   3.513
26538W        W30606   7.254  15.007   3.465
26539W        W30607   6.972  15.935   2.086
26540W        W30608   5.280  18.065   3.563
26541W        W30609   5.135  14.694   0.290
26542W        W30610   6.674  17.293   0.233
26543W        W30611   4.443  15.386   3.119
26544W        W30612   4.877  17.380   2.981
26545W        W30613   7.003  15.371   2.779
26546W        W30614   6.214  18.030   0.747
26547W        W30615   6.453  16.649   2.114
26548W        W30616   4.703  15.065   2.781
26549W        W30617   5.172  16.134   3.538
26550W        W30618   4.675  17.313   0.732
26551W        W30619   6.430  16.811   0.996
26552W        W30620   4.198  15.437   2.720
26553W        W30621   5.527  17.499   1.184
26554W        W30622   7.277  16.059   1.365
26555W        W30623   5.499  14.692   3.084
26556W        W30624   6.279  17.397   2.163
26557W        W30625   6.582  17.741   1.871
26558W        W30626   5.801  17.543   0.299
26559W        W30627   3.811  17.435   3.141
26560W        W30628   4.554  15.427   2.379
26561W        W30629   4.524  14.775   1.489
26562W        W30630   6.145  15.617   2.181
26563W        W30631   4.943  16.788   0.381
26564W        W30632   6.941  16.730   1.880
26565W        W30633   4.268  17.488   3.303
26566W        W30634   6.655  18.170   1.100
26567W        W30635   4.754  15.190   1.545
26568W        W30636   4.523  16.683   1.635
26569W        W30637   4.836  18.094   2.385
26570W        W30638   6.903  18.190   3.417
26571W        W30639   6.062  16.378   2.350
26572W        W30640   3.911  16.176   0.265
26573W        W30641   7.045  17.834   0.962
26574W        W30642   6.882  15.158   0.581
26575W        W30643   5.021  14.677   2.984
26576W        W30644   6.727  17.479   1.442
26577W        W30645   6.756  16.035   1.347
26578W        W30646   4.873  15.708   1.563
26579W        W30647   5.118  15.970   2.887
26580W        W30648   6.229  17.123   2.750
26581W        W30649   4.879  15.577   2.862
26582W        W30650   4.858  18.043   1.478
26583W        W30651   4.175  18.002   3.112
26584W        W30652   4.287  17.363   0.242
26585W        W30653   6.804  17.121   1.052
26586W        W30654   4.408  15.913   2.938
26587W        W30655   7.181  15.843   0.419
26588W        W30656   4.926  16.900   0.890
26589W        W30657   6.025  16.282   2.971
26590W        W30658   5.916  15.910   2.515
26591W        W30659   4.476  16.282   2.544
26592W        W30660   6.686  18.170   2.373
26593W        W30661   6.477  14.804   3.367
26594W        W30662   4.141  14.954   2.954
26595W        W30663   4.480  15.977   2.007
26596W        W30664   4.849  15.791   0.129
26597W        W30665   3.652  17.550   2.674
26598W        W30666   5.237  16.259   2.117
26599W        W30667   5.060  15.284   0.222
26600W        W30668   4.195  16.100   1.003
26601W        W30669   3.966  17.952   2.440
26602W        W30670   6.761  16.178   0.548
26603W        W30671   6.856  15.094   3.234
26604W        W30672   6.292  17.303   1.197
26605W        W30673   3.890  16.227   3.374
26606W        W30674   6.856  14.691   0.670
26607W        W30675   6.376  17.166   0.681
26608W        W30676   5.278  16.224   0.766
26609W        W30677   6.465  15.028   0.289
26610W        W30678   6.530  15.635   2.475
26611W        W30679   4.239  16.228   1.682
26612W        W30680   4.533  17.167   1.331
26613W        W30681   6.296  15.787   1.296
26614W        W30682   5.319  15.166   1.992
26615W        W30683   7.281  17.077   2.503
26616W        W30684   7.199  15.064   2.064
26617W        W30685   3.738  17.894   1.440
26618W        W30686   4.247  17.081   0.976
26619W        W30687   4.162  14.698   3.529
26620W        W30688   5.281  17.551   3.631
26621W        W30689   7.036  16.519   1.421
26622W        W30690   6.390  16.696   0.301
26623W        W30691   5.685  18.217   2.513
26624W        W30692   6.542  16.939   3.550
26625W        W30693   5.357  14.649   0.830
26626W        W30694   6.070  15.518   1.689
26627W        W30695   3.756  17.105   2.021
26628W        W30696   5.009  15.067   0.662
26629W        W30697   4.813  16.551   3.511
26630W        W30698   5.807  15.532   1.225
26631W        W30699   6.012  16.942   2.347
26632W        W30700   4.166  17.547   2.782
26633W        W30701   4.757  17.530   3.505
26634W        W30702   4.608  15.327   0.519
26635W        W30703   6.125  15.469   0.844
26636W        W30704   6.083  17.577   3.081
26637W        W30705   4.768  16.169   1.680
26638W        W30706   4.423  17.867   2.545
26639W        W30707   7.168  17.984   0.146
26640W        W30708   4.031  16.656   3.142
26641W        W30709   6.026  16.918   1.830
26642W        W30710   4.462  16.567   1.072
26643W        W30711   4.833  17.574   2.467
26644W        W30712   5.211  14.993   1.508
26645W        W30713   3.822  16.977   0.438
26646W        W30714   5.341  15.928   0.308
26647W        W30715   3.987  16.477   1.327
26648W        W30716   5.277  15.119   2.791
26649W        W30717   6.949  14.828   0.218
26650W        W30718   7.042  16.574   3.317
26651W        W30719   5.696  17.831   3.469
26652W        W30720   7.254  16.925   2.991
26653W        W30721   6.662  17.723   3.602
26654W        W30722   4.401  18.179   2.080
26655W        W30723   7.260  16.801   0.954
26656W        W30724   5.790  16.068   1.467
26657W        W30725   5.557  14.680   1.357
26658W        W30726   4.616  17.664   1.194
26659W        W30727   5.115  15.405   2.419
26660W        W30728   4.815  14.774   1.888
26661W        W30729   3.878  17.596   0.436
26662W        W30730   5.694  16.960   1.154
26663W        W30731   4.569  17.755   3.033
26664W        W30732   4.046  16.578   0.729
26665W        W30733   3.931  15.121   1.728
26666W        W30734   5.479  17.086   1.785
26667W        W30735   3.731  14.940   0.805
26668W        W30736   6.395  16.146   2.732
26669W        W30737   6.272  15.532   0.304
26670W        W30738   6.789  17.204   1.952
26671W        W30739   5.450  17.688   1.783
26672W        W30740   4.862  17.792   0.694
26673W        W30741   6.144  14.695   0.124
26674W        W30742   3.944  17.955   1.865
26675W        W30743   6.141  15.713   3.500
26676W        W30744   4.124  15.243   3.499
26677W        W30745   3.855  15.843   0.832
26678W        W30746   4.546  15.832   0.557
26679W        W30747   6.309  16.159   3.374
26680W        W30748   4.652  16.440   2.083
26681W        W30749   6.126  14.726   1.203
26682W        W30750   5.257  18.157   1.706
26683W        W30751   6.471  17.619   2.643
26684W        W30752   6.055  17.768   1.754
26685W        W30753   6.074  16.748   1.348
26686W        W30754   5.536  14.973   0.419
26687W        W30755   7.217  14.601   1.141
26688W        W30756   4.905  16.236   0.304
26689W        W30757   7.071  15.573   1.294
26690W        W30758   5.763  16.743   0.171
26691W        W30759   6.699  16.943   2.919
26692W        W30760   6.353  17.644   0.386
26693W        W30761   4.968  15.319   3.292
26694W        W30762   4.788  15.903   2.533
26695W        W30763   6.880  17.398   2.810
26696W        W30764   5.980  15.348   3.187
26697W        W30765   3.824  15.819   2.964
26698W        W30766   5.584  16.296   2.690
26699W        W30767   3.941  17.054   1.347
26700W        W30768   4.088  16.351   2.237
26701W        W30769   6.405  16.637   2.587
26702W        W30770   6.177  18.017   3.398
26703W        W30771   6.073  15.756   2.951
26704W        W30772   6.350  17.810   1.356
26705W        W30773   5.352  17.530   2.679
26706W        W30774   4.837  17.885   1.948
26707W        W30775   6.642  17.056   2.367
26708W        W30776   5.692  17.128   3.504
26709W        W30777   4.297  17.081   1.843
26710W        W30778   6.643  16.840   1.488
26711W        W30779   6.284  17.906   2.239
26712W        W30780   4.262  17.635   2.109
26713W        W30781   5.283  15.687   3.319
26714W        W30782   5.734  17.853   0.830
26715W        W30783   5.042  17.108   3.468
26716W        W30784   5.168  17.346   0.845
26717W        W30785   4.389  16.086   0.104
26718W        W30786   3.728  18.172   7.003
26719W        W30787   4.104  17.065   6.526
26720W        W30788   6.809  16.795   4.296
26721W        W30789   6.939  17.880   6.323
26722W        W30790   4.857  17.871   3.849
26723W        W30791   4.940  16.023   4.832
26724W        W30792   4.455  15.871   4.996
26725W        W30793   5.446  16.686   4.430
26726W        W30794   5.121  17.778   6.785
26727W        W30795   3.770  15.339   6.748
26728W        W30796   4.532  14.619   6.550
26729W        W30797   6.226  15.007   5.437
26730W        W30798   5.875  15.878   4.007
26731W        W30799   6.445  15.312   7.098
26732W        W30800   3.811  15.104   6.223
26733W        W30801   3.910  17.723   7.244
26734W        W30802   5.432  17.113   3.976
26735W        W30803   3.864  15.896   5.669
26736W        W30804   4.757  15.787   6.906
26737W        W30805   7.216  15.646   5.405
26738W        W30806   6.980  16.689   6.264
26739W        W30807   5.288  16.022   5.291
26740W        W30808   5.834  17.361   5.660
26741W        W30809   4.334  16.795   5.892
26742W        W30810   3.693  16.323   5.463
26743W        W30811   4.729  16.295   6.655
26744W        W30812   7.000  16.078   6.909
26745W        W30813   4.616  17.522   5.354
26746W        W30814   5.737  17.211   6.488
26747W        W30815   4.957  15.851   5.713
26748W        W30816   5.249  16.635   5.356
26749W        W30817   6.246  17.408   7.204
26750W        W30818   5.325  16.728   7.214
26751W        W30819   5.306  16.444   6.692
26752W        W30820   3.715  15.835   7.214
26753W        W30821   6.547  17.370   6.813
26754W        W30822   4.128  14.952   4.811
26755W        W30823   4.655  17.210   5.810
26756W        W30824   7.118  16.993   5.100
26757W        W30825   6.531  15.393   5.667
26758W        W30826   6.816  15.346   3.762
26759W        W30827   7.281  16.147   6.068
26760W        W30828   5.248  17.854   5.821
26761W        W30829   7.022  17.320   4.259
26762W        W30830   4.151  18.106   4.013
26763W        W30831   4.544  18.152   4.689
26764W        W30832   4.341  14.906   6.115
26765W        W30833   6.964  15.924   6.390
26766W        W30834   6.369  16.346   4.849
26767W        W30835   6.335  16.034   3.876
26768W        W30836   5.543  17.178   6.016
26769W        W30837   5.349  15.508   5.215
26770W        W30838   5.949  17.595   6.209
26771W        W30839   6.820  16.386   4.631
26772W        W30840   5.722  15.044   4.647
26773W        W30841   4.379  17.738   4.330
26774W        W30842   3.750  15.237   4.929
26775W        W30843   6.536  15.844   5.403
26776W        W30844   3.994  17.461   5.318
26777W        W30845   5.335  17.811   4.188
26778W        W30846   6.727  15.837   3.652
26779W        W30847   3.750  17.595   5.816
26780W        W30848   4.541  17.167   6.296
26781W        W30849   4.914  16.527   4.915
26782W        W30850   4.936  14.932   6.008
26783W        W30851   7.165  14.694   5.305
26784W        W30852   4.384  16.566   3.773
26785W        W30853   4.039  15.599   3.952
26786W        W30854   4.101  17.555   4.746
26787W        W30855   5.232  17.038   4.994
26788W        W30856   6.564  17.897   6.708
26789W        W30857   5.490  15.539   4.392
26790W        W30858   6.873  17.937   5.164
26791W        W30859   6.550  15.790   6.762
26792W        W30860   7.263  17.446   4.896
26793W        W30861   5.890  16.738   6.380
26794W        W30862   3.656  16.289   4.586
26795W        W30863   4.767  16.704   6.159
26796W        W30864   5.971  15.968   4.537
26797W        W30865   5.848  16.458   4.641
26798W        W30866   4.191  15.878   6.115
26799W        W30867   4.176  15.754   7.037
26800W        W30868   4.066  14.671   5.196
26801W        W30869   5.834  15.018   5.757
26802W        W30870   5.482  15.203   6.920
26803W        W30871   5.837  15.352   4.098
26804W        W30872   7.020  17.745   6.852
26805W        W30873   5.987  14.826   6.891
26806W        W30874   7.006  17.127   7.013
26807W        W30875   6.436  15.294   6.609
26808W        W30876   6.236  15.232   4.879
26809W        W30877   6.629  16.366   7.283
26810W        W30878   4.369  17.942   5.269
26811W        W30879   5.027  15.659   4.255
26812W        W30880   4.596  14.943   6.919
26813W        W30881   6.648  15.427   4.600
26814W        W30882   7.015  15.909   4.545
26815W        W30883   4.758  18.126   7.016
26816W        W30884   4.684  14.662   4.251
26817W        W30885   7.005  15.196   5.286
26818W        W30886   7.155  17.445   3.731
26819W        W30887   4.062  16.648   5.433
26820W        W30888   5.979  15.235   3.663
26821W        W30889   7.113  17.567   5.383
26822W        W30890   7.152  14.761   6.133
26823W        W30891   5.597  15.973   6.687
26824W        W30892   5.690  17.312   4.390
26825W        W30893   6.090  16.606   7.130
26826W        W30894   5.764  14.583   5.439
26827W        W30895   4.376  15.486   5.502
26828W        W30896   3.930  16.686   6.276
26829W        W30897   5.789  17.879   4.982
26830W        W30898   6.983  15.476   5.854
26831W        W30899   5.620  17.823   6.621
26832W        W30900   6.963  16.882   3.826
26833W        W30901   5.398  16.365   4.887
26834W        W30902   7.250  14.876   6.628
26835W        W30903   5.399  16.711   6.222
26836W        W30904   5.616  15.597   5.667
26837W        W30905   6.468  15.895   4.505
26838W        W30906   6.755  15.628   4.147
26839W        W30907   6.564  17.668   4.536
26840W        W30908   6.398  17.271   5.332
26841W        W30909   6.294  16.350   4.310
26842W        W30910   5.727  16.560   5.296
26843W        W30911   6.608  16.348   5.363
26844W        W30912   3.983  15.363   5.787
26845W        W30913   6.761  16.415   6.614
26846W        W30914   7.112  18.033   5.760
26847W        W30915   5.042  17.477   5.162
26848W        W30916   6.049  18.010   6.486
26849W        W30917   6.043  15.340   6.250
26850W        W30918   5.250  18.048   6.311
26851W        W30919   6.947  15.002   4.777
26852W        W30920   6.738  16.321   6.078
26853W        W30921   3.721  15.642   6.116
26854W        W30922   6.581  15.437   5.134
26855W        W30923   6.992  15.588   6.911
26856W        W30924   5.877  17.287   5.129
26857W        W30925   5.133  17.878   4.742
26858W        W30926   4.248  15.058   4.000
26859W        W30927   5.352  14.712   5.810
26860W        W30928   4.380  17.832   3.658
26861W        W30929   4.754  16.298   4.409
26862W        W30930   5.408  16.927   6.722
26863W        W30931   5.238  15.285   4.712
26864W        W30932   6.594  14.882   5.140
26865W        W30933   6.314  18.164   5.468
26866W        W30934   5.726  17.812   5.808
26867W        W30935   5.122  16.849   5.769
26868W        W30936   6.892  17.572   5.895
26869W        W30937   4.586  15.075   4.664
26870W        W30938   5.108  17.372   5.624
26871W        W30939   4.591  15.303   3.689
26872W        W30940   5.392  15.912   6.083
26873W        W30941   6.240  14.778   5.953
26874W        W30942   3.660  16.621   5.838
26875W        W30943   5.364  16.439   3.996
26876W        W30944   4.632  14.754   3.766
26877W        W30945   5.370  15.835   4.817
26878W        W30946   6.340  14.811   6.516
26879W        W30947   4.928  16.823   6.625
26880W        W30948   5.732  16.605   6.842
26881W        W30949   6.349  16.635   6.735
26882W        W30950   5.633  14.775   7.240
26883W        W30951   4.855  15.391   5.633
26884W        W30952   4.281  15.347   5.031
26885W        W30953   4.067  18.059   4.707
26886W        W30954   5.399  17.389   6.832
26887W        W30955   4.434  16.874   4.191
26888W        W30956   6.114  16.259   5.412
26889W        W30957   6.394  16.058   5.811
26890W        W30958   5.599  16.732   5.745
26891W        W30959   6.069  17.106   3.877
26892W        W30960   5.741  15.127   5.205
26893W        W30961   7.220  15.405   4.473
26894W        W30962   3.714  17.994   6.504
26895W        W30963   4.131  17.220   6.036
26896W        W30964   3.698  18.066   4.268
26897W        W30965   5.597  15.336   6.074
26898W        W30966   4.960  17.359   3.923
26899W        W30967   6.865  17.741   4.109
26900W        W30968   5.840  16.394   4.123
26901W        W30969   4.683  15.585   4.640
26902W        W30970   5.515  15.495   3.692
26903W        W30971   6.099  17.060   6.870
26904W        W30972   6.452  14.966   4.487
26905W        W30973   3.782  14.814   3.935
26906W        W30974   5.068  17.133   6.225
26907W        W30975   4.867  17.049   5.317
26908W        W30976   4.609  17.001   3.715
26909W        W30977   3.850  17.242   4.483
26910W        W30978   4.354  16.312   6.925
26911W        W30979   5.058  14.872   7.111
26912W        W30980   5.767  15.014   6.467
26913W        W30981   4.962  14.782   4.748
26914W        W30982   6.021  14.859   4.253
26915W        W30983   3.966  14.791   5.830
26916W        W30984   4.014  15.754   5.200
26917W        W30985   6.703  14.862   5.606
26918W        W30986   4.125  15.360   4.420
26919W        W30987   6.696  15.048   6.036
26920W        W30988   7.092  16.251   3.721
26921W        W30989   4.384  15.009   5.540
26922W        W30990   5.498  15.581   6.480
26923W        W30991   3.646  15.271   3.958
26924W        W30992   4.432  16.660   6.519
26925W        W30993   5.790  16.058   5.698
26926W        W30994   5.657  18.137   3.994
26927W        W30995   3.803  16.644   3.691
26928W        W30996   4.538  17.055   6.817
26929W        W30997   4.059  16.222   6.448
26930W        W30998   5.050  16.327   6.242
26931W        W30999   6.818  14.686   6.504
26932W        W31000   7.216  16.296   6.495
26933W        W31001   7.204  16.496   4.181
26934W        W31002   6.067  16.828   4.280
26935W        W31003   6.541  18.128   3.975
26936W        W31004   5.718  16.118   7.117
26937W        W31005   4.048  17.085   7.157
26938W        W31006   7.254  15.007   7.109
26939W        W31007   6.972  15.935   5.730
26940W        W31008   5.280  18.065   7.207
26941W        W31009   5.135  14.694   3.934
26942W        W31010   6.674  17.293   3.877
26943W        W31011   4.443  15.386   6.763
26944W        W31012   4.877  17.380   6.625
26945W        W31013   7.003  15.371   6.423
26946W        W31014   6.214  18.030   4.391
26947W        W31015   6.453  16.649   5.758
26948W        W31016   4.703  15.065   6.425
26949W        W31017   5.172  16.134   7.182
26950W        W31018   4.675  17.313   4.376
26951W        W31019   6.430  16.811   4.640
26952W        W31020   4.198  15.437   6.364
26953W        W31021   5.527  17.499   4.828
26954W        W31022   7.277  16.059   5.009
26955W        W31023   5.499  14.692   6.728
26956W        W31024   6.279  17.397   5.807
26957W        W31025   6.582  17.741   5.515
26958W        W31026   5.801  17.543   3.943
26959W        W31027   3.811  17.435   6.785
26960W        W31028   4.554  15.427   6.023
26961W        W31029   4.524  14.775   5.133
26962W        W31030   6.145  15.617   5.825
26963W        W31031   4.943  16.788   4.025
26964W        W31032   6.941  16.730   5.524
26965W        W31033   4.268  17.488   6.947
26966W        W31034   6.655  18.170   4.744
26967W        W31035   4.754  15.190   5.189
26968W        W31036   4.523  16.683   5.279
26969W        W31037   4.836  18.094   6.029
26970W        W31038   6.903  18.190   7.061
26971W        W31039   6.062  16.378   5.994
26972W        W31040   3.911  16.176   3.909
26973W        W31041   7.045  17.834   4.606
26974W        W31042   6.882  15.158   4.225
26975W        W31043   5.021  14.677   6.628
26976W        W31044   6.727  17.479   5.086
26977W        W31045   6.756  16.035   4.991
26978W        W31046   4.873  15.708   5.207
26979W        W31047   5.118  15.970   6.531
26980W        W31048   6.229  17.123   6.394
26981W        W31049   4.879  15.577   6.506
26982W        W31050   4.858  18.043   5.122
26983W        W31051   4.175  18.002   6.756
26984W        W31052   4.287  17.363   3.886
26985W        W31053   6.804  17.121   4.696
26986W        W31054   4.408  15.913   6.582
26987W        W31055   7.181  15.843   4.063
26988W        W31056   4.926  16.900   4.534
26989W        W31057   6.025  16.282   6.615
26990W        W31058   5.916  15.910   6.159
26991W        W31059   4.476  16.282   6.188
26992W        W31060   6.686  18.170   6.017
26993W        W31061   6.477  14.804   7.011
26994W        W31062   4.141  14.954   6.598
26995W        W31063   4.480  15.977   5.651
26996W        W31064   4.849  15.791   3.773
26997W        W31065   3.652  17.550   6.318
26998W        W31066   5.237  16.259   5.761
26999W        W31067   5.060  15.284   3.866
27000W        W31068   4.195  16.100   4.647
27001W        W31069   3.966  17.952   6.084
27002W        W31070   6.761  16.178   4.192
27003W        W31071   6.856  15.094   6.878
27004W        W31072   6.292  17.303   4.841
27005W        W31073   3.890  16.227   7.018
27006W        W31074   6.856  14.691   4.314
27007W        W31075   6.376  17.166   4.325
27008W        W31076   5.278  16.224   4.410
27009W        W31077   6.465  15.028   3.933
27010W        W31078   6.530  15.635   6.119
27011W        W31079   4.239  16.228   5.326
27012W        W31080   4.533  17.167   4.975
27013W        W31081   6.296  15.787   4.940
27014W        W31082   5.319  15.166   5.636
27015W        W31083   7.281  17.077   6.147
27016W        W31084   7.199  15.064   5.708
27017W        W31085   3.738  17.894   5.084
27018W        W31086   4.247  17.081   4.620
27019W        W31087   4.162  14.698   7.173
27020W        W31088   5.281  17.551   7.275
27021W        W31089   7.036  16.519   5.065
27022W        W31090   6.390  16.696   3.945
27023W        W31091   5.685  18.217   6.157
27024W        W31092   6.542  16.939   7.194
27025W        W31093   5.357  14.649   4.474
27026W        W31094   6.070  15.518   5.333
27027W        W31095   3.756  17.105   5.665
27028W        W31096   5.009  15.067   4.306
27029W        W31097   4.813  16.551   7.155
27030W        W31098   5.807  15.532   4.869
27031W        W31099   6.012  16.942   5.991
27032W        W31100   4.166  17.547   6.426
27033W        W31101   4.757  17.530   7.149
27034W        W31102   4.608  15.327   4.163
27035W        W31103   6.125  15.469   4.488
27036W        W31104   6.083  17.577   6.725
27037W        W31105   4.768  16.169   5.324
27038W        W31106   4.423  17.867   6.189
27039W        W31107   7.168  17.984   3.790
27040W        W31108   4.031  16.656   6.786
27041W        W31109   6.026  16.918   5.474
27042W        W31110   4.462  16.567   4.716
27043W        W31111   4.833  17.574   6.111
27044W        W31112   5.211  14.993   5.152
27045W        W31113   3.822  16.977   4.082
27046W        W31114   5.341  15.928   3.952
27047W        W31115   3.987  16.477   4.971
27048W        W31116   5.277  15.119   6.435
27049W        W31117   6.949  14.828   3.862
27050W        W31118   7.042  16.574   6.961
27051W        W31119   5.696  17.831   7.113
27052W        W31120   7.254  16.925   6.635
27053W        W31121   6.662  17.723   7.246
27054W        W31122   4.401  18.179   5.724
27055W        W31123   7.260  16.801   4.598
27056W        W31124   5.790  16.068   5.111
27057W        W31125   5.557  14.680   5.001
27058W        W31126   4.616  17.664   4.838
27059W        W31127   5.115  15.405   6.063
27060W        W31128   4.815  14.774   5.532
27061W        W31129   3.878  17.596   4.080
27062W        W31130   5.694  16.960   4.798
27063W        W31131   4.569  17.755   6.677
27064W        W31132   4.046  16.578   4.373
27065W        W31133   3.931  15.121   5.372
27066W        W31134   5.479  17.086   5.429
27067W        W31135   3.731  14.940   4.449
27068W        W31136   6.395  16.146   6.376
27069W        W31137   6.272  15.532   3.948
27070W        W31138   6.789  17.204   5.596
27071W        W31139   5.450  17.688   5.427
27072W        W31140   4.862  17.792   4.338
27073W        W31141   6.144  14.695   3.768
27074W        W31142   3.944  17.955   5.509
27075W        W31143   6.141  15.713   7.144
27076W        W31144   4.124  15.243   7.143
27077W        W31145   3.855  15.843   4.476
27078W        W31146   4.546  15.832   4.201
27079W        W31147   6.309  16.159   7.018
27080W        W31148   4.652  16.440   5.727
27081W        W31149   6.126  14.726   4.847
27082W        W31150   5.257  18.157   5.350
27083W        W31151   6.471  17.619   6.287
27084W        W31152   6.055  17.768   5.398
27085W        W31153   6.074  16.748   4.992
27086W        W31154   5.536  14.973   4.063
27087W        W31155   7.217  14.601   4.785
27088W        W31156   4.905  16.236   3.948
27089W        W31157   7.071  15.573   4.938
27090W        W31158   5.763  16.743   3.815
27091W        W31159   6.699  16.943   6.563
27092W        W31160   6.353  17.644   4.030
27093W        W31161   4.968  15.319   6.936
27094W        W31162   4.788  15.903   6.177
27095W        W31163   6.880  17.398   6.454
27096W        W31164   5.980  15.348   6.831
27097W        W31165   3.824  15.819   6.608
27098W        W31166   5.584  16.296   6.334
27099W        W31167   3.941  17.054   4.991
27100W        W31168   4.088  16.351   5.881
27101W        W31169   6.405  16.637   6.231
27102W        W31170   6.177  18.017   7.042
27103W        W31171   6.073  15.756   6.595
27104W        W31172   6.350  17.810   5.000
27105W        W31173   5.352  17.530   6.323
27106W        W31174   4.837  17.885   5.592
27107W        W31175   6.642  17.056   6.011
27108W        W31176   5.692  17.128   7.148
27109W        W31177   4.297  17.081   5.487
27110W        W31178   6.643  16.840   5.132
27111W        W31179   6.284  17.906   5.883
27112W        W31180   4.262  17.635   5.753
27113W        W31181   5.283  15.687   6.963
27114W        W31182   5.734  17.853   4.474
27115W        W31183   5.042  17.108   7.112
27116W        W31184   5.168  17.346   4.489
27117W        W31185   4.389  16.086   3.748
27118W        W31186   3.728  18.172  10.648
27119W        W31187   4.104  17.065  10.171
27120W        W31188   6.939  17.880   9.968
27121W        W31189   4.857  17.871   7.494
27122W        W31190   4.940  16.023   8.477
27123W        W31191   4.455  15.871   8.641
27124W        W31192   5.446  16.686   8.075
27125W        W31193   5.121  17.778  10.430
27126W        W31194   3.770  15.339  10.393
27127W        W31195   4.532  14.619  10.195
27128W        W31196   6.226  15.007   9.082
27129W        W31197   5.875  15.878   7.652
27130W        W31198   6.445  15.312  10.743
27131W        W31199   3.811  15.104   9.868
27132W        W31200   3.910  17.723  10.889
27133W        W31201   5.432  17.113   7.621
27134W        W31202   3.864  15.896   9.314
27135W        W31203   4.757  15.787  10.551
27136W        W31204   7.216  15.646   9.050
27137W        W31205   6.980  16.689   9.909
27138W        W31206   5.288  16.022   8.936
27139W        W31207   5.834  17.361   9.305
27140W        W31208   4.334  16.795   9.537
27141W        W31209   3.693  16.323   9.108
27142W        W31210   4.729  16.295  10.300
27143W        W31211   7.000  16.078  10.554
27144W        W31212   4.616  17.522   8.999
27145W        W31213   5.737  17.211  10.133
27146W        W31214   4.957  15.851   9.358
27147W        W31215   5.249  16.635   9.001
27148W        W31216   6.246  17.408  10.849
27149W        W31217   5.325  16.728  10.859
27150W        W31218   5.306  16.444  10.337
27151W        W31219   3.715  15.835  10.859
27152W        W31220   6.547  17.370  10.458
27153W        W31221   4.128  14.952   8.456
27154W        W31222   4.655  17.210   9.455
27155W        W31223   7.118  16.993   8.745
27156W        W31224   6.531  15.393   9.312
27157W        W31225   6.816  15.346   7.407
27158W        W31226   5.248  17.854   9.466
27159W        W31227   7.022  17.320   7.904
27160W        W31228   4.151  18.106   7.658
27161W        W31229   4.544  18.152   8.334
27162W        W31230   4.341  14.906   9.760
27163W        W31231   6.964  15.924  10.035
27164W        W31232   6.369  16.346   8.494
27165W        W31233   6.335  16.034   7.521
27166W        W31234   5.543  17.178   9.661
27167W        W31235   5.349  15.508   8.860
27168W        W31236   5.949  17.595   9.854
27169W        W31237   6.820  16.386   8.276
27170W        W31238   5.722  15.044   8.292
27171W        W31239   4.379  17.738   7.975
27172W        W31240   3.750  15.237   8.574
27173W        W31241   6.536  15.844   9.048
27174W        W31242   3.994  17.461   8.963
27175W        W31243   5.335  17.811   7.833
27176W        W31244   6.727  15.837   7.297
27177W        W31245   3.750  17.595   9.461
27178W        W31246   4.541  17.167   9.941
27179W        W31247   4.914  16.527   8.560
27180W        W31248   4.936  14.932   9.653
27181W        W31249   7.165  14.694   8.950
27182W        W31250   4.384  16.566   7.418
27183W        W31251   4.039  15.599   7.597
27184W        W31252   4.101  17.555   8.391
27185W        W31253   5.232  17.038   8.639
27186W        W31254   6.564  17.897  10.353
27187W        W31255   5.490  15.539   8.037
27188W        W31256   6.873  17.937   8.809
27189W        W31257   6.550  15.790  10.407
27190W        W31258   7.263  17.446   8.541
27191W        W31259   5.890  16.738  10.025
27192W        W31260   3.656  16.289   8.231
27193W        W31261   4.767  16.704   9.804
27194W        W31262   5.971  15.968   8.182
27195W        W31263   5.848  16.458   8.286
27196W        W31264   4.191  15.878   9.760
27197W        W31265   4.176  15.754  10.682
27198W        W31266   4.066  14.671   8.841
27199W        W31267   5.834  15.018   9.402
27200W        W31268   5.482  15.203  10.565
27201W        W31269   5.837  15.352   7.743
27202W        W31270   5.987  14.826  10.536
27203W        W31271   7.006  17.127  10.658
27204W        W31272   6.436  15.294  10.254
27205W        W31273   6.236  15.232   8.524
27206W        W31274   6.629  16.366  10.928
27207W        W31275   4.369  17.942   8.914
27208W        W31276   5.027  15.659   7.900
27209W        W31277   4.596  14.943  10.564
27210W        W31278   6.648  15.427   8.245
27211W        W31279   7.015  15.909   8.190
27212W        W31280   4.758  18.126  10.661
27213W        W31281   4.684  14.662   7.896
27214W        W31282   7.005  15.196   8.931
27215W        W31283   7.155  17.445   7.376
27216W        W31284   4.062  16.648   9.078
27217W        W31285   5.979  15.235   7.308
27218W        W31286   7.113  17.567   9.028
27219W        W31287   7.152  14.761   9.778
27220W        W31288   5.597  15.973  10.332
27221W        W31289   5.690  17.312   8.035
27222W        W31290   6.090  16.606  10.775
27223W        W31291   5.764  14.583   9.084
27224W        W31292   4.376  15.486   9.147
27225W        W31293   3.930  16.686   9.921
27226W        W31294   5.789  17.879   8.627
27227W        W31295   6.983  15.476   9.499
27228W        W31296   5.620  17.823  10.266
27229W        W31297   6.963  16.882   7.471
27230W        W31298   5.398  16.365   8.532
27231W        W31299   7.250  14.876  10.273
27232W        W31300   5.399  16.711   9.867
27233W        W31301   5.616  15.597   9.312
27234W        W31302   6.468  15.895   8.150
27235W        W31303   6.755  15.628   7.792
27236W        W31304   6.564  17.668   8.181
27237W        W31305   6.398  17.271   8.977
27238W        W31306   6.294  16.350   7.955
27239W        W31307   5.727  16.560   8.941
27240W        W31308   6.608  16.348   9.008
27241W        W31309   3.983  15.363   9.432
27242W        W31310   6.761  16.415  10.259
27243W        W31311   7.112  18.033   9.405
27244W        W31312   5.042  17.477   8.807
27245W        W31313   6.049  18.010  10.131
27246W        W31314   6.043  15.340   9.895
27247W        W31315   5.250  18.048   9.956
27248W        W31316   6.947  15.002   8.422
27249W        W31317   6.738  16.321   9.723
27250W        W31318   3.721  15.642   9.761
27251W        W31319   6.581  15.437   8.779
27252W        W31320   5.877  17.287   8.774
27253W        W31321   5.133  17.878   8.387
27254W        W31322   4.248  15.058   7.645
27255W        W31323   5.352  14.712   9.455
27256W        W31324   4.380  17.832   7.303
27257W        W31325   4.754  16.298   8.054
27258W        W31326   5.408  16.927  10.367
27259W        W31327   5.238  15.285   8.357
27260W        W31328   6.594  14.882   8.785
27261W        W31329   6.314  18.164   9.113
27262W        W31330   5.726  17.812   9.453
27263W        W31331   5.122  16.849   9.414
27264W        W31332   6.892  17.572   9.540
27265W        W31333   4.586  15.075   8.309
27266W        W31334   5.108  17.372   9.269
27267W        W31335   4.591  15.303   7.334
27268W        W31336   5.392  15.912   9.728
27269W        W31337   6.240  14.778   9.598
27270W        W31338   3.660  16.621   9.483
27271W        W31339   5.364  16.439   7.641
27272W        W31340   4.632  14.754   7.411
27273W        W31341   5.370  15.835   8.462
27274W        W31342   6.340  14.811  10.161
27275W        W31343   4.928  16.823  10.270
27276W        W31344   5.732  16.605  10.487
27277W        W31345   6.349  16.635  10.380
27278W        W31346   5.633  14.775  10.885
27279W        W31347   4.855  15.391   9.278
27280W        W31348   4.281  15.347   8.676
27281W        W31349   4.067  18.059   8.352
27282W        W31350   5.399  17.389  10.477
27283W        W31351   4.434  16.874   7.836
27284W        W31352   6.114  16.259   9.057
27285W        W31353   6.394  16.058   9.456
27286W        W31354   5.599  16.732   9.390
27287W        W31355   6.069  17.106   7.522
27288W        W31356   5.741  15.127   8.850
27289W        W31357   7.220  15.405   8.118
27290W        W31358   3.714  17.994  10.149
27291W        W31359   4.131  17.220   9.681
27292W        W31360   3.698  18.066   7.913
27293W        W31361   5.597  15.336   9.719
27294W        W31362   4.960  17.359   7.568
27295W        W31363   6.865  17.741   7.754
27296W        W31364   5.840  16.394   7.768
27297W        W31365   4.683  15.585   8.285
27298W        W31366   5.515  15.495   7.337
27299W        W31367   6.099  17.060  10.515
27300W        W31368   6.452  14.966   8.132
27301W        W31369   3.782  14.814   7.580
27302W        W31370   5.068  17.133   9.870
27303W        W31371   4.867  17.049   8.962
27304W        W31372   4.609  17.001   7.360
27305W        W31373   3.850  17.242   8.128
27306W        W31374   4.354  16.312  10.570
27307W        W31375   5.058  14.872  10.756
27308W        W31376   5.767  15.014  10.112
27309W        W31377   4.962  14.782   8.393
27310W        W31378   6.021  14.859   7.898
27311W        W31379   3.966  14.791   9.475
27312W        W31380   4.014  15.754   8.845
27313W        W31381   6.703  14.862   9.251
27314W        W31382   4.125  15.360   8.065
27315W        W31383   6.696  15.048   9.681
27316W        W31384   7.092  16.251   7.366
27317W        W31385   4.384  15.009   9.185
27318W        W31386   5.498  15.581  10.125
27319W        W31387   3.646  15.271   7.603
27320W        W31388   4.432  16.660  10.164
27321W        W31389   5.790  16.058   9.343
27322W        W31390   5.657  18.137   7.639
27323W        W31391   3.803  16.644   7.336
27324W        W31392   4.538  17.055  10.462
27325W        W31393   4.059  16.222  10.093
27326W        W31394   5.050  16.327   9.887
27327W        W31395   6.818  14.686  10.149
27328W        W31396   7.204  16.496   7.826
27329W        W31397   6.067  16.828   7.925
27330W        W31398   6.541  18.128   7.620
27331W        W31399   5.718  16.118  10.762
27332W        W31400   4.048  17.085  10.802
27333W        W31401   7.254  15.007  10.754
27334W        W31402   6.972  15.935   9.375
27335W        W31403   5.280  18.065  10.852
27336W        W31404   5.135  14.694   7.579
27337W        W31405   6.674  17.293   7.522
27338W        W31406   4.443  15.386  10.408
27339W        W31407   4.877  17.380  10.270
27340W        W31408   7.003  15.371  10.068
27341W        W31409   6.214  18.030   8.036
27342W        W31410   6.453  16.649   9.403
27343W        W31411   4.703  15.065  10.070
27344W        W31412   5.172  16.134  10.827
27345W        W31413   4.675  17.313   8.021
27346W        W31414   6.430  16.811   8.285
27347W        W31415   4.198  15.437  10.009
27348W        W31416   5.527  17.499   8.473
27349W        W31417   7.277  16.059   8.654
27350W        W31418   5.499  14.692  10.373
27351W        W31419   6.279  17.397   9.452
27352W        W31420   6.582  17.741   9.160
27353W        W31421   5.801  17.543   7.588
27354W        W31422   3.811  17.435  10.430
27355W        W31423   4.554  15.427   9.668
27356W        W31424   4.524  14.775   8.778
27357W        W31425   6.145  15.617   9.470
27358W        W31426   4.943  16.788   7.670
27359W        W31427   6.941  16.730   9.169
27360W        W31428   4.268  17.488  10.592
27361W        W31429   6.655  18.170   8.389
27362W        W31430   4.754  15.190   8.834
27363W        W31431   4.523  16.683   8.924
27364W        W31432   4.836  18.094   9.674
27365W        W31433   6.062  16.378   9.639
27366W        W31434   3.911  16.176   7.554
27367W        W31435   7.045  17.834   8.251
27368W        W31436   6.882  15.158   7.870
27369W        W31437   5.021  14.677  10.273
27370W        W31438   6.727  17.479   8.731
27371W        W31439   6.756  16.035   8.636
27372W        W31440   4.873  15.708   8.852
27373W        W31441   5.118  15.970  10.176
27374W        W31442   6.229  17.123  10.039
27375W        W31443   4.879  15.577  10.151
27376W        W31444   4.858  18.043   8.767
27377W        W31445   4.175  18.002  10.401
27378W        W31446   4.287  17.363   7.531
27379W        W31447   4.408  15.913  10.227
27380W        W31448   7.181  15.843   7.708
27381W        W31449   4.926  16.900   8.179
27382W        W31450   6.025  16.282  10.260
27383W        W31451   5.916  15.910   9.804
27384W        W31452   4.476  16.282   9.833
27385W        W31453   6.686  18.170   9.662
27386W        W31454   6.477  14.804  10.656
27387W        W31455   4.141  14.954  10.243
27388W        W31456   4.480  15.977   9.296
27389W        W31457   4.849  15.791   7.418
27390W        W31458   3.652  17.550   9.963
27391W        W31459   5.237  16.259   9.406
27392W        W31460   5.060  15.284   7.511
27393W        W31461   4.195  16.100   8.292
27394W        W31462   3.966  17.952   9.729
27395W        W31463   6.761  16.178   7.837
27396W        W31464   6.856  15.094  10.523
27397W        W31465   6.292  17.303   8.486
27398W        W31466   3.890  16.227  10.663
27399W        W31467   6.856  14.691   7.959
27400W        W31468   6.376  17.166   7.970
27401W        W31469   5.278  16.224   8.055
27402W        W31470   6.465  15.028   7.578
27403W        W31471   6.530  15.635   9.764
27404W        W31472   4.239  16.228   8.971
27405W        W31473   4.533  17.167   8.620
27406W        W31474   6.296  15.787   8.585
27407W        W31475   5.319  15.166   9.281
27408W        W31476   7.281  17.077   9.792
27409W        W31477   7.199  15.064   9.353
27410W        W31478   3.738  17.894   8.729
27411W        W31479   4.247  17.081   8.265
27412W        W31480   4.162  14.698  10.818
27413W        W31481   5.281  17.551  10.920
27414W        W31482   7.036  16.519   8.710
27415W        W31483   6.390  16.696   7.590
27416W        W31484   5.685  18.217   9.802
27417W        W31485   6.542  16.939  10.839
27418W        W31486   5.357  14.649   8.119
27419W        W31487   6.070  15.518   8.978
27420W        W31488   3.756  17.105   9.310
27421W        W31489   5.009  15.067   7.951
27422W        W31490   4.813  16.551  10.800
27423W        W31491   5.807  15.532   8.514
27424W        W31492   6.012  16.942   9.636
27425W        W31493   4.166  17.547  10.071
27426W        W31494   4.757  17.530  10.794
27427W        W31495   4.608  15.327   7.808
27428W        W31496   6.125  15.469   8.133
27429W        W31497   4.768  16.169   8.969
27430W        W31498   4.423  17.867   9.834
27431W        W31499   7.168  17.984   7.435
27432W        W31500   4.031  16.656  10.431
27433W        W31501   6.026  16.918   9.119
27434W        W31502   4.462  16.567   8.361
27435W        W31503   4.833  17.574   9.756
27436W        W31504   5.211  14.993   8.797
27437W        W31505   3.822  16.977   7.727
27438W        W31506   5.341  15.928   7.597
27439W        W31507   3.987  16.477   8.616
27440W        W31508   5.277  15.119  10.080
27441W        W31509   6.949  14.828   7.507
27442W        W31510   7.042  16.574  10.606
27443W        W31511   5.696  17.831  10.758
27444W        W31512   7.254  16.925  10.280
27445W        W31513   6.662  17.723  10.891
27446W        W31514   4.401  18.179   9.369
27447W        W31515   7.260  16.801   8.243
27448W        W31516   5.790  16.068   8.756
27449W        W31517   5.557  14.680   8.646
27450W        W31518   4.616  17.664   8.483
27451W        W31519   5.115  15.405   9.708
27452W        W31520   4.815  14.774   9.177
27453W        W31521   3.878  17.596   7.725
27454W        W31522   5.694  16.960   8.443
27455W        W31523   4.569  17.755  10.322
27456W        W31524   4.046  16.578   8.018
27457W        W31525   3.931  15.121   9.017
27458W        W31526   5.479  17.086   9.074
27459W        W31527   3.731  14.940   8.094
27460W        W31528   6.395  16.146  10.021
27461W        W31529   6.272  15.532   7.593
27462W        W31530   6.789  17.204   9.241
27463W        W31531   5.450  17.688   9.072
27464W        W31532   4.862  17.792   7.983
27465W        W31533   6.144  14.695   7.413
27466W        W31534   3.944  17.955   9.154
27467W        W31535   6.141  15.713  10.789
27468W        W31536   4.124  15.243  10.788
27469W        W31537   3.855  15.843   8.121
27470W        W31538   4.546  15.832   7.846
27471W        W31539   6.309  16.159  10.663
27472W        W31540   4.652  16.440   9.372
27473W        W31541   6.126  14.726   8.492
27474W        W31542   5.257  18.157   8.995
27475W        W31543   6.471  17.619   9.932
27476W        W31544   6.055  17.768   9.043
27477W        W31545   6.074  16.748   8.637
27478W        W31546   5.536  14.973   7.708
27479W        W31547   7.217  14.601   8.430
27480W        W31548   4.905  16.236   7.593
27481W        W31549   7.071  15.573   8.583
27482W        W31550   5.763  16.743   7.460
27483W        W31551   6.699  16.943  10.208
27484W        W31552   6.353  17.644   7.675
27485W        W31553   4.968  15.319  10.581
27486W        W31554   4.788  15.903   9.822
27487W        W31555   6.880  17.398  10.099
27488W        W31556   5.980  15.348  10.476
27489W        W31557   3.824  15.819  10.253
27490W        W31558   5.584  16.296   9.979
27491W        W31559   3.941  17.054   8.636
27492W        W31560   4.088  16.351   9.526
27493W        W31561   6.405  16.637   9.876
27494W        W31562   6.073  15.756  10.240
27495W        W31563   6.350  17.810   8.645
27496W        W31564   5.352  17.530   9.968
27497W        W31565   4.837  17.885   9.237
27498W        W31566   6.642  17.056   9.656
27499W        W31567   5.692  17.128  10.793
27500W        W31568   4.297  17.081   9.132
27501W        W31569   6.643  16.840   8.777
27502W        W31570   6.284  17.906   9.528
27503W        W31571   4.262  17.635   9.398
27504W        W31572   5.283  15.687  10.608
27505W        W31573   5.734  17.853   8.119
27506W        W31574   5.042  17.108  10.757
27507W        W31575   5.168  17.346   8.134
27508W        W31576   4.389  16.086   7.393
27509W        W31577   3.728  18.172  14.292
27510W        W31578   4.104  17.065  13.815
27511W        W31579   6.809  16.795  11.585
27512W        W31580   6.939  17.880  13.612
27513W        W31581   4.857  17.871  11.138
27514W        W31582   4.940  16.023  12.121
27515W        W31583   4.455  15.871  12.285
27516W        W31584   5.446  16.686  11.719
27517W        W31585   5.121  17.778  14.074
27518W        W31586   3.770  15.339  14.037
27519W        W31587   4.532  14.619  13.839
27520W        W31588   6.226  15.007  12.726
27521W        W31589   5.875  15.878  11.296
27522W        W31590   6.445  15.312  14.387
27523W        W31591   3.811  15.104  13.512
27524W        W31592   3.910  17.723  14.533
27525W        W31593   5.432  17.113  11.265
27526W        W31594   3.864  15.896  12.958
27527W        W31595   4.757  15.787  14.195
27528W        W31596   7.216  15.646  12.694
27529W        W31597   6.980  16.689  13.553
27530W        W31598   5.288  16.022  12.580
27531W        W31599   5.834  17.361  12.949
27532W        W31600   4.334  16.795  13.181
27533W        W31601   3.693  16.323  12.752
27534W        W31602   4.729  16.295  13.944
27535W        W31603   7.000  16.078  14.198
27536W        W31604   4.616  17.522  12.643
27537W        W31605   5.737  17.211  13.777
27538W        W31606   4.957  15.851  13.002
27539W        W31607   5.249  16.635  12.645
27540W        W31608   6.246  17.408  14.493
27541W        W31609   5.325  16.728  14.503
27542W        W31610   5.306  16.444  13.981
27543W        W31611   3.715  15.835  14.503
27544W        W31612   6.547  17.370  14.102
27545W        W31613   4.128  14.952  12.100
27546W        W31614   4.655  17.210  13.099
27547W        W31615   7.118  16.993  12.389
27548W        W31616   6.531  15.393  12.956
27549W        W31617   6.816  15.346  11.051
27550W        W31618   7.281  16.147  13.357
27551W        W31619   5.248  17.854  13.110
27552W        W31620   7.022  17.320  11.548
27553W        W31621   4.151  18.106  11.302
27554W        W31622   4.544  18.152  11.978
27555W        W31623   4.341  14.906  13.404
27556W        W31624   6.964  15.924  13.679
27557W        W31625   6.369  16.346  12.138
27558W        W31626   6.335  16.034  11.165
27559W        W31627   5.543  17.178  13.305
27560W        W31628   5.349  15.508  12.504
27561W        W31629   5.949  17.595  13.498
27562W        W31630   6.820  16.386  11.920
27563W        W31631   5.722  15.044  11.936
27564W        W31632   4.379  17.738  11.619
27565W        W31633   3.750  15.237  12.218
27566W        W31634   6.536  15.844  12.692
27567W        W31635   3.994  17.461  12.607
27568W        W31636   5.335  17.811  11.477
27569W        W31637   6.727  15.837  10.941
27570W        W31638   3.750  17.595  13.105
27571W        W31639   4.541  17.167  13.585
27572W        W31640   4.914  16.527  12.204
27573W        W31641   4.936  14.932  13.297
27574W        W31642   7.165  14.694  12.594
27575W        W31643   4.384  16.566  11.062
27576W        W31644   4.039  15.599  11.241
27577W        W31645   4.101  17.555  12.035
27578W        W31646   5.232  17.038  12.283
27579W        W31647   6.564  17.897  13.997
27580W        W31648   5.490  15.539  11.681
27581W        W31649   6.873  17.937  12.453
27582W        W31650   6.550  15.790  14.051
27583W        W31651   7.263  17.446  12.185
27584W        W31652   5.890  16.738  13.669
27585W        W31653   3.656  16.289  11.875
27586W        W31654   4.767  16.704  13.448
27587W        W31655   5.971  15.968  11.826
27588W        W31656   5.848  16.458  11.930
27589W        W31657   4.191  15.878  13.404
27590W        W31658   4.176  15.754  14.326
27591W        W31659   4.066  14.671  12.485
27592W        W31660   5.834  15.018  13.046
27593W        W31661   5.482  15.203  14.209
27594W        W31662   5.837  15.352  11.387
27595W        W31663   7.020  17.745  14.141
27596W        W31664   5.987  14.826  14.180
27597W        W31665   7.006  17.127  14.302
27598W        W31666   6.436  15.294  13.898
27599W        W31667   6.236  15.232  12.168
27600W        W31668   6.629  16.366  14.572
27601W        W31669   4.369  17.942  12.558
27602W        W31670   5.027  15.659  11.544
27603W        W31671   4.596  14.943  14.208
27604W        W31672   6.648  15.427  11.889
27605W        W31673   7.015  15.909  11.834
27606W        W31674   4.758  18.126  14.305
27607W        W31675   4.684  14.662  11.540
27608W        W31676   7.005  15.196  12.575
27609W        W31677   7.155  17.445  11.020
27610W        W31678   4.062  16.648  12.722
27611W        W31679   5.979  15.235  10.952
27612W        W31680   7.113  17.567  12.672
27613W        W31681   7.152  14.761  13.422
27614W        W31682   5.597  15.973  13.976
27615W        W31683   5.690  17.312  11.679
27616W        W31684   6.090  16.606  14.419
27617W        W31685   5.764  14.583  12.728
27618W        W31686   4.376  15.486  12.791
27619W        W31687   3.930  16.686  13.565
27620W        W31688   5.789  17.879  12.271
27621W        W31689   6.983  15.476  13.143
27622W        W31690   5.620  17.823  13.910
27623W        W31691   6.963  16.882  11.115
27624W        W31692   5.398  16.365  12.176
27625W        W31693   7.250  14.876  13.917
27626W        W31694   5.399  16.711  13.511
27627W        W31695   5.616  15.597  12.956
27628W        W31696   6.468  15.895  11.794
27629W        W31697   6.755  15.628  11.436
27630W        W31698   6.564  17.668  11.825
27631W        W31699   6.398  17.271  12.621
27632W        W31700   6.294  16.350  11.599
27633W        W31701   5.727  16.560  12.585
27634W        W31702   6.608  16.348  12.652
27635W        W31703   3.983  15.363  13.076
27636W        W31704   6.761  16.415  13.903
27637W        W31705   7.112  18.033  13.049
27638W        W31706   5.042  17.477  12.451
27639W        W31707   6.049  18.010  13.775
27640W        W31708   6.043  15.340  13.539
27641W        W31709   5.250  18.048  13.600
27642W        W31710   6.947  15.002  12.066
27643W        W31711   6.738  16.321  13.367
27644W        W31712   3.721  15.642  13.405
27645W        W31713   6.581  15.437  12.423
27646W        W31714   6.992  15.588  14.200
27647W        W31715   5.877  17.287  12.418
27648W        W31716   5.133  17.878  12.031
27649W        W31717   4.248  15.058  11.289
27650W        W31718   5.352  14.712  13.099
27651W        W31719   4.380  17.832  10.947
27652W        W31720   4.754  16.298  11.698
27653W        W31721   5.408  16.927  14.011
27654W        W31722   5.238  15.285  12.001
27655W        W31723   6.594  14.882  12.429
27656W        W31724   6.314  18.164  12.757
27657W        W31725   5.726  17.812  13.097
27658W        W31726   5.122  16.849  13.058
27659W        W31727   6.892  17.572  13.184
27660W        W31728   4.586  15.075  11.953
27661W        W31729   5.108  17.372  12.913
27662W        W31730   4.591  15.303  10.978
27663W        W31731   5.392  15.912  13.372
27664W        W31732   6.240  14.778  13.242
27665W        W31733   3.660  16.621  13.127
27666W        W31734   5.364  16.439  11.285
27667W        W31735   4.632  14.754  11.055
27668W        W31736   5.370  15.835  12.106
27669W        W31737   6.340  14.811  13.805
27670W        W31738   4.928  16.823  13.914
27671W        W31739   5.732  16.605  14.131
27672W        W31740   6.349  16.635  14.024
27673W        W31741   5.633  14.775  14.529
27674W        W31742   4.855  15.391  12.922
27675W        W31743   4.281  15.347  12.320
27676W        W31744   4.067  18.059  11.996
27677W        W31745   5.399  17.389  14.121
27678W        W31746   4.434  16.874  11.480
27679W        W31747   6.114  16.259  12.701
27680W        W31748   6.394  16.058  13.100
27681W        W31749   5.599  16.732  13.034
27682W        W31750   6.069  17.106  11.166
27683W        W31751   5.741  15.127  12.494
27684W        W31752   7.220  15.405  11.762
27685W        W31753   3.714  17.994  13.793
27686W        W31754   4.131  17.220  13.325
27687W        W31755   3.698  18.066  11.557
27688W        W31756   5.597  15.336  13.363
27689W        W31757   4.960  17.359  11.212
27690W        W31758   6.865  17.741  11.398
27691W        W31759   5.840  16.394  11.412
27692W        W31760   4.683  15.585  11.929
27693W        W31761   5.515  15.495  10.981
27694W        W31762   6.099  17.060  14.159
27695W        W31763   6.452  14.966  11.776
27696W        W31764   3.782  14.814  11.224
27697W        W31765   5.068  17.133  13.514
27698W        W31766   4.867  17.049  12.606
27699W        W31767   4.609  17.001  11.004
27700W        W31768   3.850  17.242  11.772
27701W        W31769   4.354  16.312  14.214
27702W        W31770   5.058  14.872  14.400
27703W        W31771   5.767  15.014  13.756
27704W        W31772   4.962  14.782  12.037
27705W        W31773   6.021  14.859  11.542
27706W        W31774   3.966  14.791  13.119
27707W        W31775   4.014  15.754  12.489
27708W        W31776   6.703  14.862  12.895
27709W        W31777   4.125  15.360  11.709
27710W        W31778   6.696  15.048  13.325
27711W        W31779   7.092  16.251  11.010
27712W        W31780   4.384  15.009  12.829
27713W        W31781   5.498  15.581  13.769
27714W        W31782   3.646  15.271  11.247
27715W        W31783   4.432  16.660  13.808
27716W        W31784   5.790  16.058  12.987
27717W        W31785   5.657  18.137  11.283
27718W        W31786   3.803  16.644  10.980
27719W        W31787   4.538  17.055  14.106
27720W        W31788   4.059  16.222  13.737
27721W        W31789   5.050  16.327  13.531
27722W        W31790   6.818  14.686  13.793
27723W        W31791   7.216  16.296  13.784
27724W        W31792   7.204  16.496  11.470
27725W        W31793   6.067  16.828  11.569
27726W        W31794   6.541  18.128  11.264
27727W        W31795   5.718  16.118  14.406
27728W        W31796   4.048  17.085  14.446
27729W        W31797   7.254  15.007  14.398
27730W        W31798   6.972  15.935  13.019
27731W        W31799   5.280  18.065  14.496
27732W        W31800   5.135  14.694  11.223
27733W        W31801   6.674  17.293  11.166
27734W        W31802   4.443  15.386  14.052
27735W        W31803   4.877  17.380  13.914
27736W        W31804   7.003  15.371  13.712
27737W        W31805   6.214  18.030  11.680
27738W        W31806   6.453  16.649  13.047
27739W        W31807   4.703  15.065  13.714
27740W        W31808   5.172  16.134  14.471
27741W        W31809   4.675  17.313  11.665
27742W        W31810   6.430  16.811  11.929
27743W        W31811   4.198  15.437  13.653
27744W        W31812   5.527  17.499  12.117
27745W        W31813   7.277  16.059  12.298
27746W        W31814   5.499  14.692  14.017
27747W        W31815   6.279  17.397  13.096
27748W        W31816   6.582  17.741  12.804
27749W        W31817   5.801  17.543  11.232
27750W        W31818   3.811  17.435  14.074
27751W        W31819   4.554  15.427  13.312
27752W        W31820   4.524  14.775  12.422
27753W        W31821   6.145  15.617  13.114
27754W        W31822   4.943  16.788  11.314
27755W        W31823   6.941  16.730  12.813
27756W        W31824   4.268  17.488  14.236
27757W        W31825   6.655  18.170  12.033
27758W        W31826   4.754  15.190  12.478
27759W        W31827   4.523  16.683  12.568
27760W        W31828   4.836  18.094  13.318
27761W        W31829   6.903  18.190  14.350
27762W        W31830   6.062  16.378  13.283
27763W        W31831   3.911  16.176  11.198
27764W        W31832   7.045  17.834  11.895
27765W        W31833   6.882  15.158  11.514
27766W        W31834   5.021  14.677  13.917
27767W        W31835   6.727  17.479  12.375
27768W        W31836   6.756  16.035  12.280
27769W        W31837   4.873  15.708  12.496
27770W        W31838   5.118  15.970  13.820
27771W        W31839   6.229  17.123  13.683
27772W        W31840   4.879  15.577  13.795
27773W        W31841   4.858  18.043  12.411
27774W        W31842   4.175  18.002  14.045
27775W        W31843   4.287  17.363  11.175
27776W        W31844   6.804  17.121  11.985
27777W        W31845   4.408  15.913  13.871
27778W        W31846   7.181  15.843  11.352
27779W        W31847   4.926  16.900  11.823
27780W        W31848   6.025  16.282  13.904
27781W        W31849   5.916  15.910  13.448
27782W        W31850   4.476  16.282  13.477
27783W        W31851   6.686  18.170  13.306
27784W        W31852   6.477  14.804  14.300
27785W        W31853   4.141  14.954  13.887
27786W        W31854   4.480  15.977  12.940
27787W        W31855   4.849  15.791  11.062
27788W        W31856   3.652  17.550  13.607
27789W        W31857   5.237  16.259  13.050
27790W        W31858   5.060  15.284  11.155
27791W        W31859   4.195  16.100  11.936
27792W        W31860   3.966  17.952  13.373
27793W        W31861   6.761  16.178  11.481
27794W        W31862   6.856  15.094  14.167
27795W        W31863   6.292  17.303  12.130
27796W        W31864   3.890  16.227  14.307
27797W        W31865   6.856  14.691  11.603
27798W        W31866   6.376  17.166  11.614
27799W        W31867   5.278  16.224  11.699
27800W        W31868   6.465  15.028  11.222
27801W        W31869   6.530  15.635  13.408
27802W        W31870   4.239  16.228  12.615
27803W        W31871   4.533  17.167  12.264
27804W        W31872   6.296  15.787  12.229
27805W        W31873   5.319  15.166  12.925
27806W        W31874   7.281  17.077  13.436
27807W        W31875   7.199  15.064  12.997
27808W        W31876   3.738  17.894  12.373
27809W        W31877   4.247  17.081  11.909
27810W        W31878   4.162  14.698  14.462
27811W        W31879   5.281  17.551  14.564
27812W        W31880   7.036  16.519  12.354
27813W        W31881   6.390  16.696  11.234
27814W        W31882   5.685  18.217  13.446
27815W        W31883   6.542  16.939  14.483
27816W        W31884   5.357  14.649  11.763
27817W        W31885   6.070  15.518  12.622
27818W        W31886   3.756  17.105  12.954
27819W        W31887   5.009  15.067  11.595
27820W        W31888   4.813  16.551  14.444
27821W        W31889   5.807  15.532  12.158
27822W        W31890   6.012  16.942  13.280
27823W        W31891   4.166  17.547  13.715
27824W        W31892   4.757  17.530  14.438
27825W        W31893   4.608  15.327  11.452
27826W        W31894   6.125  15.469  11.777
27827W        W31895   6.083  17.577  14.014
27828W        W31896   4.768  16.169  12.613
27829W        W31897   4.423  17.867  13.478
27830W        W31898   7.168  17.984  11.079
27831W        W31899   4.031  16.656  14.075
27832W        W31900   6.026  16.918  12.763
27833W        W31901   4.462  16.567  12.005
27834W        W31902   4.833  17.574  13.400
27835W        W31903   5.211  14.993  12.441
27836W        W31904   3.822  16.977  11.371
27837W        W31905   5.341  15.928  11.241
27838W        W31906   3.987  16.477  12.260
27839W        W31907   5.277  15.119  13.724
27840W        W31908   6.949  14.828  11.151
27841W        W31909   7.042  16.574  14.250
27842W        W31910   5.696  17.831  14.402
27843W        W31911   7.254  16.925  13.924
27844W        W31912   6.662  17.723  14.535
27845W        W31913   4.401  18.179  13.013
27846W        W31914   7.260  16.801  11.887
27847W        W31915   5.790  16.068  12.400
27848W        W31916   5.557  14.680  12.290
27849W        W31917   4.616  17.664  12.127
27850W        W31918   5.115  15.405  13.352
27851W        W31919   4.815  14.774  12.821
27852W        W31920   3.878  17.596  11.369
27853W        W31921   5.694  16.960  12.087
27854W        W31922   4.569  17.755  13.966
27855W        W31923   4.046  16.578  11.662
27856W        W31924   3.931  15.121  12.661
27857W        W31925   5.479  17.086  12.718
27858W        W31926   3.731  14.940  11.738
27859W        W31927   6.395  16.146  13.665
27860W        W31928   6.272  15.532  11.237
27861W        W31929   6.789  17.204  12.885
27862W        W31930   5.450  17.688  12.716
27863W        W31931   4.862  17.792  11.627
27864W        W31932   6.144  14.695  11.057
27865W        W31933   3.944  17.955  12.798
27866W        W31934   6.141  15.713  14.433
27867W        W31935   4.124  15.243  14.432
27868W        W31936   3.855  15.843  11.765
27869W        W31937   4.546  15.832  11.490
27870W        W31938   6.309  16.159  14.307
27871W        W31939   4.652  16.440  13.016
27872W        W31940   6.126  14.726  12.136
27873W        W31941   5.257  18.157  12.639
27874W        W31942   6.471  17.619  13.576
27875W        W31943   6.055  17.768  12.687
27876W        W31944   6.074  16.748  12.281
27877W        W31945   5.536  14.973  11.352
27878W        W31946   7.217  14.601  12.074
27879W        W31947   4.905  16.236  11.237
27880W        W31948   7.071  15.573  12.227
27881W        W31949   5.763  16.743  11.104
27882W        W31950   6.699  16.943  13.852
27883W        W31951   6.353  17.644  11.319
27884W        W31952   4.968  15.319  14.225
27885W        W31953   4.788  15.903  13.466
27886W        W31954   6.880  17.398  13.743
27887W        W31955   5.980  15.348  14.120
27888W        W31956   3.824  15.819  13.897
27889W        W31957   5.584  16.296  13.623
27890W        W31958   3.941  17.054  12.280
27891W        W31959   4.088  16.351  13.170
27892W        W31960   6.405  16.637  13.520
27893W        W31961   6.177  18.017  14.331
27894W        W31962   6.073  15.756  13.884
27895W        W31963   6.350  17.810  12.289
27896W        W31964   5.352  17.530  13.612
27897W        W31965   4.837  17.885  12.881
27898W        W31966   6.642  17.056  13.300
27899W        W31967   5.692  17.128  14.437
27900W        W31968   4.297  17.081  12.776
27901W        W31969   6.643  16.840  12.421
27902W        W31970   6.284  17.906  13.172
27903W        W31971   4.262  17.635  13.042
27904W        W31972   5.283  15.687  14.252
27905W        W31973   5.734  17.853  11.763
27906W        W31974   5.042  17.108  14.401
27907W        W31975   5.168  17.346  11.778
27908W        W31976   4.389  16.086  11.037
27909W        W31977   3.728  18.172  17.936
27910W        W31978   4.104  17.065  17.459
27911W        W31979   6.809  16.795  15.229
27912W        W31980   6.939  17.880  17.256
27913W        W31981   4.857  17.871  14.782
27914W        W31982   4.940  16.023  15.765
27915W        W31983   4.455  15.871  15.929
27916W        W31984   5.446  16.686  15.363
27917W        W31985   5.121  17.778  17.718
27918W        W31986   3.770  15.339  17.681
27919W        W31987   4.532  14.619  17.483
27920W        W31988   6.226  15.007  16.370
27921W        W31989   5.875  15.878  14.940
27922W        W31990   6.445  15.312  18.031
27923W        W31991   3.811  15.104  17.156
27924W        W31992   3.910  17.723  18.177
27925W        W31993   5.432  17.113  14.909
27926W        W31994   3.864  15.896  16.602
27927W        W31995   4.757  15.787  17.839
27928W        W31996   7.216  15.646  16.338
27929W        W31997   6.980  16.689  17.197
27930W        W31998   5.288  16.022  16.224
27931W        W31999   5.834  17.361  16.593
27932W        W32000   4.334  16.795  16.825
27933W        W32001   3.693  16.323  16.396
27934W        W32002   4.729  16.295  17.588
27935W        W32003   7.000  16.078  17.842
27936W        W32004   4.616  17.522  16.287
27937W        W32005   5.737  17.211  17.421
27938W        W32006   4.957  15.851  16.646
27939W        W32007   5.249  16.635  16.289
27940W        W32008   6.246  17.408  18.137
27941W        W32009   5.325  16.728  18.147
27942W        W32010   5.306  16.444  17.625
27943W        W32011   3.715  15.835  18.147
27944W        W32012   6.547  17.370  17.746
27945W        W32013   4.128  14.952  15.744
27946W        W32014   4.655  17.210  16.743
27947W        W32015   7.118  16.993  16.033
27948W        W32016   6.531  15.393  16.600
27949W        W32017   6.816  15.346  14.695
27950W        W32018   7.281  16.147  17.001
27951W        W32019   5.248  17.854  16.754
27952W        W32020   7.022  17.320  15.192
27953W        W32021   4.151  18.106  14.946
27954W        W32022   4.544  18.152  15.622
27955W        W32023   4.341  14.906  17.048
27956W        W32024   6.964  15.924  17.323
27957W        W32025   6.335  16.034  14.809
27958W        W32026   5.543  17.178  16.949
27959W        W32027   5.349  15.508  16.148
27960W        W32028   5.949  17.595  17.142
27961W        W32029   6.820  16.386  15.564
27962W        W32030   5.722  15.044  15.580
27963W        W32031   4.379  17.738  15.263
27964W        W32032   3.750  15.237  15.862
27965W        W32033   6.536  15.844  16.336
27966W        W32034   3.994  17.461  16.251
27967W        W32035   5.335  17.811  15.121
27968W        W32036   6.727  15.837  14.585
27969W        W32037   3.750  17.595  16.749
27970W        W32038   4.541  17.167  17.229
27971W        W32039   4.914  16.527  15.848
27972W        W32040   4.936  14.932  16.941
27973W        W32041   7.165  14.694  16.238
27974W        W32042   4.384  16.566  14.706
27975W        W32043   4.039  15.599  14.885
27976W        W32044   4.101  17.555  15.679
27977W        W32045   6.564  17.897  17.641
27978W        W32046   6.873  17.937  16.097
27979W        W32047   6.550  15.790  17.695
27980W        W32048   7.263  17.446  15.829
27981W        W32049   5.890  16.738  17.313
27982W        W32050   3.656  16.289  15.519
27983W        W32051   4.767  16.704  17.092
27984W        W32052   5.971  15.968  15.470
27985W        W32053   5.848  16.458  15.574
27986W        W32054   4.191  15.878  17.048
27987W        W32055   4.176  15.754  17.970
27988W        W32056   4.066  14.671  16.129
27989W        W32057   5.834  15.018  16.690
27990W        W32058   5.482  15.203  17.853
27991W        W32059   7.020  17.745  17.785
27992W        W32060   5.987  14.826  17.824
27993W        W32061   7.006  17.127  17.946
27994W        W32062   6.436  15.294  17.542
27995W        W32063   6.236  15.232  15.812
27996W        W32064   4.369  17.942  16.202
27997W        W32065   5.027  15.659  15.188
27998W        W32066   4.596  14.943  17.852
27999W        W32067   6.648  15.427  15.533
28000W        W32068   7.015  15.909  15.478
28001W        W32069   4.758  18.126  17.949
28002W        W32070   4.684  14.662  15.184
28003W        W32071   7.005  15.196  16.219
28004W        W32072   7.155  17.445  14.664
28005W        W32073   4.062  16.648  16.366
28006W        W32074   5.979  15.235  14.596
28007W        W32075   7.113  17.567  16.316
28008W        W32076   7.152  14.761  17.066
28009W        W32077   5.597  15.973  17.620
28010W        W32078   5.764  14.583  16.372
28011W        W32079   4.376  15.486  16.435
28012W        W32080   3.930  16.686  17.209
28013W        W32081   5.789  17.879  15.915
28014W        W32082   6.983  15.476  16.787
28015W        W32083   5.620  17.823  17.554
28016W        W32084   6.963  16.882  14.759
28017W        W32085   5.398  16.365  15.820
28018W        W32086   7.250  14.876  17.561
28019W        W32087   5.399  16.711  17.155
28020W        W32088   5.616  15.597  16.600
28021W        W32089   6.468  15.895  15.438
28022W        W32090   6.755  15.628  15.080
28023W        W32091   6.398  17.271  16.265
28024W        W32092   6.294  16.350  15.243
28025W        W32093   5.727  16.560  16.229
28026W        W32094   6.608  16.348  16.296
28027W        W32095   3.983  15.363  16.720
28028W        W32096   6.761  16.415  17.547
28029W        W32097   7.112  18.033  16.693
28030W        W32098   5.042  17.477  16.095
28031W        W32099   6.049  18.010  17.419
28032W        W32100   6.043  15.340  17.183
28033W        W32101   5.250  18.048  17.244
28034W        W32102   6.947  15.002  15.710
28035W        W32103   6.738  16.321  17.011
28036W        W32104   3.721  15.642  17.049
28037W        W32105   6.581  15.437  16.067
28038W        W32106   6.992  15.588  17.844
28039W        W32107   5.877  17.287  16.062
28040W        W32108   5.133  17.878  15.675
28041W        W32109   4.248  15.058  14.933
28042W        W32110   5.352  14.712  16.743
28043W        W32111   4.380  17.832  14.591
28044W        W32112   4.754  16.298  15.342
28045W        W32113   5.408  16.927  17.655
28046W        W32114   5.238  15.285  15.645
28047W        W32115   6.594  14.882  16.073
28048W        W32116   6.314  18.164  16.401
28049W        W32117   5.726  17.812  16.741
28050W        W32118   5.122  16.849  16.702
28051W        W32119   6.892  17.572  16.828
28052W        W32120   4.586  15.075  15.597
28053W        W32121   5.108  17.372  16.557
28054W        W32122   4.591  15.303  14.622
28055W        W32123   5.392  15.912  17.016
28056W        W32124   6.240  14.778  16.886
28057W        W32125   3.660  16.621  16.771
28058W        W32126   5.364  16.439  14.929
28059W        W32127   4.632  14.754  14.699
28060W        W32128   5.370  15.835  15.750
28061W        W32129   6.340  14.811  17.449
28062W        W32130   4.928  16.823  17.558
28063W        W32131   5.732  16.605  17.775
28064W        W32132   5.633  14.775  18.173
28065W        W32133   4.855  15.391  16.566
28066W        W32134   4.281  15.347  15.964
28067W        W32135   4.067  18.059  15.640
28068W        W32136   5.399  17.389  17.765
28069W        W32137   4.434  16.874  15.124
28070W        W32138   6.114  16.259  16.345
28071W        W32139   6.394  16.058  16.744
28072W        W32140   5.599  16.732  16.678
28073W        W32141   6.069  17.106  14.810
28074W        W32142   5.741  15.127  16.138
28075W        W32143   7.220  15.405  15.406
28076W        W32144   3.714  17.994  17.437
28077W        W32145   4.131  17.220  16.969
28078W        W32146   3.698  18.066  15.201
28079W        W32147   5.597  15.336  17.007
28080W        W32148   4.960  17.359  14.856
28081W        W32149   5.840  16.394  15.056
28082W        W32150   4.683  15.585  15.573
28083W        W32151   5.515  15.495  14.625
28084W        W32152   6.099  17.060  17.803
28085W        W32153   6.452  14.966  15.420
28086W        W32154   3.782  14.814  14.868
28087W        W32155   5.068  17.133  17.158
28088W        W32156   4.867  17.049  16.250
28089W        W32157   4.609  17.001  14.648
28090W        W32158   3.850  17.242  15.416
28091W        W32159   4.354  16.312  17.858
28092W        W32160   5.058  14.872  18.044
28093W        W32161   5.767  15.014  17.400
28094W        W32162   4.962  14.782  15.681
28095W        W32163   6.021  14.859  15.186
28096W        W32164   3.966  14.791  16.763
28097W        W32165   4.014  15.754  16.133
28098W        W32166   4.125  15.360  15.353
28099W        W32167   6.696  15.048  16.969
28100W        W32168   7.092  16.251  14.654
28101W        W32169   4.384  15.009  16.473
28102W        W32170   5.498  15.581  17.413
28103W        W32171   3.646  15.271  14.891
28104W        W32172   4.432  16.660  17.452
28105W        W32173   5.790  16.058  16.631
28106W        W32174   5.657  18.137  14.927
28107W        W32175   3.803  16.644  14.624
28108W        W32176   4.538  17.055  17.750
28109W        W32177   4.059  16.222  17.381
28110W        W32178   5.050  16.327  17.175
28111W        W32179   6.818  14.686  17.437
28112W        W32180   7.216  16.296  17.428
28113W        W32181   7.204  16.496  15.114
28114W        W32182   6.067  16.828  15.213
28115W        W32183   6.541  18.128  14.908
28116W        W32184   5.718  16.118  18.050
28117W        W32185   4.048  17.085  18.090
28118W        W32186   7.254  15.007  18.042
28119W        W32187   6.972  15.935  16.663
28120W        W32188   5.280  18.065  18.140
28121W        W32189   5.135  14.694  14.867
28122W        W32190   6.674  17.293  14.810
28123W        W32191   4.443  15.386  17.696
28124W        W32192   4.877  17.380  17.558
28125W        W32193   7.003  15.371  17.356
28126W        W32194   6.214  18.030  15.324
28127W        W32195   6.453  16.649  16.691
28128W        W32196   4.703  15.065  17.358
28129W        W32197   5.172  16.134  18.115
28130W        W32198   4.675  17.313  15.309
28131W        W32199   6.430  16.811  15.573
28132W        W32200   4.198  15.437  17.297
28133W        W32201   5.527  17.499  15.761
28134W        W32202   7.277  16.059  15.942
28135W        W32203   5.499  14.692  17.661
28136W        W32204   6.279  17.397  16.740
28137W        W32205   6.582  17.741  16.448
28138W        W32206   3.811  17.435  17.718
28139W        W32207   4.554  15.427  16.956
28140W        W32208   4.524  14.775  16.066
28141W        W32209   6.145  15.617  16.758
28142W        W32210   4.943  16.788  14.958
28143W        W32211   4.268  17.488  17.880
28144W        W32212   6.655  18.170  15.677
28145W        W32213   4.754  15.190  16.122
28146W        W32214   4.523  16.683  16.212
28147W        W32215   4.836  18.094  16.962
28148W        W32216   6.903  18.190  17.994
28149W        W32217   6.062  16.378  16.927
28150W        W32218   3.911  16.176  14.842
28151W        W32219   7.045  17.834  15.539
28152W        W32220   6.882  15.158  15.158
28153W        W32221   5.021  14.677  17.561
28154W        W32222   6.756  16.035  15.924
28155W        W32223   4.873  15.708  16.140
28156W        W32224   5.118  15.970  17.464
28157W        W32225   6.229  17.123  17.327
28158W        W32226   4.879  15.577  17.439
28159W        W32227   4.858  18.043  16.055
28160W        W32228   4.175  18.002  17.689
28161W        W32229   4.287  17.363  14.819
28162W        W32230   4.408  15.913  17.515
28163W        W32231   7.181  15.843  14.996
28164W        W32232   4.926  16.900  15.467
28165W        W32233   6.025  16.282  17.548
28166W        W32234   5.916  15.910  17.092
28167W        W32235   4.476  16.282  17.121
28168W        W32236   6.686  18.170  16.950
28169W        W32237   6.477  14.804  17.944
28170W        W32238   4.141  14.954  17.531
28171W        W32239   4.480  15.977  16.584
28172W        W32240   4.849  15.791  14.706
28173W        W32241   3.652  17.550  17.251
28174W        W32242   5.237  16.259  16.694
28175W        W32243   5.060  15.284  14.799
28176W        W32244   4.195  16.100  15.580
28177W        W32245   3.966  17.952  17.017
28178W        W32246   6.761  16.178  15.125
28179W        W32247   6.856  15.094  17.811
28180W        W32248   6.292  17.303  15.774
28181W        W32249   3.890  16.227  17.951
28182W        W32250   6.856  14.691  15.247
28183W        W32251   6.376  17.166  15.258
28184W        W32252   5.278  16.224  15.343
28185W        W32253   6.465  15.028  14.866
28186W        W32254   6.530  15.635  17.052
28187W        W32255   4.239  16.228  16.259
28188W        W32256   4.533  17.167  15.908
28189W        W32257   6.296  15.787  15.873
28190W        W32258   5.319  15.166  16.569
28191W        W32259   7.281  17.077  17.080
28192W        W32260   7.199  15.064  16.641
28193W        W32261   3.738  17.894  16.017
28194W        W32262   4.247  17.081  15.553
28195W        W32263   4.162  14.698  18.106
28196W        W32264   5.281  17.551  18.208
28197W        W32265   6.390  16.696  14.878
28198W        W32266   5.685  18.217  17.090
28199W        W32267   6.542  16.939  18.127
28200W        W32268   5.357  14.649  15.407
28201W        W32269   6.070  15.518  16.266
28202W        W32270   3.756  17.105  16.598
28203W        W32271   4.813  16.551  18.088
28204W        W32272   5.807  15.532  15.802
28205W        W32273   6.012  16.942  16.924
28206W        W32274   4.166  17.547  17.359
28207W        W32275   4.757  17.530  18.082
28208W        W32276   4.608  15.327  15.096
28209W        W32277   6.125  15.469  15.421
28210W        W32278   6.083  17.577  17.658
28211W        W32279   4.768  16.169  16.257
28212W        W32280   4.423  17.867  17.122
28213W        W32281   7.168  17.984  14.723
28214W        W32282   4.031  16.656  17.719
28215W        W32283   6.026  16.918  16.407
28216W        W32284   4.462  16.567  15.649
28217W        W32285   4.833  17.574  17.044
28218W        W32286   5.211  14.993  16.085
28219W        W32287   3.822  16.977  15.015
28220W        W32288   3.987  16.477  15.904
28221W        W32289   5.277  15.119  17.368
28222W        W32290   6.949  14.828  14.795
28223W        W32291   7.042  16.574  17.894
28224W        W32292   5.696  17.831  18.046
28225W        W32293   7.254  16.925  17.568
28226W        W32294   6.662  17.723  18.179
28227W        W32295   4.401  18.179  16.657
28228W        W32296   7.260  16.801  15.531
28229W        W32297   5.790  16.068  16.044
28230W        W32298   5.557  14.680  15.934
28231W        W32299   4.616  17.664  15.771
28232W        W32300   5.115  15.405  16.996
28233W        W32301   4.815  14.774  16.465
28234W        W32302   3.878  17.596  15.013
28235W        W32303   4.569  17.755  17.610
28236W        W32304   4.046  16.578  15.306
28237W        W32305   3.931  15.121  16.305
28238W        W32306   3.731  14.940  15.382
28239W        W32307   6.395  16.146  17.309
28240W        W32308   6.272  15.532  14.881
28241W        W32309   6.789  17.204  16.529
28242W        W32310   5.450  17.688  16.360
28243W        W32311   4.862  17.792  15.271
28244W        W32312   6.144  14.695  14.701
28245W        W32313   3.944  17.955  16.442
28246W        W32314   6.141  15.713  18.077
28247W        W32315   4.124  15.243  18.076
28248W        W32316   3.855  15.843  15.409
28249W        W32317   4.546  15.832  15.134
28250W        W32318   4.652  16.440  16.660
28251W        W32319   6.126  14.726  15.780
28252W        W32320   5.257  18.157  16.283
28253W        W32321   6.471  17.619  17.220
28254W        W32322   6.055  17.768  16.331
28255W        W32323   5.536  14.973  14.996
28256W        W32324   7.217  14.601  15.718
28257W        W32325   4.905  16.236  14.881
28258W        W32326   7.071  15.573  15.871
28259W        W32327   5.763  16.743  14.748
28260W        W32328   6.699  16.943  17.496
28261W        W32329   4.968  15.319  17.869
28262W        W32330   4.788  15.903  17.110
28263W        W32331   6.880  17.398  17.387
28264W        W32332   5.980  15.348  17.764
28265W        W32333   3.824  15.819  17.541
28266W        W32334   5.584  16.296  17.267
28267W        W32335   3.941  17.054  15.924
28268W        W32336   4.088  16.351  16.814
28269W        W32337   6.405  16.637  17.164
28270W        W32338   6.073  15.756  17.528
28271W        W32339   6.350  17.810  15.933
28272W        W32340   5.352  17.530  17.256
28273W        W32341   4.837  17.885  16.525
28274W        W32342   6.642  17.056  16.944
28275W        W32343   5.692  17.128  18.081
28276W        W32344   4.297  17.081  16.420
28277W        W32345   6.643  16.840  16.065
28278W        W32346   6.284  17.906  16.816
28279W        W32347   4.262  17.635  16.686
28280W        W32348   5.283  15.687  17.896
28281W        W32349   5.734  17.853  15.407
28282W        W32350   5.042  17.108  18.045
28283W        W32351   5.168  17.346  15.422
28284W        W32352   4.389  16.086  14.681
28285W        W32353   3.728  18.172  21.580
28286W        W32354   4.104  17.065  21.103
28287W        W32355   6.809  16.795  18.873
28288W        W32356   6.939  17.880  20.900
28289W        W32357   4.857  17.871  18.426
28290W        W32358   4.940  16.023  19.409
28291W        W32359   4.455  15.871  19.573
28292W        W32360   5.446  16.686  19.007
28293W        W32361   5.121  17.778  21.362
28294W        W32362   3.770  15.339  21.325
28295W        W32363   4.532  14.619  21.127
28296W        W32364   6.226  15.007  20.014
28297W        W32365   6.445  15.312  21.675
28298W        W32366   3.811  15.104  20.800
28299W        W32367   3.910  17.723  21.821
28300W        W32368   5.432  17.113  18.553
28301W        W32369   3.864  15.896  20.246
28302W        W32370   4.757  15.787  21.483
28303W        W32371   7.216  15.646  19.982
28304W        W32372   6.980  16.689  20.841
28305W        W32373   5.288  16.022  19.868
28306W        W32374   5.834  17.361  20.237
28307W        W32375   4.334  16.795  20.469
28308W        W32376   3.693  16.323  20.040
28309W        W32377   4.729  16.295  21.232
28310W        W32378   7.000  16.078  21.486
28311W        W32379   4.616  17.522  19.931
28312W        W32380   5.737  17.211  21.065
28313W        W32381   4.957  15.851  20.290
28314W        W32382   5.249  16.635  19.933
28315W        W32383   6.246  17.408  21.781
28316W        W32384   5.325  16.728  21.791
28317W        W32385   5.306  16.444  21.269
28318W        W32386   3.715  15.835  21.791
28319W        W32387   6.547  17.370  21.390
28320W        W32388   4.128  14.952  19.388
28321W        W32389   4.655  17.210  20.387
28322W        W32390   7.118  16.993  19.677
28323W        W32391   6.531  15.393  20.244
28324W        W32392   6.816  15.346  18.339
28325W        W32393   7.281  16.147  20.645
28326W        W32394   5.248  17.854  20.398
28327W        W32395   7.022  17.320  18.836
28328W        W32396   4.151  18.106  18.590
28329W        W32397   4.544  18.152  19.266
28330W        W32398   4.341  14.906  20.692
28331W        W32399   6.964  15.924  20.967
28332W        W32400   6.369  16.346  19.426
28333W        W32401   6.335  16.034  18.453
28334W        W32402   5.543  17.178  20.593
28335W        W32403   5.349  15.508  19.792
28336W        W32404   5.949  17.595  20.786
28337W        W32405   6.820  16.386  19.208
28338W        W32406   5.722  15.044  19.224
28339W        W32407   4.379  17.738  18.907
28340W        W32408   3.750  15.237  19.506
28341W        W32409   6.536  15.844  19.980
28342W        W32410   3.994  17.461  19.895
28343W        W32411   5.335  17.811  18.765
28344W        W32412   6.727  15.837  18.229
28345W        W32413   3.750  17.595  20.393
28346W        W32414   4.541  17.167  20.873
28347W        W32415   4.914  16.527  19.492
28348W        W32416   4.936  14.932  20.585
28349W        W32417   7.165  14.694  19.882
28350W        W32418   4.384  16.566  18.350
28351W        W32419   4.039  15.599  18.529
28352W        W32420   4.101  17.555  19.323
28353W        W32421   5.232  17.038  19.571
28354W        W32422   6.564  17.897  21.285
28355W        W32423   5.490  15.539  18.969
28356W        W32424   6.873  17.937  19.741
28357W        W32425   6.550  15.790  21.339
28358W        W32426   7.263  17.446  19.473
28359W        W32427   5.890  16.738  20.957
28360W        W32428   3.656  16.289  19.163
28361W        W32429   4.767  16.704  20.736
28362W        W32430   5.971  15.968  19.114
28363W        W32431   5.848  16.458  19.218
28364W        W32432   4.191  15.878  20.692
28365W        W32433   4.176  15.754  21.614
28366W        W32434   4.066  14.671  19.773
28367W        W32435   5.834  15.018  20.334
28368W        W32436   5.482  15.203  21.497
28369W        W32437   5.837  15.352  18.675
28370W        W32438   7.020  17.745  21.429
28371W        W32439   5.987  14.826  21.468
28372W        W32440   7.006  17.127  21.590
28373W        W32441   6.436  15.294  21.186
28374W        W32442   6.236  15.232  19.456
28375W        W32443   6.629  16.366  21.860
28376W        W32444   4.369  17.942  19.846
28377W        W32445   5.027  15.659  18.832
28378W        W32446   4.596  14.943  21.496
28379W        W32447   6.648  15.427  19.177
28380W        W32448   7.015  15.909  19.122
28381W        W32449   4.758  18.126  21.593
28382W        W32450   4.684  14.662  18.828
28383W        W32451   7.005  15.196  19.863
28384W        W32452   7.155  17.445  18.308
28385W        W32453   4.062  16.648  20.010
28386W        W32454   5.979  15.235  18.240
28387W        W32455   7.113  17.567  19.960
28388W        W32456   7.152  14.761  20.710
28389W        W32457   5.597  15.973  21.264
28390W        W32458   5.690  17.312  18.967
28391W        W32459   6.090  16.606  21.707
28392W        W32460   5.764  14.583  20.016
28393W        W32461   4.376  15.486  20.079
28394W        W32462   3.930  16.686  20.853
28395W        W32463   5.789  17.879  19.559
28396W        W32464   6.983  15.476  20.431
28397W        W32465   5.620  17.823  21.198
28398W        W32466   6.963  16.882  18.403
28399W        W32467   5.398  16.365  19.464
28400W        W32468   7.250  14.876  21.205
28401W        W32469   5.399  16.711  20.799
28402W        W32470   5.616  15.597  20.244
28403W        W32471   6.468  15.895  19.082
28404W        W32472   6.755  15.628  18.724
28405W        W32473   6.564  17.668  19.113
28406W        W32474   6.398  17.271  19.909
28407W        W32475   6.294  16.350  18.887
28408W        W32476   5.727  16.560  19.873
28409W        W32477   6.608  16.348  19.940
28410W        W32478   3.983  15.363  20.364
28411W        W32479   6.761  16.415  21.191
28412W        W32480   7.112  18.033  20.337
28413W        W32481   5.042  17.477  19.739
28414W        W32482   6.049  18.010  21.063
28415W        W32483   6.043  15.340  20.827
28416W        W32484   5.250  18.048  20.888
28417W        W32485   6.947  15.002  19.354
28418W        W32486   6.738  16.321  20.655
28419W        W32487   3.721  15.642  20.693
28420W        W32488   6.581  15.437  19.711
28421W        W32489   6.992  15.588  21.488
28422W        W32490   5.877  17.287  19.706
28423W        W32491   5.133  17.878  19.319
28424W        W32492   4.248  15.058  18.577
28425W        W32493   5.352  14.712  20.387
28426W        W32494   4.380  17.832  18.235
28427W        W32495   4.754  16.298  18.986
28428W        W32496   5.408  16.927  21.299
28429W        W32497   5.238  15.285  19.289
28430W        W32498   6.594  14.882  19.717
28431W        W32499   6.314  18.164  20.045
28432W        W32500   5.726  17.812  20.385
28433W        W32501   5.122  16.849  20.346
28434W        W32502   6.892  17.572  20.472
28435W        W32503   4.586  15.075  19.241
28436W        W32504   5.108  17.372  20.201
28437W        W32505   4.591  15.303  18.266
28438W        W32506   5.392  15.912  20.660
28439W        W32507   6.240  14.778  20.530
28440W        W32508   3.660  16.621  20.415
28441W        W32509   5.364  16.439  18.573
28442W        W32510   4.632  14.754  18.343
28443W        W32511   5.370  15.835  19.394
28444W        W32512   6.340  14.811  21.093
28445W        W32513   4.928  16.823  21.202
28446W        W32514   5.732  16.605  21.419
28447W        W32515   6.349  16.635  21.312
28448W        W32516   5.633  14.775  21.817
28449W        W32517   4.855  15.391  20.210
28450W        W32518   4.281  15.347  19.608
28451W        W32519   4.067  18.059  19.284
28452W        W32520   5.399  17.389  21.409
28453W        W32521   4.434  16.874  18.768
28454W        W32522   6.114  16.259  19.989
28455W        W32523   6.394  16.058  20.388
28456W        W32524   5.599  16.732  20.322
28457W        W32525   6.069  17.106  18.454
28458W        W32526   5.741  15.127  19.782
28459W        W32527   7.220  15.405  19.050
28460W        W32528   3.714  17.994  21.081
28461W        W32529   4.131  17.220  20.613
28462W        W32530   3.698  18.066  18.845
28463W        W32531   5.597  15.336  20.651
28464W        W32532   4.960  17.359  18.500
28465W        W32533   6.865  17.741  18.686
28466W        W32534   5.840  16.394  18.700
28467W        W32535   4.683  15.585  19.217
28468W        W32536   5.515  15.495  18.269
28469W        W32537   6.099  17.060  21.447
28470W        W32538   6.452  14.966  19.064
28471W        W32539   3.782  14.814  18.512
28472W        W32540   5.068  17.133  20.802
28473W        W32541   4.867  17.049  19.894
28474W        W32542   4.609  17.001  18.292
28475W        W32543   3.850  17.242  19.060
28476W        W32544   4.354  16.312  21.502
28477W        W32545   5.058  14.872  21.688
28478W        W32546   5.767  15.014  21.044
28479W        W32547   4.962  14.782  19.325
28480W        W32548   6.021  14.859  18.830
28481W        W32549   3.966  14.791  20.407
28482W        W32550   4.014  15.754  19.777
28483W        W32551   6.703  14.862  20.183
28484W        W32552   4.125  15.360  18.997
28485W        W32553   6.696  15.048  20.613
28486W        W32554   7.092  16.251  18.298
28487W        W32555   4.384  15.009  20.117
28488W        W32556   5.498  15.581  21.057
28489W        W32557   3.646  15.271  18.535
28490W        W32558   4.432  16.660  21.096
28491W        W32559   5.790  16.058  20.275
28492W        W32560   5.657  18.137  18.571
28493W        W32561   3.803  16.644  18.268
28494W        W32562   4.538  17.055  21.394
28495W        W32563   4.059  16.222  21.025
28496W        W32564   5.050  16.327  20.819
28497W        W32565   6.818  14.686  21.081
28498W        W32566   7.216  16.296  21.072
28499W        W32567   7.204  16.496  18.758
28500W        W32568   6.067  16.828  18.857
28501W        W32569   6.541  18.128  18.552
28502W        W32570   5.718  16.118  21.694
28503W        W32571   4.048  17.085  21.734
28504W        W32572   7.254  15.007  21.686
28505W        W32573   6.972  15.935  20.307
28506W        W32574   5.280  18.065  21.784
28507W        W32575   5.135  14.694  18.511
28508W        W32576   6.674  17.293  18.454
28509W        W32577   4.443  15.386  21.340
28510W        W32578   4.877  17.380  21.202
28511W        W32579   7.003  15.371  21.000
28512W        W32580   6.214  18.030  18.968
28513W        W32581   6.453  16.649  20.335
28514W        W32582   4.703  15.065  21.002
28515W        W32583   5.172  16.134  21.759
28516W        W32584   4.675  17.313  18.953
28517W        W32585   6.430  16.811  19.217
28518W        W32586   4.198  15.437  20.941
28519W        W32587   5.527  17.499  19.405
28520W        W32588   7.277  16.059  19.586
28521W        W32589   5.499  14.692  21.305
28522W        W32590   6.279  17.397  20.384
28523W        W32591   6.582  17.741  20.092
28524W        W32592   5.801  17.543  18.520
28525W        W32593   3.811  17.435  21.362
28526W        W32594   4.554  15.427  20.600
28527W        W32595   4.524  14.775  19.710
28528W        W32596   6.145  15.617  20.402
28529W        W32597   4.943  16.788  18.602
28530W        W32598   6.941  16.730  20.101
28531W        W32599   4.268  17.488  21.524
28532W        W32600   6.655  18.170  19.321
28533W        W32601   4.754  15.190  19.766
28534W        W32602   4.523  16.683  19.856
28535W        W32603   4.836  18.094  20.606
28536W        W32604   6.903  18.190  21.638
28537W        W32605   6.062  16.378  20.571
28538W        W32606   3.911  16.176  18.486
28539W        W32607   7.045  17.834  19.183
28540W        W32608   6.882  15.158  18.802
28541W        W32609   5.021  14.677  21.205
28542W        W32610   6.727  17.479  19.663
28543W        W32611   6.756  16.035  19.568
28544W        W32612   4.873  15.708  19.784
28545W        W32613   5.118  15.970  21.108
28546W        W32614   6.229  17.123  20.971
28547W        W32615   4.879  15.577  21.083
28548W        W32616   4.858  18.043  19.699
28549W        W32617   4.175  18.002  21.333
28550W        W32618   4.287  17.363  18.463
28551W        W32619   6.804  17.121  19.273
28552W        W32620   4.408  15.913  21.159
28553W        W32621   7.181  15.843  18.640
28554W        W32622   4.926  16.900  19.111
28555W        W32623   6.025  16.282  21.192
28556W        W32624   5.916  15.910  20.736
28557W        W32625   4.476  16.282  20.765
28558W        W32626   6.686  18.170  20.594
28559W        W32627   6.477  14.804  21.588
28560W        W32628   4.141  14.954  21.175
28561W        W32629   4.480  15.977  20.228
28562W        W32630   4.849  15.791  18.350
28563W        W32631   3.652  17.550  20.895
28564W        W32632   5.237  16.259  20.338
28565W        W32633   5.060  15.284  18.443
28566W        W32634   4.195  16.100  19.224
28567W        W32635   3.966  17.952  20.661
28568W        W32636   6.761  16.178  18.769
28569W        W32637   6.856  15.094  21.455
28570W        W32638   6.292  17.303  19.418
28571W        W32639   3.890  16.227  21.595
28572W        W32640   6.856  14.691  18.891
28573W        W32641   6.376  17.166  18.902
28574W        W32642   5.278  16.224  18.987
28575W        W32643   6.465  15.028  18.510
28576W        W32644   6.530  15.635  20.696
28577W        W32645   4.239  16.228  19.903
28578W        W32646   4.533  17.167  19.552
28579W        W32647   6.296  15.787  19.517
28580W        W32648   5.319  15.166  20.213
28581W        W32649   7.281  17.077  20.724
28582W        W32650   7.199  15.064  20.285
28583W        W32651   3.738  17.894  19.661
28584W        W32652   4.247  17.081  19.197
28585W        W32653   4.162  14.698  21.750
28586W        W32654   5.281  17.551  21.852
28587W        W32655   7.036  16.519  19.642
28588W        W32656   5.685  18.217  20.734
28589W        W32657   6.542  16.939  21.771
28590W        W32658   5.357  14.649  19.051
28591W        W32659   6.070  15.518  19.910
28592W        W32660   3.756  17.105  20.242
28593W        W32661   5.009  15.067  18.883
28594W        W32662   4.813  16.551  21.732
28595W        W32663   5.807  15.532  19.446
28596W        W32664   6.012  16.942  20.568
28597W        W32665   4.166  17.547  21.003
28598W        W32666   4.757  17.530  21.726
28599W        W32667   4.608  15.327  18.740
28600W        W32668   6.125  15.469  19.065
28601W        W32669   6.083  17.577  21.302
28602W        W32670   4.768  16.169  19.901
28603W        W32671   4.423  17.867  20.766
28604W        W32672   7.168  17.984  18.367
28605W        W32673   4.031  16.656  21.363
28606W        W32674   6.026  16.918  20.051
28607W        W32675   4.462  16.567  19.293
28608W        W32676   4.833  17.574  20.688
28609W        W32677   5.211  14.993  19.729
28610W        W32678   3.822  16.977  18.659
28611W        W32679   5.341  15.928  18.529
28612W        W32680   3.987  16.477  19.548
28613W        W32681   5.277  15.119  21.012
28614W        W32682   6.949  14.828  18.439
28615W        W32683   7.042  16.574  21.538
28616W        W32684   5.696  17.831  21.690
28617W        W32685   7.254  16.925  21.212
28618W        W32686   6.662  17.723  21.823
28619W        W32687   4.401  18.179  20.301
28620W        W32688   7.260  16.801  19.175
28621W        W32689   5.790  16.068  19.688
28622W        W32690   5.557  14.680  19.578
28623W        W32691   4.616  17.664  19.415
28624W        W32692   5.115  15.405  20.640
28625W        W32693   4.815  14.774  20.109
28626W        W32694   3.878  17.596  18.657
28627W        W32695   5.694  16.960  19.375
28628W        W32696   4.569  17.755  21.254
28629W        W32697   4.046  16.578  18.950
28630W        W32698   3.931  15.121  19.949
28631W        W32699   5.479  17.086  20.006
28632W        W32700   3.731  14.940  19.026
28633W        W32701   6.395  16.146  20.953
28634W        W32702   6.272  15.532  18.525
28635W        W32703   6.789  17.204  20.173
28636W        W32704   5.450  17.688  20.004
28637W        W32705   4.862  17.792  18.915
28638W        W32706   6.144  14.695  18.345
28639W        W32707   3.944  17.955  20.086
28640W        W32708   6.141  15.713  21.721
28641W        W32709   4.124  15.243  21.720
28642W        W32710   3.855  15.843  19.053
28643W        W32711   4.546  15.832  18.778
28644W        W32712   6.309  16.159  21.595
28645W        W32713   4.652  16.440  20.304
28646W        W32714   6.126  14.726  19.424
28647W        W32715   5.257  18.157  19.927
28648W        W32716   6.471  17.619  20.864
28649W        W32717   6.055  17.768  19.975
28650W        W32718   6.074  16.748  19.569
28651W        W32719   5.536  14.973  18.640
28652W        W32720   7.217  14.601  19.362
28653W        W32721   4.905  16.236  18.525
28654W        W32722   7.071  15.573  19.515
28655W        W32723   6.699  16.943  21.140
28656W        W32724   6.353  17.644  18.607
28657W        W32725   4.968  15.319  21.513
28658W        W32726   4.788  15.903  20.754
28659W        W32727   6.880  17.398  21.031
28660W        W32728   5.980  15.348  21.408
28661W        W32729   3.824  15.819  21.185
28662W        W32730   5.584  16.296  20.911
28663W        W32731   3.941  17.054  19.568
28664W        W32732   4.088  16.351  20.458
28665W        W32733   6.405  16.637  20.808
28666W        W32734   6.177  18.017  21.619
28667W        W32735   6.073  15.756  21.172
28668W        W32736   6.350  17.810  19.577
28669W        W32737   5.352  17.530  20.900
28670W        W32738   4.837  17.885  20.169
28671W        W32739   6.642  17.056  20.588
28672W        W32740   5.692  17.128  21.725
28673W        W32741   4.297  17.081  20.064
28674W        W32742   6.643  16.840  19.709
28675W        W32743   6.284  17.906  20.460
28676W        W32744   4.262  17.635  20.330
28677W        W32745   5.283  15.687  21.540
28678W        W32746   5.734  17.853  19.051
28679W        W32747   5.042  17.108  21.689
28680W        W32748   5.168  17.346  19.066
28681W        W32749   4.389  16.086  18.325
28682W        W32750   6.809  16.795  22.518
28683W        W32751   4.857  17.871  22.071
28684W        W32752   4.940  16.023  23.054
28685W        W32753   4.455  15.871  23.218
28686W        W32754   5.446  16.686  22.652
28687W        W32755   5.875  15.878  22.229
28688W        W32756   5.432  17.113  22.198
28689W        W32757   4.128  14.952  23.033
28690W        W32758   6.816  15.346  21.984
28691W        W32759   7.022  17.320  22.481
28692W        W32760   4.151  18.106  22.235
28693W        W32761   4.544  18.152  22.911
28694W        W32762   6.369  16.346  23.071
28695W        W32763   6.335  16.034  22.098
28696W        W32764   6.820  16.386  22.853
28697W        W32765   5.722  15.044  22.869
28698W        W32766   4.379  17.738  22.552
28699W        W32767   5.335  17.811  22.410
28700W        W32768   6.727  15.837  21.874
28701W        W32769   4.914  16.527  23.137
28702W        W32770   4.384  16.566  21.995
28703W        W32771   4.039  15.599  22.174
28704W        W32772   4.101  17.555  22.968
28705W        W32773   5.232  17.038  23.216
28706W        W32774   5.490  15.539  22.614
28707W        W32775   3.656  16.289  22.808
28708W        W32776   5.971  15.968  22.759
28709W        W32777   5.848  16.458  22.863
28710W        W32778   5.837  15.352  22.320
28711W        W32779   6.236  15.232  23.101
28712W        W32780   5.027  15.659  22.477
28713W        W32781   6.648  15.427  22.822
28714W        W32782   7.015  15.909  22.767
28715W        W32783   4.684  14.662  22.473
28716W        W32784   7.155  17.445  21.953
28717W        W32785   5.979  15.235  21.885
28718W        W32786   5.690  17.312  22.612
28719W        W32787   5.789  17.879  23.204
28720W        W32788   6.963  16.882  22.048
28721W        W32789   5.398  16.365  23.109
28722W        W32790   6.468  15.895  22.727
28723W        W32791   6.755  15.628  22.369
28724W        W32792   6.564  17.668  22.758
28725W        W32793   6.294  16.350  22.532
28726W        W32794   6.947  15.002  22.999
28727W        W32795   5.133  17.878  22.964
28728W        W32796   4.248  15.058  22.222
28729W        W32797   4.380  17.832  21.880
28730W        W32798   4.754  16.298  22.631
28731W        W32799   5.238  15.285  22.934
28732W        W32800   4.586  15.075  22.886
28733W        W32801   4.591  15.303  21.911
28734W        W32802   5.364  16.439  22.218
28735W        W32803   4.632  14.754  21.988
28736W        W32804   5.370  15.835  23.039
28737W        W32805   4.281  15.347  23.253
28738W        W32806   4.067  18.059  22.929
28739W        W32807   4.434  16.874  22.413
28740W        W32808   6.069  17.106  22.099
28741W        W32809   7.220  15.405  22.695
28742W        W32810   3.698  18.066  22.490
28743W        W32811   4.960  17.359  22.145
28744W        W32812   6.865  17.741  22.331
28745W        W32813   5.840  16.394  22.345
28746W        W32814   4.683  15.585  22.862
28747W        W32815   5.515  15.495  21.914
28748W        W32816   6.452  14.966  22.709
28749W        W32817   3.782  14.814  22.157
28750W        W32818   4.609  17.001  21.937
28751W        W32819   3.850  17.242  22.705
28752W        W32820   4.962  14.782  22.970
28753W        W32821   6.021  14.859  22.475
28754W        W32822   4.125  15.360  22.642
28755W        W32823   7.092  16.251  21.943
28756W        W32824   3.646  15.271  22.180
28757W        W32825   5.657  18.137  22.216
28758W        W32826   3.803  16.644  21.913
28759W        W32827   7.204  16.496  22.403
28760W        W32828   6.067  16.828  22.502
28761W        W32829   6.541  18.128  22.197
28762W        W32830   5.135  14.694  22.156
28763W        W32831   6.674  17.293  22.099
28764W        W32832   6.214  18.030  22.613
28765W        W32833   4.675  17.313  22.598
28766W        W32834   6.430  16.811  22.862
28767W        W32835   5.527  17.499  23.050
28768W        W32836   7.277  16.059  23.231
28769W        W32837   5.801  17.543  22.165
28770W        W32838   4.943  16.788  22.247
28771W        W32839   6.655  18.170  22.966
28772W        W32840   3.911  16.176  22.131
28773W        W32841   7.045  17.834  22.828
28774W        W32842   6.882  15.158  22.447
28775W        W32843   6.756  16.035  23.213
28776W        W32844   4.287  17.363  22.108
28777W        W32845   6.804  17.121  22.918
28778W        W32846   7.181  15.843  22.285
28779W        W32847   4.926  16.900  22.756
28780W        W32848   4.849  15.791  21.995
28781W        W32849   5.060  15.284  22.088
28782W        W32850   4.195  16.100  22.869
28783W        W32851   6.761  16.178  22.414
28784W        W32852   6.292  17.303  23.063
28785W        W32853   6.856  14.691  22.536
28786W        W32854   6.376  17.166  22.547
28787W        W32855   5.278  16.224  22.632
28788W        W32856   6.465  15.028  22.155
28789W        W32857   4.533  17.167  23.197
28790W        W32858   6.296  15.787  23.162
28791W        W32859   3.738  17.894  23.306
28792W        W32860   4.247  17.081  22.842
28793W        W32861   7.036  16.519  23.287
28794W        W32862   6.390  16.696  22.167
28795W        W32863   5.357  14.649  22.696
28796W        W32864   5.009  15.067  22.528
28797W        W32865   5.807  15.532  23.091
28798W        W32866   4.608  15.327  22.385
28799W        W32867   6.125  15.469  22.710
28800W        W32868   7.168  17.984  22.012
28801W        W32869   3.822  16.977  22.304
28802W        W32870   5.341  15.928  22.174
28803W        W32871   3.987  16.477  23.193
28804W        W32872   6.949  14.828  22.084
28805W        W32873   7.260  16.801  22.820
28806W        W32874   5.557  14.680  23.223
28807W        W32875   4.616  17.664  23.060
28808W        W32876   3.878  17.596  22.302
28809W        W32877   5.694  16.960  23.020
28810W        W32878   4.046  16.578  22.595
28811W        W32879   3.731  14.940  22.671
28812W        W32880   6.272  15.532  22.170
28813W        W32881   4.862  17.792  22.560
28814W        W32882   6.144  14.695  21.990
28815W        W32883   3.855  15.843  22.698
28816W        W32884   4.546  15.832  22.423
28817W        W32885   6.074  16.748  23.214
28818W        W32886   5.536  14.973  22.285
28819W        W32887   7.217  14.601  23.007
28820W        W32888   4.905  16.236  22.170
28821W        W32889   7.071  15.573  23.160
28822W        W32890   5.763  16.743  22.037
28823W        W32891   6.353  17.644  22.252
28824W        W32892   3.941  17.054  23.213
28825W        W32893   6.350  17.810  23.222
28826W        W32894   5.734  17.853  22.696
28827W        W32895   5.168  17.346  22.711
28828W        W32896   4.389  16.086  21.970
28829W        W32897   3.728  21.816   3.359
28830W        W32898   4.104  20.709   2.882
28831W        W32899   6.809  20.439   0.652
28832W        W32900   6.939  21.524   2.679
28833W        W32901   4.857  21.515   0.205
28834W        W32902   4.940  19.667   1.188
28835W        W32903   4.455  19.515   1.352
28836W        W32904   5.446  20.330   0.786
28837W        W32905   5.121  21.422   3.141
28838W        W32906   3.770  18.983   3.104
28839W        W32907   4.532  18.263   2.906
28840W        W32908   6.226  18.651   1.793
28841W        W32909   5.875  19.522   0.363
28842W        W32910   6.445  18.956   3.454
28843W        W32911   3.811  18.748   2.579
28844W        W32912   3.910  21.367   3.600
28845W        W32913   5.432  20.757   0.332
28846W        W32914   3.864  19.540   2.025
28847W        W32915   4.757  19.431   3.262
28848W        W32916   7.216  19.290   1.761
28849W        W32917   6.980  20.333   2.620
28850W        W32918   5.288  19.666   1.647
28851W        W32919   5.834  21.005   2.016
28852W        W32920   4.334  20.439   2.248
28853W        W32921   3.693  19.967   1.819
28854W        W32922   4.729  19.939   3.011
28855W        W32923   7.000  19.722   3.265
28856W        W32924   4.616  21.166   1.710
28857W        W32925   5.737  20.855   2.844
28858W        W32926   4.957  19.495   2.069
28859W        W32927   5.249  20.279   1.712
28860W        W32928   6.246  21.052   3.560
28861W        W32929   5.325  20.372   3.570
28862W        W32930   5.306  20.088   3.048
28863W        W32931   3.715  19.479   3.570
28864W        W32932   6.547  21.014   3.169
28865W        W32933   4.128  18.596   1.167
28866W        W32934   4.655  20.854   2.166
28867W        W32935   7.118  20.637   1.456
28868W        W32936   6.531  19.037   2.023
28869W        W32937   6.816  18.990   0.118
28870W        W32938   7.281  19.791   2.424
28871W        W32939   5.248  21.498   2.177
28872W        W32940   7.022  20.964   0.615
28873W        W32941   4.151  21.750   0.369
28874W        W32942   4.544  21.796   1.045
28875W        W32943   4.341  18.550   2.471
28876W        W32944   6.964  19.568   2.746
28877W        W32945   6.369  19.990   1.205
28878W        W32946   6.335  19.678   0.232
28879W        W32947   5.543  20.822   2.372
28880W        W32948   5.349  19.152   1.571
28881W        W32949   5.949  21.239   2.565
28882W        W32950   6.820  20.030   0.987
28883W        W32951   5.722  18.688   1.003
28884W        W32952   4.379  21.382   0.686
28885W        W32953   3.750  18.881   1.285
28886W        W32954   6.536  19.488   1.759
28887W        W32955   3.994  21.105   1.674
28888W        W32956   5.335  21.455   0.544
28889W        W32957   6.727  19.481   0.008
28890W        W32958   3.750  21.239   2.172
28891W        W32959   4.541  20.811   2.652
28892W        W32960   4.914  20.171   1.271
28893W        W32961   4.936  18.576   2.364
28894W        W32962   7.165  18.338   1.661
28895W        W32963   4.384  20.210   0.129
28896W        W32964   4.039  19.243   0.308
28897W        W32965   4.101  21.199   1.102
28898W        W32966   5.232  20.682   1.350
28899W        W32967   6.564  21.541   3.064
28900W        W32968   5.490  19.183   0.748
28901W        W32969   6.873  21.581   1.520
28902W        W32970   6.550  19.434   3.118
28903W        W32971   7.263  21.090   1.252
28904W        W32972   5.890  20.382   2.736
28905W        W32973   3.656  19.933   0.942
28906W        W32974   4.767  20.348   2.515
28907W        W32975   5.971  19.612   0.893
28908W        W32976   5.848  20.102   0.997
28909W        W32977   4.191  19.522   2.471
28910W        W32978   4.176  19.398   3.393
28911W        W32979   4.066  18.315   1.552
28912W        W32980   5.834  18.662   2.113
28913W        W32981   5.482  18.847   3.276
28914W        W32982   5.837  18.996   0.454
28915W        W32983   7.020  21.389   3.208
28916W        W32984   5.987  18.470   3.247
28917W        W32985   7.006  20.771   3.369
28918W        W32986   6.436  18.938   2.965
28919W        W32987   6.236  18.876   1.235
28920W        W32988   6.629  20.010   3.639
28921W        W32989   4.369  21.586   1.625
28922W        W32990   5.027  19.303   0.611
28923W        W32991   4.596  18.587   3.275
28924W        W32992   6.648  19.071   0.956
28925W        W32993   7.015  19.553   0.901
28926W        W32994   4.758  21.770   3.372
28927W        W32995   4.684  18.306   0.607
28928W        W32996   7.005  18.840   1.642
28929W        W32997   7.155  21.089   0.087
28930W        W32998   4.062  20.292   1.789
28931W        W32999   5.979  18.879   0.019
28932W        W33000   7.113  21.211   1.739
28933W        W33001   7.152  18.405   2.489
28934W        W33002   5.597  19.617   3.043
28935W        W33003   5.690  20.956   0.746
28936W        W33004   6.090  20.250   3.486
28937W        W33005   5.764  18.227   1.795
28938W        W33006   4.376  19.130   1.858
28939W        W33007   3.930  20.330   2.632
28940W        W33008   5.789  21.523   1.338
28941W        W33009   6.983  19.120   2.210
28942W        W33010   5.620  21.467   2.977
28943W        W33011   6.963  20.526   0.182
28944W        W33012   5.398  20.009   1.243
28945W        W33013   7.250  18.520   2.984
28946W        W33014   5.399  20.355   2.578
28947W        W33015   5.616  19.241   2.023
28948W        W33016   6.468  19.539   0.861
28949W        W33017   6.755  19.272   0.503
28950W        W33018   6.564  21.312   0.892
28951W        W33019   6.398  20.915   1.688
28952W        W33020   6.294  19.994   0.666
28953W        W33021   5.727  20.204   1.652
28954W        W33022   6.608  19.992   1.719
28955W        W33023   3.983  19.007   2.143
28956W        W33024   6.761  20.059   2.970
28957W        W33025   7.112  21.677   2.116
28958W        W33026   5.042  21.121   1.518
28959W        W33027   6.049  21.654   2.842
28960W        W33028   6.043  18.984   2.606
28961W        W33029   5.250  21.692   2.667
28962W        W33030   6.947  18.646   1.133
28963W        W33031   6.738  19.965   2.434
28964W        W33032   3.721  19.286   2.472
28965W        W33033   6.581  19.081   1.490
28966W        W33034   6.992  19.232   3.267
28967W        W33035   5.877  20.931   1.485
28968W        W33036   5.133  21.522   1.098
28969W        W33037   4.248  18.702   0.356
28970W        W33038   5.352  18.356   2.166
28971W        W33039   4.380  21.476   0.014
28972W        W33040   4.754  19.942   0.765
28973W        W33041   5.408  20.571   3.078
28974W        W33042   5.238  18.929   1.068
28975W        W33043   6.594  18.526   1.496
28976W        W33044   6.314  21.808   1.824
28977W        W33045   5.726  21.456   2.164
28978W        W33046   5.122  20.493   2.125
28979W        W33047   6.892  21.216   2.251
28980W        W33048   4.586  18.719   1.020
28981W        W33049   5.108  21.016   1.980
28982W        W33050   4.591  18.947   0.045
28983W        W33051   5.392  19.556   2.439
28984W        W33052   6.240  18.422   2.309
28985W        W33053   3.660  20.265   2.194
28986W        W33054   5.364  20.083   0.352
28987W        W33055   4.632  18.398   0.122
28988W        W33056   5.370  19.479   1.173
28989W        W33057   6.340  18.455   2.872
28990W        W33058   4.928  20.467   2.981
28991W        W33059   5.732  20.249   3.198
28992W        W33060   6.349  20.279   3.091
28993W        W33061   5.633  18.419   3.596
28994W        W33062   4.855  19.035   1.989
28995W        W33063   4.281  18.991   1.387
28996W        W33064   4.067  21.703   1.063
28997W        W33065   5.399  21.033   3.188
28998W        W33066   4.434  20.518   0.547
28999W        W33067   6.114  19.903   1.768
29000W        W33068   6.394  19.702   2.167
29001W        W33069   5.599  20.376   2.101
29002W        W33070   6.069  20.750   0.233
29003W        W33071   5.741  18.771   1.561
29004W        W33072   7.220  19.049   0.829
29005W        W33073   3.714  21.638   2.860
29006W        W33074   4.131  20.864   2.392
29007W        W33075   3.698  21.710   0.624
29008W        W33076   5.597  18.980   2.430
29009W        W33077   4.960  21.003   0.279
29010W        W33078   6.865  21.385   0.465
29011W        W33079   5.840  20.038   0.479
29012W        W33080   4.683  19.229   0.996
29013W        W33081   5.515  19.139   0.048
29014W        W33082   6.099  20.704   3.226
29015W        W33083   6.452  18.610   0.843
29016W        W33084   3.782  18.458   0.291
29017W        W33085   5.068  20.777   2.581
29018W        W33086   4.867  20.693   1.673
29019W        W33087   4.609  20.645   0.071
29020W        W33088   3.850  20.886   0.839
29021W        W33089   4.354  19.956   3.281
29022W        W33090   5.058  18.516   3.467
29023W        W33091   5.767  18.658   2.823
29024W        W33092   4.962  18.426   1.104
29025W        W33093   6.021  18.503   0.609
29026W        W33094   3.966  18.435   2.186
29027W        W33095   4.014  19.398   1.556
29028W        W33096   6.703  18.506   1.962
29029W        W33097   4.125  19.004   0.776
29030W        W33098   6.696  18.692   2.392
29031W        W33099   7.092  19.895   0.077
29032W        W33100   4.384  18.653   1.896
29033W        W33101   5.498  19.225   2.836
29034W        W33102   3.646  18.915   0.314
29035W        W33103   4.432  20.304   2.875
29036W        W33104   5.790  19.702   2.054
29037W        W33105   5.657  21.781   0.350
29038W        W33106   3.803  20.288   0.047
29039W        W33107   4.538  20.699   3.173
29040W        W33108   4.059  19.866   2.804
29041W        W33109   5.050  19.971   2.598
29042W        W33110   6.818  18.330   2.860
29043W        W33111   7.216  19.940   2.851
29044W        W33112   7.204  20.140   0.537
29045W        W33113   6.067  20.472   0.636
29046W        W33114   6.541  21.772   0.331
29047W        W33115   5.718  19.762   3.473
29048W        W33116   4.048  20.729   3.513
29049W        W33117   7.254  18.651   3.465
29050W        W33118   6.972  19.579   2.086
29051W        W33119   5.280  21.709   3.563
29052W        W33120   5.135  18.338   0.290
29053W        W33121   6.674  20.937   0.233
29054W        W33122   4.443  19.030   3.119
29055W        W33123   4.877  21.024   2.981
29056W        W33124   7.003  19.015   2.779
29057W        W33125   6.214  21.674   0.747
29058W        W33126   6.453  20.293   2.114
29059W        W33127   4.703  18.709   2.781
29060W        W33128   5.172  19.778   3.538
29061W        W33129   4.675  20.957   0.732
29062W        W33130   6.430  20.455   0.996
29063W        W33131   4.198  19.081   2.720
29064W        W33132   5.527  21.143   1.184
29065W        W33133   7.277  19.703   1.365
29066W        W33134   5.499  18.336   3.084
29067W        W33135   6.279  21.041   2.163
29068W        W33136   6.582  21.385   1.871
29069W        W33137   5.801  21.187   0.299
29070W        W33138   3.811  21.079   3.141
29071W        W33139   4.554  19.071   2.379
29072W        W33140   4.524  18.419   1.489
29073W        W33141   6.145  19.261   2.181
29074W        W33142   4.943  20.432   0.381
29075W        W33143   6.941  20.374   1.880
29076W        W33144   4.268  21.132   3.303
29077W        W33145   6.655  21.814   1.100
29078W        W33146   4.754  18.834   1.545
29079W        W33147   4.523  20.327   1.635
29080W        W33148   4.836  21.738   2.385
29081W        W33149   6.903  21.834   3.417
29082W        W33150   6.062  20.022   2.350
29083W        W33151   3.911  19.820   0.265
29084W        W33152   7.045  21.478   0.962
29085W        W33153   6.882  18.802   0.581
29086W        W33154   5.021  18.321   2.984
29087W        W33155   6.727  21.123   1.442
29088W        W33156   6.756  19.679   1.347
29089W        W33157   4.873  19.352   1.563
29090W        W33158   5.118  19.614   2.887
29091W        W33159   6.229  20.767   2.750
29092W        W33160   4.879  19.221   2.862
29093W        W33161   4.858  21.687   1.478
29094W        W33162   4.175  21.646   3.112
29095W        W33163   4.287  21.007   0.242
29096W        W33164   6.804  20.765   1.052
29097W        W33165   4.408  19.557   2.938
29098W        W33166   7.181  19.487   0.419
29099W        W33167   4.926  20.544   0.890
29100W        W33168   6.025  19.926   2.971
29101W        W33169   5.916  19.554   2.515
29102W        W33170   4.476  19.926   2.544
29103W        W33171   6.686  21.814   2.373
29104W        W33172   6.477  18.448   3.367
29105W        W33173   4.141  18.598   2.954
29106W        W33174   4.480  19.621   2.007
29107W        W33175   4.849  19.435   0.129
29108W        W33176   3.652  21.194   2.674
29109W        W33177   5.237  19.903   2.117
29110W        W33178   5.060  18.928   0.222
29111W        W33179   4.195  19.744   1.003
29112W        W33180   3.966  21.596   2.440
29113W        W33181   6.761  19.822   0.548
29114W        W33182   6.856  18.738   3.234
29115W        W33183   6.292  20.947   1.197
29116W        W33184   3.890  19.871   3.374
29117W        W33185   6.856  18.335   0.670
29118W        W33186   6.376  20.810   0.681
29119W        W33187   5.278  19.868   0.766
29120W        W33188   6.465  18.672   0.289
29121W        W33189   6.530  19.279   2.475
29122W        W33190   4.239  19.872   1.682
29123W        W33191   4.533  20.811   1.331
29124W        W33192   6.296  19.431   1.296
29125W        W33193   5.319  18.810   1.992
29126W        W33194   7.281  20.721   2.503
29127W        W33195   7.199  18.708   2.064
29128W        W33196   3.738  21.538   1.440
29129W        W33197   4.247  20.725   0.976
29130W        W33198   4.162  18.342   3.529
29131W        W33199   5.281  21.195   3.631
29132W        W33200   7.036  20.163   1.421
29133W        W33201   6.390  20.340   0.301
29134W        W33202   5.685  21.861   2.513
29135W        W33203   6.542  20.583   3.550
29136W        W33204   5.357  18.293   0.830
29137W        W33205   6.070  19.162   1.689
29138W        W33206   3.756  20.749   2.021
29139W        W33207   5.009  18.711   0.662
29140W        W33208   4.813  20.195   3.511
29141W        W33209   5.807  19.176   1.225
29142W        W33210   6.012  20.586   2.347
29143W        W33211   4.166  21.191   2.782
29144W        W33212   4.757  21.174   3.505
29145W        W33213   4.608  18.971   0.519
29146W        W33214   6.125  19.113   0.844
29147W        W33215   6.083  21.221   3.081
29148W        W33216   4.768  19.813   1.680
29149W        W33217   4.423  21.511   2.545
29150W        W33218   7.168  21.628   0.146
29151W        W33219   4.031  20.300   3.142
29152W        W33220   6.026  20.562   1.830
29153W        W33221   4.462  20.211   1.072
29154W        W33222   4.833  21.218   2.467
29155W        W33223   5.211  18.637   1.508
29156W        W33224   3.822  20.621   0.438
29157W        W33225   5.341  19.572   0.308
29158W        W33226   3.987  20.121   1.327
29159W        W33227   5.277  18.763   2.791
29160W        W33228   6.949  18.472   0.218
29161W        W33229   7.042  20.218   3.317
29162W        W33230   5.696  21.475   3.469
29163W        W33231   7.254  20.569   2.991
29164W        W33232   6.662  21.367   3.602
29165W        W33233   4.401  21.823   2.080
29166W        W33234   7.260  20.445   0.954
29167W        W33235   5.790  19.712   1.467
29168W        W33236   5.557  18.324   1.357
29169W        W33237   4.616  21.308   1.194
29170W        W33238   5.115  19.049   2.419
29171W        W33239   4.815  18.418   1.888
29172W        W33240   3.878  21.240   0.436
29173W        W33241   5.694  20.604   1.154
29174W        W33242   4.569  21.399   3.033
29175W        W33243   4.046  20.222   0.729
29176W        W33244   3.931  18.765   1.728
29177W        W33245   5.479  20.730   1.785
29178W        W33246   3.731  18.584   0.805
29179W        W33247   6.395  19.790   2.732
29180W        W33248   6.272  19.176   0.304
29181W        W33249   6.789  20.848   1.952
29182W        W33250   5.450  21.332   1.783
29183W        W33251   4.862  21.436   0.694
29184W        W33252   6.144  18.339   0.124
29185W        W33253   3.944  21.599   1.865
29186W        W33254   6.141  19.357   3.500
29187W        W33255   4.124  18.887   3.499
29188W        W33256   3.855  19.487   0.832
29189W        W33257   4.546  19.476   0.557
29190W        W33258   6.309  19.803   3.374
29191W        W33259   4.652  20.084   2.083
29192W        W33260   6.126  18.370   1.203
29193W        W33261   5.257  21.801   1.706
29194W        W33262   6.471  21.263   2.643
29195W        W33263   6.055  21.412   1.754
29196W        W33264   6.074  20.392   1.348
29197W        W33265   5.536  18.617   0.419
29198W        W33266   7.217  18.245   1.141
29199W        W33267   4.905  19.880   0.304
29200W        W33268   7.071  19.217   1.294
29201W        W33269   5.763  20.387   0.171
29202W        W33270   6.699  20.587   2.919
29203W        W33271   6.353  21.288   0.386
29204W        W33272   4.968  18.963   3.292
29205W        W33273   4.788  19.547   2.533
29206W        W33274   6.880  21.042   2.810
29207W        W33275   5.980  18.992   3.187
29208W        W33276   3.824  19.463   2.964
29209W        W33277   5.584  19.940   2.690
29210W        W33278   3.941  20.698   1.347
29211W        W33279   4.088  19.995   2.237
29212W        W33280   6.405  20.281   2.587
29213W        W33281   6.177  21.661   3.398
29214W        W33282   6.073  19.400   2.951
29215W        W33283   6.350  21.454   1.356
29216W        W33284   5.352  21.174   2.679
29217W        W33285   4.837  21.529   1.948
29218W        W33286   6.642  20.700   2.367
29219W        W33287   5.692  20.772   3.504
29220W        W33288   4.297  20.725   1.843
29221W        W33289   6.643  20.484   1.488
29222W        W33290   6.284  21.550   2.239
29223W        W33291   4.262  21.279   2.109
29224W        W33292   5.283  19.331   3.319
29225W        W33293   5.734  21.497   0.830
29226W        W33294   5.042  20.752   3.468
29227W        W33295   5.168  20.990   0.845
29228W        W33296   4.389  19.730   0.104
29229W        W33297   3.728  21.816   7.003
29230W        W33298   4.104  20.709   6.526
29231W        W33299   6.809  20.439   4.296
29232W        W33300   6.939  21.524   6.323
29233W        W33301   4.857  21.515   3.849
29234W        W33302   4.940  19.667   4.832
29235W        W33303   4.455  19.515   4.996
29236W        W33304   5.446  20.330   4.430
29237W        W33305   5.121  21.422   6.785
29238W        W33306   3.770  18.983   6.748
29239W        W33307   4.532  18.263   6.550
29240W        W33308   6.226  18.651   5.437
29241W        W33309   5.875  19.522   4.007
29242W        W33310   6.445  18.956   7.098
29243W        W33311   3.811  18.748   6.223
29244W        W33312   3.910  21.367   7.244
29245W        W33313   5.432  20.757   3.976
29246W        W33314   3.864  19.540   5.669
29247W        W33315   4.757  19.431   6.906
29248W        W33316   7.216  19.290   5.405
29249W        W33317   6.980  20.333   6.264
29250W        W33318   5.288  19.666   5.291
29251W        W33319   5.834  21.005   5.660
29252W        W33320   4.334  20.439   5.892
29253W        W33321   3.693  19.967   5.463
29254W        W33322   4.729  19.939   6.655
29255W        W33323   7.000  19.722   6.909
29256W        W33324   4.616  21.166   5.354
29257W        W33325   5.737  20.855   6.488
29258W        W33326   4.957  19.495   5.713
29259W        W33327   5.249  20.279   5.356
29260W        W33328   6.246  21.052   7.204
29261W        W33329   5.325  20.372   7.214
29262W        W33330   5.306  20.088   6.692
29263W        W33331   3.715  19.479   7.214
29264W        W33332   6.547  21.014   6.813
29265W        W33333   4.128  18.596   4.811
29266W        W33334   4.655  20.854   5.810
29267W        W33335   7.118  20.637   5.100
29268W        W33336   6.531  19.037   5.667
29269W        W33337   6.816  18.990   3.762
29270W        W33338   7.281  19.791   6.068
29271W        W33339   5.248  21.498   5.821
29272W        W33340   7.022  20.964   4.259
29273W        W33341   4.151  21.750   4.013
29274W        W33342   4.544  21.796   4.689
29275W        W33343   4.341  18.550   6.115
29276W        W33344   6.964  19.568   6.390
29277W        W33345   6.369  19.990   4.849
29278W        W33346   6.335  19.678   3.876
29279W        W33347   5.543  20.822   6.016
29280W        W33348   5.349  19.152   5.215
29281W        W33349   5.949  21.239   6.209
29282W        W33350   6.820  20.030   4.631
29283W        W33351   5.722  18.688   4.647
29284W        W33352   4.379  21.382   4.330
29285W        W33353   3.750  18.881   4.929
29286W        W33354   6.536  19.488   5.403
29287W        W33355   3.994  21.105   5.318
29288W        W33356   5.335  21.455   4.188
29289W        W33357   6.727  19.481   3.652
29290W        W33358   3.750  21.239   5.816
29291W        W33359   4.541  20.811   6.296
29292W        W33360   4.914  20.171   4.915
29293W        W33361   4.936  18.576   6.008
29294W        W33362   7.165  18.338   5.305
29295W        W33363   4.384  20.210   3.773
29296W        W33364   4.039  19.243   3.952
29297W        W33365   4.101  21.199   4.746
29298W        W33366   5.232  20.682   4.994
29299W        W33367   6.564  21.541   6.708
29300W        W33368   5.490  19.183   4.392
29301W        W33369   6.873  21.581   5.164
29302W        W33370   6.550  19.434   6.762
29303W        W33371   7.263  21.090   4.896
29304W        W33372   5.890  20.382   6.380
29305W        W33373   3.656  19.933   4.586
29306W        W33374   4.767  20.348   6.159
29307W        W33375   5.971  19.612   4.537
29308W        W33376   5.848  20.102   4.641
29309W        W33377   4.191  19.522   6.115
29310W        W33378   4.176  19.398   7.037
29311W        W33379   4.066  18.315   5.196
29312W        W33380   5.834  18.662   5.757
29313W        W33381   5.482  18.847   6.920
29314W        W33382   5.837  18.996   4.098
29315W        W33383   7.020  21.389   6.852
29316W        W33384   5.987  18.470   6.891
29317W        W33385   7.006  20.771   7.013
29318W        W33386   6.436  18.938   6.609
29319W        W33387   6.236  18.876   4.879
29320W        W33388   6.629  20.010   7.283
29321W        W33389   4.369  21.586   5.269
29322W        W33390   5.027  19.303   4.255
29323W        W33391   4.596  18.587   6.919
29324W        W33392   6.648  19.071   4.600
29325W        W33393   7.015  19.553   4.545
29326W        W33394   4.758  21.770   7.016
29327W        W33395   4.684  18.306   4.251
29328W        W33396   7.005  18.840   5.286
29329W        W33397   7.155  21.089   3.731
29330W        W33398   4.062  20.292   5.433
29331W        W33399   5.979  18.879   3.663
29332W        W33400   7.113  21.211   5.383
29333W        W33401   7.152  18.405   6.133
29334W        W33402   5.597  19.617   6.687
29335W        W33403   5.690  20.956   4.390
29336W        W33404   6.090  20.250   7.130
29337W        W33405   5.764  18.227   5.439
29338W        W33406   4.376  19.130   5.502
29339W        W33407   3.930  20.330   6.276
29340W        W33408   5.789  21.523   4.982
29341W        W33409   6.983  19.120   5.854
29342W        W33410   5.620  21.467   6.621
29343W        W33411   6.963  20.526   3.826
29344W        W33412   5.398  20.009   4.887
29345W        W33413   7.250  18.520   6.628
29346W        W33414   5.399  20.355   6.222
29347W        W33415   5.616  19.241   5.667
29348W        W33416   6.468  19.539   4.505
29349W        W33417   6.755  19.272   4.147
29350W        W33418   6.564  21.312   4.536
29351W        W33419   6.398  20.915   5.332
29352W        W33420   6.294  19.994   4.310
29353W        W33421   5.727  20.204   5.296
29354W        W33422   6.608  19.992   5.363
29355W        W33423   3.983  19.007   5.787
29356W        W33424   6.761  20.059   6.614
29357W        W33425   7.112  21.677   5.760
29358W        W33426   5.042  21.121   5.162
29359W        W33427   6.049  21.654   6.486
29360W        W33428   6.043  18.984   6.250
29361W        W33429   5.250  21.692   6.311
29362W        W33430   6.947  18.646   4.777
29363W        W33431   6.738  19.965   6.078
29364W        W33432   3.721  19.286   6.116
29365W        W33433   6.581  19.081   5.134
29366W        W33434   6.992  19.232   6.911
29367W        W33435   5.877  20.931   5.129
29368W        W33436   5.133  21.522   4.742
29369W        W33437   4.248  18.702   4.000
29370W        W33438   5.352  18.356   5.810
29371W        W33439   4.380  21.476   3.658
29372W        W33440   4.754  19.942   4.409
29373W        W33441   5.408  20.571   6.722
29374W        W33442   5.238  18.929   4.712
29375W        W33443   6.594  18.526   5.140
29376W        W33444   6.314  21.808   5.468
29377W        W33445   5.726  21.456   5.808
29378W        W33446   5.122  20.493   5.769
29379W        W33447   6.892  21.216   5.895
29380W        W33448   4.586  18.719   4.664
29381W        W33449   5.108  21.016   5.624
29382W        W33450   4.591  18.947   3.689
29383W        W33451   5.392  19.556   6.083
29384W        W33452   6.240  18.422   5.953
29385W        W33453   3.660  20.265   5.838
29386W        W33454   5.364  20.083   3.996
29387W        W33455   4.632  18.398   3.766
29388W        W33456   5.370  19.479   4.817
29389W        W33457   6.340  18.455   6.516
29390W        W33458   4.928  20.467   6.625
29391W        W33459   5.732  20.249   6.842
29392W        W33460   6.349  20.279   6.735
29393W        W33461   5.633  18.419   7.240
29394W        W33462   4.855  19.035   5.633
29395W        W33463   4.281  18.991   5.031
29396W        W33464   4.067  21.703   4.707
29397W        W33465   5.399  21.033   6.832
29398W        W33466   4.434  20.518   4.191
29399W        W33467   6.114  19.903   5.412
29400W        W33468   6.394  19.702   5.811
29401W        W33469   5.599  20.376   5.745
29402W        W33470   6.069  20.750   3.877
29403W        W33471   5.741  18.771   5.205
29404W        W33472   7.220  19.049   4.473
29405W        W33473   3.714  21.638   6.504
29406W        W33474   4.131  20.864   6.036
29407W        W33475   3.698  21.710   4.268
29408W        W33476   5.597  18.980   6.074
29409W        W33477   4.960  21.003   3.923
29410W        W33478   6.865  21.385   4.109
29411W        W33479   5.840  20.038   4.123
29412W        W33480   4.683  19.229   4.640
29413W        W33481   5.515  19.139   3.692
29414W        W33482   6.099  20.704   6.870
29415W        W33483   6.452  18.610   4.487
29416W        W33484   3.782  18.458   3.935
29417W        W33485   5.068  20.777   6.225
29418W        W33486   4.867  20.693   5.317
29419W        W33487   4.609  20.645   3.715
29420W        W33488   3.850  20.886   4.483
29421W        W33489   4.354  19.956   6.925
29422W        W33490   5.058  18.516   7.111
29423W        W33491   5.767  18.658   6.467
29424W        W33492   4.962  18.426   4.748
29425W        W33493   6.021  18.503   4.253
29426W        W33494   3.966  18.435   5.830
29427W        W33495   4.014  19.398   5.200
29428W        W33496   6.703  18.506   5.606
29429W        W33497   4.125  19.004   4.420
29430W        W33498   6.696  18.692   6.036
29431W        W33499   7.092  19.895   3.721
29432W        W33500   4.384  18.653   5.540
29433W        W33501   5.498  19.225   6.480
29434W        W33502   3.646  18.915   3.958
29435W        W33503   4.432  20.304   6.519
29436W        W33504   5.790  19.702   5.698
29437W        W33505   5.657  21.781   3.994
29438W        W33506   3.803  20.288   3.691
29439W        W33507   4.538  20.699   6.817
29440W        W33508   4.059  19.866   6.448
29441W        W33509   5.050  19.971   6.242
29442W        W33510   6.818  18.330   6.504
29443W        W33511   7.216  19.940   6.495
29444W        W33512   7.204  20.140   4.181
29445W        W33513   6.067  20.472   4.280
29446W        W33514   6.541  21.772   3.975
29447W        W33515   5.718  19.762   7.117
29448W        W33516   4.048  20.729   7.157
29449W        W33517   7.254  18.651   7.109
29450W        W33518   6.972  19.579   5.730
29451W        W33519   5.280  21.709   7.207
29452W        W33520   5.135  18.338   3.934
29453W        W33521   6.674  20.937   3.877
29454W        W33522   4.443  19.030   6.763
29455W        W33523   4.877  21.024   6.625
29456W        W33524   7.003  19.015   6.423
29457W        W33525   6.214  21.674   4.391
29458W        W33526   6.453  20.293   5.758
29459W        W33527   4.703  18.709   6.425
29460W        W33528   5.172  19.778   7.182
29461W        W33529   4.675  20.957   4.376
29462W        W33530   6.430  20.455   4.640
29463W        W33531   4.198  19.081   6.364
29464W        W33532   5.527  21.143   4.828
29465W        W33533   7.277  19.703   5.009
29466W        W33534   5.499  18.336   6.728
29467W        W33535   6.279  21.041   5.807
29468W        W33536   6.582  21.385   5.515
29469W        W33537   5.801  21.187   3.943
29470W        W33538   3.811  21.079   6.785
29471W        W33539   4.554  19.071   6.023
29472W        W33540   4.524  18.419   5.133
29473W        W33541   6.145  19.261   5.825
29474W        W33542   4.943  20.432   4.025
29475W        W33543   6.941  20.374   5.524
29476W        W33544   4.268  21.132   6.947
29477W        W33545   6.655  21.814   4.744
29478W        W33546   4.754  18.834   5.189
29479W        W33547   4.523  20.327   5.279
29480W        W33548   4.836  21.738   6.029
29481W        W33549   6.903  21.834   7.061
29482W        W33550   6.062  20.022   5.994
29483W        W33551   3.911  19.820   3.909
29484W        W33552   7.045  21.478   4.606
29485W        W33553   6.882  18.802   4.225
29486W        W33554   5.021  18.321   6.628
29487W        W33555   6.727  21.123   5.086
29488W        W33556   6.756  19.679   4.991
29489W        W33557   4.873  19.352   5.207
29490W        W33558   5.118  19.614   6.531
29491W        W33559   6.229  20.767   6.394
29492W        W33560   4.879  19.221   6.506
29493W        W33561   4.858  21.687   5.122
29494W        W33562   4.175  21.646   6.756
29495W        W33563   4.287  21.007   3.886
29496W        W33564   6.804  20.765   4.696
29497W        W33565   4.408  19.557   6.582
29498W        W33566   7.181  19.487   4.063
29499W        W33567   4.926  20.544   4.534
29500W        W33568   6.025  19.926   6.615
29501W        W33569   5.916  19.554   6.159
29502W        W33570   4.476  19.926   6.188
29503W        W33571   6.686  21.814   6.017
29504W        W33572   6.477  18.448   7.011
29505W        W33573   4.141  18.598   6.598
29506W        W33574   4.480  19.621   5.651
29507W        W33575   4.849  19.435   3.773
29508W        W33576   3.652  21.194   6.318
29509W        W33577   5.237  19.903   5.761
29510W        W33578   5.060  18.928   3.866
29511W        W33579   4.195  19.744   4.647
29512W        W33580   3.966  21.596   6.084
29513W        W33581   6.761  19.822   4.192
29514W        W33582   6.856  18.738   6.878
29515W        W33583   6.292  20.947   4.841
29516W        W33584   3.890  19.871   7.018
29517W        W33585   6.856  18.335   4.314
29518W        W33586   6.376  20.810   4.325
29519W        W33587   5.278  19.868   4.410
29520W        W33588   6.465  18.672   3.933
29521W        W33589   6.530  19.279   6.119
29522W        W33590   4.239  19.872   5.326
29523W        W33591   4.533  20.811   4.975
29524W        W33592   6.296  19.431   4.940
29525W        W33593   5.319  18.810   5.636
29526W        W33594   7.281  20.721   6.147
29527W        W33595   7.199  18.708   5.708
29528W        W33596   3.738  21.538   5.084
29529W        W33597   4.247  20.725   4.620
29530W        W33598   4.162  18.342   7.173
29531W        W33599   5.281  21.195   7.275
29532W        W33600   7.036  20.163   5.065
29533W        W33601   6.390  20.340   3.945
29534W        W33602   5.685  21.861   6.157
29535W        W33603   6.542  20.583   7.194
29536W        W33604   5.357  18.293   4.474
29537W        W33605   6.070  19.162   5.333
29538W        W33606   3.756  20.749   5.665
29539W        W33607   5.009  18.711   4.306
29540W        W33608   4.813  20.195   7.155
29541W        W33609   5.807  19.176   4.869
29542W        W33610   6.012  20.586   5.991
29543W        W33611   4.166  21.191   6.426
29544W        W33612   4.757  21.174   7.149
29545W        W33613   4.608  18.971   4.163
29546W        W33614   6.125  19.113   4.488
29547W        W33615   6.083  21.221   6.725
29548W        W33616   4.768  19.813   5.324
29549W        W33617   4.423  21.511   6.189
29550W        W33618   7.168  21.628   3.790
29551W        W33619   4.031  20.300   6.786
29552W        W33620   6.026  20.562   5.474
29553W        W33621   4.462  20.211   4.716
29554W        W33622   4.833  21.218   6.111
29555W        W33623   5.211  18.637   5.152
29556W        W33624   3.822  20.621   4.082
29557W        W33625   5.341  19.572   3.952
29558W        W33626   3.987  20.121   4.971
29559W        W33627   5.277  18.763   6.435
29560W        W33628   6.949  18.472   3.862
29561W        W33629   7.042  20.218   6.961
29562W        W33630   5.696  21.475   7.113
29563W        W33631   7.254  20.569   6.635
29564W        W33632   6.662  21.367   7.246
29565W        W33633   4.401  21.823   5.724
29566W        W33634   7.260  20.445   4.598
29567W        W33635   5.790  19.712   5.111
29568W        W33636   5.557  18.324   5.001
29569W        W33637   4.616  21.308   4.838
29570W        W33638   5.115  19.049   6.063
29571W        W33639   4.815  18.418   5.532
29572W        W33640   3.878  21.240   4.080
29573W        W33641   5.694  20.604   4.798
29574W        W33642   4.569  21.399   6.677
29575W        W33643   4.046  20.222   4.373
29576W        W33644   3.931  18.765   5.372
29577W        W33645   5.479  20.730   5.429
29578W        W33646   3.731  18.584   4.449
29579W        W33647   6.395  19.790   6.376
29580W        W33648   6.272  19.176   3.948
29581W        W33649   6.789  20.848   5.596
29582W        W33650   5.450  21.332   5.427
29583W        W33651   4.862  21.436   4.338
29584W        W33652   6.144  18.339   3.768
29585W        W33653   3.944  21.599   5.509
29586W        W33654   6.141  19.357   7.144
29587W        W33655   4.124  18.887   7.143
29588W        W33656   3.855  19.487   4.476
29589W        W33657   4.546  19.476   4.201
29590W        W33658   6.309  19.803   7.018
29591W        W33659   4.652  20.084   5.727
29592W        W33660   6.126  18.370   4.847
29593W        W33661   5.257  21.801   5.350
29594W        W33662   6.471  21.263   6.287
29595W        W33663   6.055  21.412   5.398
29596W        W33664   6.074  20.392   4.992
29597W        W33665   5.536  18.617   4.063
29598W        W33666   7.217  18.245   4.785
29599W        W33667   4.905  19.880   3.948
29600W        W33668   7.071  19.217   4.938
29601W        W33669   5.763  20.387   3.815
29602W        W33670   6.699  20.587   6.563
29603W        W33671   6.353  21.288   4.030
29604W        W33672   4.968  18.963   6.936
29605W        W33673   4.788  19.547   6.177
29606W        W33674   6.880  21.042   6.454
29607W        W33675   5.980  18.992   6.831
29608W        W33676   3.824  19.463   6.608
29609W        W33677   5.584  19.940   6.334
29610W        W33678   3.941  20.698   4.991
29611W        W33679   4.088  19.995   5.881
29612W        W33680   6.405  20.281   6.231
29613W        W33681   6.177  21.661   7.042
29614W        W33682   6.073  19.400   6.595
29615W        W33683   6.350  21.454   5.000
29616W        W33684   5.352  21.174   6.323
29617W        W33685   4.837  21.529   5.592
29618W        W33686   6.642  20.700   6.011
29619W        W33687   5.692  20.772   7.148
29620W        W33688   4.297  20.725   5.487
29621W        W33689   6.643  20.484   5.132
29622W        W33690   6.284  21.550   5.883
29623W        W33691   4.262  21.279   5.753
29624W        W33692   5.283  19.331   6.963
29625W        W33693   5.734  21.497   4.474
29626W        W33694   5.042  20.752   7.112
29627W        W33695   5.168  20.990   4.489
29628W        W33696   4.389  19.730   3.748
29629W        W33697   3.728  21.816  10.648
29630W        W33698   4.104  20.709  10.171
29631W        W33699   6.809  20.439   7.941
29632W        W33700   6.939  21.524   9.968
29633W        W33701   4.857  21.515   7.494
29634W        W33702   4.940  19.667   8.477
29635W        W33703   4.455  19.515   8.641
29636W        W33704   5.446  20.330   8.075
29637W        W33705   5.121  21.422  10.430
29638W        W33706   3.770  18.983  10.393
29639W        W33707   4.532  18.263  10.195
29640W        W33708   6.226  18.651   9.082
29641W        W33709   5.875  19.522   7.652
29642W        W33710   6.445  18.956  10.743
29643W        W33711   3.811  18.748   9.868
29644W        W33712   3.910  21.367  10.889
29645W        W33713   5.432  20.757   7.621
29646W        W33714   3.864  19.540   9.314
29647W        W33715   4.757  19.431  10.551
29648W        W33716   7.216  19.290   9.050
29649W        W33717   5.288  19.666   8.936
29650W        W33718   5.834  21.005   9.305
29651W        W33719   4.334  20.439   9.537
29652W        W33720   3.693  19.967   9.108
29653W        W33721   4.729  19.939  10.300
29654W        W33722   7.000  19.722  10.554
29655W        W33723   4.616  21.166   8.999
29656W        W33724   5.737  20.855  10.133
29657W        W33725   4.957  19.495   9.358
29658W        W33726   5.249  20.279   9.001
29659W        W33727   6.246  21.052  10.849
29660W        W33728   5.325  20.372  10.859
29661W        W33729   5.306  20.088  10.337
29662W        W33730   3.715  19.479  10.859
29663W        W33731   6.547  21.014  10.458
29664W        W33732   4.128  18.596   8.456
29665W        W33733   4.655  20.854   9.455
29666W        W33734   7.118  20.637   8.745
29667W        W33735   6.531  19.037   9.312
29668W        W33736   6.816  18.990   7.407
29669W        W33737   7.281  19.791   9.713
29670W        W33738   5.248  21.498   9.466
29671W        W33739   4.151  21.750   7.658
29672W        W33740   4.544  21.796   8.334
29673W        W33741   4.341  18.550   9.760
29674W        W33742   6.369  19.990   8.494
29675W        W33743   6.335  19.678   7.521
29676W        W33744   5.543  20.822   9.661
29677W        W33745   5.349  19.152   8.860
29678W        W33746   5.949  21.239   9.854
29679W        W33747   6.820  20.030   8.276
29680W        W33748   5.722  18.688   8.292
29681W        W33749   4.379  21.382   7.975
29682W        W33750   3.750  18.881   8.574
29683W        W33751   6.536  19.488   9.048
29684W        W33752   3.994  21.105   8.963
29685W        W33753   5.335  21.455   7.833
29686W        W33754   6.727  19.481   7.297
29687W        W33755   3.750  21.239   9.461
29688W        W33756   4.541  20.811   9.941
29689W        W33757   4.936  18.576   9.653
29690W        W33758   7.165  18.338   8.950
29691W        W33759   4.384  20.210   7.418
29692W        W33760   4.039  19.243   7.597
29693W        W33761   4.101  21.199   8.391
29694W        W33762   5.232  20.682   8.639
29695W        W33763   6.564  21.541  10.353
29696W        W33764   5.490  19.183   8.037
29697W        W33765   6.873  21.581   8.809
29698W        W33766   6.550  19.434  10.407
29699W        W33767   7.263  21.090   8.541
29700W        W33768   5.890  20.382  10.025
29701W        W33769   3.656  19.933   8.231
29702W        W33770   4.767  20.348   9.804
29703W        W33771   5.971  19.612   8.182
29704W        W33772   5.848  20.102   8.286
29705W        W33773   4.191  19.522   9.760
29706W        W33774   4.176  19.398  10.682
29707W        W33775   4.066  18.315   8.841
29708W        W33776   5.834  18.662   9.402
29709W        W33777   5.837  18.996   7.743
29710W        W33778   7.020  21.389  10.497
29711W        W33779   7.006  20.771  10.658
29712W        W33780   6.436  18.938  10.254
29713W        W33781   6.236  18.876   8.524
29714W        W33782   6.629  20.010  10.928
29715W        W33783   4.369  21.586   8.914
29716W        W33784   5.027  19.303   7.900
29717W        W33785   4.596  18.587  10.564
29718W        W33786   6.648  19.071   8.245
29719W        W33787   7.015  19.553   8.190
29720W        W33788   4.758  21.770  10.661
29721W        W33789   4.684  18.306   7.896
29722W        W33790   7.005  18.840   8.931
29723W        W33791   4.062  20.292   9.078
29724W        W33792   5.979  18.879   7.308
29725W        W33793   7.113  21.211   9.028
29726W        W33794   5.597  19.617  10.332
29727W        W33795   5.690  20.956   8.035
29728W        W33796   6.090  20.250  10.775
29729W        W33797   5.764  18.227   9.084
29730W        W33798   4.376  19.130   9.147
29731W        W33799   3.930  20.330   9.921
29732W        W33800   5.789  21.523   8.627
29733W        W33801   6.983  19.120   9.499
29734W        W33802   5.620  21.467  10.266
29735W        W33803   6.963  20.526   7.471
29736W        W33804   5.398  20.009   8.532
29737W        W33805   5.399  20.355   9.867
29738W        W33806   5.616  19.241   9.312
29739W        W33807   6.468  19.539   8.150
29740W        W33808   6.755  19.272   7.792
29741W        W33809   6.564  21.312   8.181
29742W        W33810   6.398  20.915   8.977
29743W        W33811   6.294  19.994   7.955
29744W        W33812   5.727  20.204   8.941
29745W        W33813   6.608  19.992   9.008
29746W        W33814   3.983  19.007   9.432
29747W        W33815   6.761  20.059  10.259
29748W        W33816   7.112  21.677   9.405
29749W        W33817   5.042  21.121   8.807
29750W        W33818   6.049  21.654  10.131
29751W        W33819   6.043  18.984   9.895
29752W        W33820   5.250  21.692   9.956
29753W        W33821   6.947  18.646   8.422
29754W        W33822   6.738  19.965   9.723
29755W        W33823   3.721  19.286   9.761
29756W        W33824   6.581  19.081   8.779
29757W        W33825   6.992  19.232  10.556
29758W        W33826   5.877  20.931   8.774
29759W        W33827   5.133  21.522   8.387
29760W        W33828   4.248  18.702   7.645
29761W        W33829   5.352  18.356   9.455
29762W        W33830   4.380  21.476   7.303
29763W        W33831   4.754  19.942   8.054
29764W        W33832   5.408  20.571  10.367
29765W        W33833   5.238  18.929   8.357
29766W        W33834   6.594  18.526   8.785
29767W        W33835   6.314  21.808   9.113
29768W        W33836   5.726  21.456   9.453
29769W        W33837   5.122  20.493   9.414
29770W        W33838   4.586  18.719   8.309
29771W        W33839   5.108  21.016   9.269
29772W        W33840   4.591  18.947   7.334
29773W        W33841   5.392  19.556   9.728
29774W        W33842   6.240  18.422   9.598
29775W        W33843   3.660  20.265   9.483
29776W        W33844   5.364  20.083   7.641
29777W        W33845   4.632  18.398   7.411
29778W        W33846   5.370  19.479   8.462
29779W        W33847   6.340  18.455  10.161
29780W        W33848   4.928  20.467  10.270
29781W        W33849   5.732  20.249  10.487
29782W        W33850   6.349  20.279  10.380
29783W        W33851   5.633  18.419  10.885
29784W        W33852   4.855  19.035   9.278
29785W        W33853   4.281  18.991   8.676
29786W        W33854   4.067  21.703   8.352
29787W        W33855   5.399  21.033  10.477
29788W        W33856   4.434  20.518   7.836
29789W        W33857   6.114  19.903   9.057
29790W        W33858   6.394  19.702   9.456
29791W        W33859   5.599  20.376   9.390
29792W        W33860   6.069  20.750   7.522
29793W        W33861   5.741  18.771   8.850
29794W        W33862   7.220  19.049   8.118
29795W        W33863   3.714  21.638  10.149
29796W        W33864   4.131  20.864   9.681
29797W        W33865   3.698  21.710   7.913
29798W        W33866   5.597  18.980   9.719
29799W        W33867   4.960  21.003   7.568
29800W        W33868   6.865  21.385   7.754
29801W        W33869   5.840  20.038   7.768
29802W        W33870   4.683  19.229   8.285
29803W        W33871   5.515  19.139   7.337
29804W        W33872   6.099  20.704  10.515
29805W        W33873   6.452  18.610   8.132
29806W        W33874   3.782  18.458   7.580
29807W        W33875   5.068  20.777   9.870
29808W        W33876   4.867  20.693   8.962
29809W        W33877   4.609  20.645   7.360
29810W        W33878   3.850  20.886   8.128
29811W        W33879   4.354  19.956  10.570
29812W        W33880   5.058  18.516  10.756
29813W        W33881   5.767  18.658  10.112
29814W        W33882   4.962  18.426   8.393
29815W        W33883   6.021  18.503   7.898
29816W        W33884   3.966  18.435   9.475
29817W        W33885   4.014  19.398   8.845
29818W        W33886   6.703  18.506   9.251
29819W        W33887   4.125  19.004   8.065
29820W        W33888   6.696  18.692   9.681
29821W        W33889   7.092  19.895   7.366
29822W        W33890   4.384  18.653   9.185
29823W        W33891   5.498  19.225  10.125
29824W        W33892   3.646  18.915   7.603
29825W        W33893   4.432  20.304  10.164
29826W        W33894   5.790  19.702   9.343
29827W        W33895   5.657  21.781   7.639
29828W        W33896   3.803  20.288   7.336
29829W        W33897   4.538  20.699  10.462
29830W        W33898   4.059  19.866  10.093
29831W        W33899   5.050  19.971   9.887
29832W        W33900   6.818  18.330  10.149
29833W        W33901   7.216  19.940  10.140
29834W        W33902   7.204  20.140   7.826
29835W        W33903   6.067  20.472   7.925
29836W        W33904   6.541  21.772   7.620
29837W        W33905   5.718  19.762  10.762
29838W        W33906   4.048  20.729  10.802
29839W        W33907   7.254  18.651  10.754
29840W        W33908   6.972  19.579   9.375
29841W        W33909   5.280  21.709  10.852
29842W        W33910   5.135  18.338   7.579
29843W        W33911   6.674  20.937   7.522
29844W        W33912   4.443  19.030  10.408
29845W        W33913   4.877  21.024  10.270
29846W        W33914   7.003  19.015  10.068
29847W        W33915   6.214  21.674   8.036
29848W        W33916   6.453  20.293   9.403
29849W        W33917   4.703  18.709  10.070
29850W        W33918   5.172  19.778  10.827
29851W        W33919   4.675  20.957   8.021
29852W        W33920   6.430  20.455   8.285
29853W        W33921   4.198  19.081  10.009
29854W        W33922   5.527  21.143   8.473
29855W        W33923   7.277  19.703   8.654
29856W        W33924   6.279  21.041   9.452
29857W        W33925   6.582  21.385   9.160
29858W        W33926   5.801  21.187   7.588
29859W        W33927   3.811  21.079  10.430
29860W        W33928   4.554  19.071   9.668
29861W        W33929   4.524  18.419   8.778
29862W        W33930   6.145  19.261   9.470
29863W        W33931   6.941  20.374   9.169
29864W        W33932   4.268  21.132  10.592
29865W        W33933   6.655  21.814   8.389
29866W        W33934   4.754  18.834   8.834
29867W        W33935   4.836  21.738   9.674
29868W        W33936   6.903  21.834  10.706
29869W        W33937   6.062  20.022   9.639
29870W        W33938   3.911  19.820   7.554
29871W        W33939   7.045  21.478   8.251
29872W        W33940   6.882  18.802   7.870
29873W        W33941   5.021  18.321  10.273
29874W        W33942   6.727  21.123   8.731
29875W        W33943   6.756  19.679   8.636
29876W        W33944   4.873  19.352   8.852
29877W        W33945   5.118  19.614  10.176
29878W        W33946   6.229  20.767  10.039
29879W        W33947   4.879  19.221  10.151
29880W        W33948   4.858  21.687   8.767
29881W        W33949   4.175  21.646  10.401
29882W        W33950   4.287  21.007   7.531
29883W        W33951   6.804  20.765   8.341
29884W        W33952   4.408  19.557  10.227
29885W        W33953   7.181  19.487   7.708
29886W        W33954   6.025  19.926  10.260
29887W        W33955   5.916  19.554   9.804
29888W        W33956   4.476  19.926   9.833
29889W        W33957   6.686  21.814   9.662
29890W        W33958   4.141  18.598  10.243
29891W        W33959   4.480  19.621   9.296
29892W        W33960   4.849  19.435   7.418
29893W        W33961   3.652  21.194   9.963
29894W        W33962   5.237  19.903   9.406
29895W        W33963   5.060  18.928   7.511
29896W        W33964   4.195  19.744   8.292
29897W        W33965   3.966  21.596   9.729
29898W        W33966   6.761  19.822   7.837
29899W        W33967   6.856  18.738  10.523
29900W        W33968   6.292  20.947   8.486
29901W        W33969   3.890  19.871  10.663
29902W        W33970   6.856  18.335   7.959
29903W        W33971   6.376  20.810   7.970
29904W        W33972   5.278  19.868   8.055
29905W        W33973   6.465  18.672   7.578
29906W        W33974   6.530  19.279   9.764
29907W        W33975   4.239  19.872   8.971
29908W        W33976   4.533  20.811   8.620
29909W        W33977   6.296  19.431   8.585
29910W        W33978   5.319  18.810   9.281
29911W        W33979   7.199  18.708   9.353
29912W        W33980   3.738  21.538   8.729
29913W        W33981   4.247  20.725   8.265
29914W        W33982   4.162  18.342  10.818
29915W        W33983   5.281  21.195  10.920
29916W        W33984   7.036  20.163   8.710
29917W        W33985   6.390  20.340   7.590
29918W        W33986   5.685  21.861   9.802
29919W        W33987   6.542  20.583  10.839
29920W        W33988   5.357  18.293   8.119
29921W        W33989   6.070  19.162   8.978
29922W        W33990   3.756  20.749   9.310
29923W        W33991   5.009  18.711   7.951
29924W        W33992   4.813  20.195  10.800
29925W        W33993   5.807  19.176   8.514
29926W        W33994   6.012  20.586   9.636
29927W        W33995   4.166  21.191  10.071
29928W        W33996   4.757  21.174  10.794
29929W        W33997   4.608  18.971   7.808
29930W        W33998   6.125  19.113   8.133
29931W        W33999   6.083  21.221  10.370
29932W        W34000   4.768  19.813   8.969
29933W        W34001   4.423  21.511   9.834
29934W        W34002   7.168  21.628   7.435
29935W        W34003   4.031  20.300  10.431
29936W        W34004   6.026  20.562   9.119
29937W        W34005   4.462  20.211   8.361
29938W        W34006   4.833  21.218   9.756
29939W        W34007   5.211  18.637   8.797
29940W        W34008   3.822  20.621   7.727
29941W        W34009   5.341  19.572   7.597
29942W        W34010   3.987  20.121   8.616
29943W        W34011   5.277  18.763  10.080
29944W        W34012   6.949  18.472   7.507
29945W        W34013   7.042  20.218  10.606
29946W        W34014   5.696  21.475  10.758
29947W        W34015   7.254  20.569  10.280
29948W        W34016   6.662  21.367  10.891
29949W        W34017   4.401  21.823   9.369
29950W        W34018   7.260  20.445   8.243
29951W        W34019   5.790  19.712   8.756
29952W        W34020   5.557  18.324   8.646
29953W        W34021   4.616  21.308   8.483
29954W        W34022   5.115  19.049   9.708
29955W        W34023   4.815  18.418   9.177
29956W        W34024   3.878  21.240   7.725
29957W        W34025   4.569  21.399  10.322
29958W        W34026   4.046  20.222   8.018
29959W        W34027   3.931  18.765   9.017
29960W        W34028   5.479  20.730   9.074
29961W        W34029   3.731  18.584   8.094
29962W        W34030   6.395  19.790  10.021
29963W        W34031   6.272  19.176   7.593
29964W        W34032   6.789  20.848   9.241
29965W        W34033   5.450  21.332   9.072
29966W        W34034   4.862  21.436   7.983
29967W        W34035   6.144  18.339   7.413
29968W        W34036   3.944  21.599   9.154
29969W        W34037   6.141  19.357  10.789
29970W        W34038   4.124  18.887  10.788
29971W        W34039   3.855  19.487   8.121
29972W        W34040   4.546  19.476   7.846
29973W        W34041   6.309  19.803  10.663
29974W        W34042   4.652  20.084   9.372
29975W        W34043   6.126  18.370   8.492
29976W        W34044   5.257  21.801   8.995
29977W        W34045   6.471  21.263   9.932
29978W        W34046   6.055  21.412   9.043
29979W        W34047   6.074  20.392   8.637
29980W        W34048   5.536  18.617   7.708
29981W        W34049   7.217  18.245   8.430
29982W        W34050   4.905  19.880   7.593
29983W        W34051   7.071  19.217   8.583
29984W        W34052   5.763  20.387   7.460
29985W        W34053   6.699  20.587  10.208
29986W        W34054   4.968  18.963  10.581
29987W        W34055   4.788  19.547   9.822
29988W        W34056   6.880  21.042  10.099
29989W        W34057   3.824  19.463  10.253
29990W        W34058   5.584  19.940   9.979
29991W        W34059   3.941  20.698   8.636
29992W        W34060   4.088  19.995   9.526
29993W        W34061   6.177  21.661  10.687
29994W        W34062   6.073  19.400  10.240
29995W        W34063   6.350  21.454   8.645
29996W        W34064   5.352  21.174   9.968
29997W        W34065   4.837  21.529   9.237
29998W        W34066   6.642  20.700   9.656
29999W        W34067   5.692  20.772  10.793
30000W        W34068   4.297  20.725   9.132
30001W        W34069   6.643  20.484   8.777
30002W        W34070   6.284  21.550   9.528
30003W        W34071   4.262  21.279   9.398
30004W        W34072   5.283  19.331  10.608
30005W        W34073   5.734  21.497   8.119
30006W        W34074   5.042  20.752  10.757
30007W        W34075   5.168  20.990   8.134
30008W        W34076   4.389  19.730   7.393
30009W        W34077   3.728  21.816  14.292
30010W        W34078   4.104  20.709  13.815
30011W        W34079   6.809  20.439  11.585
30012W        W34080   6.939  21.524  13.612
30013W        W34081   4.857  21.515  11.138
30014W        W34082   4.940  19.667  12.121
30015W        W34083   4.455  19.515  12.285
30016W        W34084   5.446  20.330  11.719
30017W        W34085   5.121  21.422  14.074
30018W        W34086   3.770  18.983  14.037
30019W        W34087   4.532  18.263  13.839
30020W        W34088   6.226  18.651  12.726
30021W        W34089   5.875  19.522  11.296
30022W        W34090   6.445  18.956  14.387
30023W        W34091   3.811  18.748  13.512
30024W        W34092   3.910  21.367  14.533
30025W        W34093   5.432  20.757  11.265
30026W        W34094   3.864  19.540  12.958
30027W        W34095   4.757  19.431  14.195
30028W        W34096   7.216  19.290  12.694
30029W        W34097   6.980  20.333  13.553
30030W        W34098   5.288  19.666  12.580
30031W        W34099   5.834  21.005  12.949
30032W        W34100   4.334  20.439  13.181
30033W        W34101   3.693  19.967  12.752
30034W        W34102   4.729  19.939  13.944
30035W        W34103   7.000  19.722  14.198
30036W        W34104   4.616  21.166  12.643
30037W        W34105   5.737  20.855  13.777
30038W        W34106   4.957  19.495  13.002
30039W        W34107   5.249  20.279  12.645
30040W        W34108   6.246  21.052  14.493
30041W        W34109   5.325  20.372  14.503
30042W        W34110   5.306  20.088  13.981
30043W        W34111   3.715  19.479  14.503
30044W        W34112   6.547  21.014  14.102
30045W        W34113   4.128  18.596  12.100
30046W        W34114   4.655  20.854  13.099
30047W        W34115   7.118  20.637  12.389
30048W        W34116   6.531  19.037  12.956
30049W        W34117   6.816  18.990  11.051
30050W        W34118   7.281  19.791  13.357
30051W        W34119   5.248  21.498  13.110
30052W        W34120   7.022  20.964  11.548
30053W        W34121   4.151  21.750  11.302
30054W        W34122   4.544  21.796  11.978
30055W        W34123   4.341  18.550  13.404
30056W        W34124   6.964  19.568  13.679
30057W        W34125   6.369  19.990  12.138
30058W        W34126   6.335  19.678  11.165
30059W        W34127   5.543  20.822  13.305
30060W        W34128   5.349  19.152  12.504
30061W        W34129   5.949  21.239  13.498
30062W        W34130   6.820  20.030  11.920
30063W        W34131   5.722  18.688  11.936
30064W        W34132   4.379  21.382  11.619
30065W        W34133   3.750  18.881  12.218
30066W        W34134   6.536  19.488  12.692
30067W        W34135   3.994  21.105  12.607
30068W        W34136   5.335  21.455  11.477
30069W        W34137   6.727  19.481  10.941
30070W        W34138   3.750  21.239  13.105
30071W        W34139   4.541  20.811  13.585
30072W        W34140   4.914  20.171  12.204
30073W        W34141   4.936  18.576  13.297
30074W        W34142   7.165  18.338  12.594
30075W        W34143   4.384  20.210  11.062
30076W        W34144   4.039  19.243  11.241
30077W        W34145   4.101  21.199  12.035
30078W        W34146   5.232  20.682  12.283
30079W        W34147   6.564  21.541  13.997
30080W        W34148   5.490  19.183  11.681
30081W        W34149   6.873  21.581  12.453
30082W        W34150   6.550  19.434  14.051
30083W        W34151   7.263  21.090  12.185
30084W        W34152   5.890  20.382  13.669
30085W        W34153   3.656  19.933  11.875
30086W        W34154   4.767  20.348  13.448
30087W        W34155   5.971  19.612  11.826
30088W        W34156   5.848  20.102  11.930
30089W        W34157   4.191  19.522  13.404
30090W        W34158   4.176  19.398  14.326
30091W        W34159   4.066  18.315  12.485
30092W        W34160   5.834  18.662  13.046
30093W        W34161   5.482  18.847  14.209
30094W        W34162   5.837  18.996  11.387
30095W        W34163   7.020  21.389  14.141
30096W        W34164   5.987  18.470  14.180
30097W        W34165   7.006  20.771  14.302
30098W        W34166   6.436  18.938  13.898
30099W        W34167   6.236  18.876  12.168
30100W        W34168   6.629  20.010  14.572
30101W        W34169   4.369  21.586  12.558
30102W        W34170   4.596  18.587  14.208
30103W        W34171   6.648  19.071  11.889
30104W        W34172   7.015  19.553  11.834
30105W        W34173   4.758  21.770  14.305
30106W        W34174   4.684  18.306  11.540
30107W        W34175   7.005  18.840  12.575
30108W        W34176   7.155  21.089  11.020
30109W        W34177   4.062  20.292  12.722
30110W        W34178   7.113  21.211  12.672
30111W        W34179   7.152  18.405  13.422
30112W        W34180   5.597  19.617  13.976
30113W        W34181   5.690  20.956  11.679
30114W        W34182   6.090  20.250  14.419
30115W        W34183   5.764  18.227  12.728
30116W        W34184   4.376  19.130  12.791
30117W        W34185   3.930  20.330  13.565
30118W        W34186   5.789  21.523  12.271
30119W        W34187   6.983  19.120  13.143
30120W        W34188   5.620  21.467  13.910
30121W        W34189   6.963  20.526  11.115
30122W        W34190   5.398  20.009  12.176
30123W        W34191   7.250  18.520  13.917
30124W        W34192   5.399  20.355  13.511
30125W        W34193   5.616  19.241  12.956
30126W        W34194   6.468  19.539  11.794
30127W        W34195   6.755  19.272  11.436
30128W        W34196   6.564  21.312  11.825
30129W        W34197   6.398  20.915  12.621
30130W        W34198   6.294  19.994  11.599
30131W        W34199   5.727  20.204  12.585
30132W        W34200   6.608  19.992  12.652
30133W        W34201   3.983  19.007  13.076
30134W        W34202   6.761  20.059  13.903
30135W        W34203   7.112  21.677  13.049
30136W        W34204   5.042  21.121  12.451
30137W        W34205   6.049  21.654  13.775
30138W        W34206   6.043  18.984  13.539
30139W        W34207   5.250  21.692  13.600
30140W        W34208   6.947  18.646  12.066
30141W        W34209   6.738  19.965  13.367
30142W        W34210   3.721  19.286  13.405
30143W        W34211   6.581  19.081  12.423
30144W        W34212   6.992  19.232  14.200
30145W        W34213   5.877  20.931  12.418
30146W        W34214   5.133  21.522  12.031
30147W        W34215   4.248  18.702  11.289
30148W        W34216   5.352  18.356  13.099
30149W        W34217   4.380  21.476  10.947
30150W        W34218   4.754  19.942  11.698
30151W        W34219   5.408  20.571  14.011
30152W        W34220   5.238  18.929  12.001
30153W        W34221   6.594  18.526  12.429
30154W        W34222   6.314  21.808  12.757
30155W        W34223   5.726  21.456  13.097
30156W        W34224   5.122  20.493  13.058
30157W        W34225   6.892  21.216  13.184
30158W        W34226   4.586  18.719  11.953
30159W        W34227   5.108  21.016  12.913
30160W        W34228   4.591  18.947  10.978
30161W        W34229   5.392  19.556  13.372
30162W        W34230   6.240  18.422  13.242
30163W        W34231   3.660  20.265  13.127
30164W        W34232   5.364  20.083  11.285
30165W        W34233   4.632  18.398  11.055
30166W        W34234   5.370  19.479  12.106
30167W        W34235   6.340  18.455  13.805
30168W        W34236   4.928  20.467  13.914
30169W        W34237   5.732  20.249  14.131
30170W        W34238   6.349  20.279  14.024
30171W        W34239   5.633  18.419  14.529
30172W        W34240   4.855  19.035  12.922
30173W        W34241   4.281  18.991  12.320
30174W        W34242   4.067  21.703  11.996
30175W        W34243   5.399  21.033  14.121
30176W        W34244   4.434  20.518  11.480
30177W        W34245   6.114  19.903  12.701
30178W        W34246   6.394  19.702  13.100
30179W        W34247   5.599  20.376  13.034
30180W        W34248   6.069  20.750  11.166
30181W        W34249   5.741  18.771  12.494
30182W        W34250   7.220  19.049  11.762
30183W        W34251   3.714  21.638  13.793
30184W        W34252   4.131  20.864  13.325
30185W        W34253   3.698  21.710  11.557
30186W        W34254   5.597  18.980  13.363
30187W        W34255   4.960  21.003  11.212
30188W        W34256   6.865  21.385  11.398
30189W        W34257   5.840  20.038  11.412
30190W        W34258   5.515  19.139  10.981
30191W        W34259   6.099  20.704  14.159
30192W        W34260   6.452  18.610  11.776
30193W        W34261   3.782  18.458  11.224
30194W        W34262   5.068  20.777  13.514
30195W        W34263   4.867  20.693  12.606
30196W        W34264   4.609  20.645  11.004
30197W        W34265   3.850  20.886  11.772
30198W        W34266   4.354  19.956  14.214
30199W        W34267   5.058  18.516  14.400
30200W        W34268   5.767  18.658  13.756
30201W        W34269   4.962  18.426  12.037
30202W        W34270   6.021  18.503  11.542
30203W        W34271   3.966  18.435  13.119
30204W        W34272   4.014  19.398  12.489
30205W        W34273   6.703  18.506  12.895
30206W        W34274   4.125  19.004  11.709
30207W        W34275   6.696  18.692  13.325
30208W        W34276   7.092  19.895  11.010
30209W        W34277   4.384  18.653  12.829
30210W        W34278   5.498  19.225  13.769
30211W        W34279   3.646  18.915  11.247
30212W        W34280   4.432  20.304  13.808
30213W        W34281   5.790  19.702  12.987
30214W        W34282   5.657  21.781  11.283
30215W        W34283   3.803  20.288  10.980
30216W        W34284   4.538  20.699  14.106
30217W        W34285   4.059  19.866  13.737
30218W        W34286   5.050  19.971  13.531
30219W        W34287   6.818  18.330  13.793
30220W        W34288   7.216  19.940  13.784
30221W        W34289   7.204  20.140  11.470
30222W        W34290   6.067  20.472  11.569
30223W        W34291   6.541  21.772  11.264
30224W        W34292   5.718  19.762  14.406
30225W        W34293   4.048  20.729  14.446
30226W        W34294   7.254  18.651  14.398
30227W        W34295   6.972  19.579  13.019
30228W        W34296   5.280  21.709  14.496
30229W        W34297   5.135  18.338  11.223
30230W        W34298   6.674  20.937  11.166
30231W        W34299   4.443  19.030  14.052
30232W        W34300   4.877  21.024  13.914
30233W        W34301   7.003  19.015  13.712
30234W        W34302   6.214  21.674  11.680
30235W        W34303   6.453  20.293  13.047
30236W        W34304   4.703  18.709  13.714
30237W        W34305   5.172  19.778  14.471
30238W        W34306   4.675  20.957  11.665
30239W        W34307   6.430  20.455  11.929
30240W        W34308   4.198  19.081  13.653
30241W        W34309   5.527  21.143  12.117
30242W        W34310   7.277  19.703  12.298
30243W        W34311   5.499  18.336  14.017
30244W        W34312   6.279  21.041  13.096
30245W        W34313   6.582  21.385  12.804
30246W        W34314   5.801  21.187  11.232
30247W        W34315   3.811  21.079  14.074
30248W        W34316   4.554  19.071  13.312
30249W        W34317   4.524  18.419  12.422
30250W        W34318   6.145  19.261  13.114
30251W        W34319   4.943  20.432  11.314
30252W        W34320   6.941  20.374  12.813
30253W        W34321   4.268  21.132  14.236
30254W        W34322   6.655  21.814  12.033
30255W        W34323   4.754  18.834  12.478
30256W        W34324   4.523  20.327  12.568
30257W        W34325   4.836  21.738  13.318
30258W        W34326   6.903  21.834  14.350
30259W        W34327   6.062  20.022  13.283
30260W        W34328   3.911  19.820  11.198
30261W        W34329   7.045  21.478  11.895
30262W        W34330   6.882  18.802  11.514
30263W        W34331   5.021  18.321  13.917
30264W        W34332   6.727  21.123  12.375
30265W        W34333   6.756  19.679  12.280
30266W        W34334   4.873  19.352  12.496
30267W        W34335   5.118  19.614  13.820
30268W        W34336   6.229  20.767  13.683
30269W        W34337   4.879  19.221  13.795
30270W        W34338   4.858  21.687  12.411
30271W        W34339   4.175  21.646  14.045
30272W        W34340   4.287  21.007  11.175
30273W        W34341   6.804  20.765  11.985
30274W        W34342   4.408  19.557  13.871
30275W        W34343   7.181  19.487  11.352
30276W        W34344   4.926  20.544  11.823
30277W        W34345   6.025  19.926  13.904
30278W        W34346   5.916  19.554  13.448
30279W        W34347   4.476  19.926  13.477
30280W        W34348   6.686  21.814  13.306
30281W        W34349   6.477  18.448  14.300
30282W        W34350   4.141  18.598  13.887
30283W        W34351   4.480  19.621  12.940
30284W        W34352   4.849  19.435  11.062
30285W        W34353   3.652  21.194  13.607
30286W        W34354   5.237  19.903  13.050
30287W        W34355   5.060  18.928  11.155
30288W        W34356   4.195  19.744  11.936
30289W        W34357   3.966  21.596  13.373
30290W        W34358   6.761  19.822  11.481
30291W        W34359   6.856  18.738  14.167
30292W        W34360   6.292  20.947  12.130
30293W        W34361   3.890  19.871  14.307
30294W        W34362   6.856  18.335  11.603
30295W        W34363   6.376  20.810  11.614
30296W        W34364   5.278  19.868  11.699
30297W        W34365   6.465  18.672  11.222
30298W        W34366   6.530  19.279  13.408
30299W        W34367   4.239  19.872  12.615
30300W        W34368   4.533  20.811  12.264
30301W        W34369   6.296  19.431  12.229
30302W        W34370   5.319  18.810  12.925
30303W        W34371   7.281  20.721  13.436
30304W        W34372   7.199  18.708  12.997
30305W        W34373   3.738  21.538  12.373
30306W        W34374   4.247  20.725  11.909
30307W        W34375   4.162  18.342  14.462
30308W        W34376   5.281  21.195  14.564
30309W        W34377   7.036  20.163  12.354
30310W        W34378   6.390  20.340  11.234
30311W        W34379   5.685  21.861  13.446
30312W        W34380   6.542  20.583  14.483
30313W        W34381   5.357  18.293  11.763
30314W        W34382   6.070  19.162  12.622
30315W        W34383   3.756  20.749  12.954
30316W        W34384   5.009  18.711  11.595
30317W        W34385   4.813  20.195  14.444
30318W        W34386   5.807  19.176  12.158
30319W        W34387   6.012  20.586  13.280
30320W        W34388   4.166  21.191  13.715
30321W        W34389   4.757  21.174  14.438
30322W        W34390   4.608  18.971  11.452
30323W        W34391   6.125  19.113  11.777
30324W        W34392   6.083  21.221  14.014
30325W        W34393   4.768  19.813  12.613
30326W        W34394   4.423  21.511  13.478
30327W        W34395   7.168  21.628  11.079
30328W        W34396   4.031  20.300  14.075
30329W        W34397   6.026  20.562  12.763
30330W        W34398   4.462  20.211  12.005
30331W        W34399   4.833  21.218  13.400
30332W        W34400   5.211  18.637  12.441
30333W        W34401   3.822  20.621  11.371
30334W        W34402   5.341  19.572  11.241
30335W        W34403   3.987  20.121  12.260
30336W        W34404   5.277  18.763  13.724
30337W        W34405   6.949  18.472  11.151
30338W        W34406   7.042  20.218  14.250
30339W        W34407   5.696  21.475  14.402
30340W        W34408   7.254  20.569  13.924
30341W        W34409   6.662  21.367  14.535
30342W        W34410   4.401  21.823  13.013
30343W        W34411   7.260  20.445  11.887
30344W        W34412   5.790  19.712  12.400
30345W        W34413   5.557  18.324  12.290
30346W        W34414   4.616  21.308  12.127
30347W        W34415   5.115  19.049  13.352
30348W        W34416   4.815  18.418  12.821
30349W        W34417   3.878  21.240  11.369
30350W        W34418   5.694  20.604  12.087
30351W        W34419   4.569  21.399  13.966
30352W        W34420   4.046  20.222  11.662
30353W        W34421   3.931  18.765  12.661
30354W        W34422   5.479  20.730  12.718
30355W        W34423   3.731  18.584  11.738
30356W        W34424   6.395  19.790  13.665
30357W        W34425   6.272  19.176  11.237
30358W        W34426   6.789  20.848  12.885
30359W        W34427   5.450  21.332  12.716
30360W        W34428   4.862  21.436  11.627
30361W        W34429   6.144  18.339  11.057
30362W        W34430   3.944  21.599  12.798
30363W        W34431   6.141  19.357  14.433
30364W        W34432   4.124  18.887  14.432
30365W        W34433   3.855  19.487  11.765
30366W        W34434   4.546  19.476  11.490
30367W        W34435   6.309  19.803  14.307
30368W        W34436   4.652  20.084  13.016
30369W        W34437   6.126  18.370  12.136
30370W        W34438   5.257  21.801  12.639
30371W        W34439   6.471  21.263  13.576
30372W        W34440   6.055  21.412  12.687
30373W        W34441   6.074  20.392  12.281
30374W        W34442   5.536  18.617  11.352
30375W        W34443   7.217  18.245  12.074
30376W        W34444   7.071  19.217  12.227
30377W        W34445   5.763  20.387  11.104
30378W        W34446   6.699  20.587  13.852
30379W        W34447   6.353  21.288  11.319
30380W        W34448   4.968  18.963  14.225
30381W        W34449   4.788  19.547  13.466
30382W        W34450   6.880  21.042  13.743
30383W        W34451   5.980  18.992  14.120
30384W        W34452   3.824  19.463  13.897
30385W        W34453   5.584  19.940  13.623
30386W        W34454   3.941  20.698  12.280
30387W        W34455   4.088  19.995  13.170
30388W        W34456   6.405  20.281  13.520
30389W        W34457   6.177  21.661  14.331
30390W        W34458   6.073  19.400  13.884
30391W        W34459   6.350  21.454  12.289
30392W        W34460   5.352  21.174  13.612
30393W        W34461   4.837  21.529  12.881
30394W        W34462   6.642  20.700  13.300
30395W        W34463   5.692  20.772  14.437
30396W        W34464   4.297  20.725  12.776
30397W        W34465   6.643  20.484  12.421
30398W        W34466   6.284  21.550  13.172
30399W        W34467   4.262  21.279  13.042
30400W        W34468   5.283  19.331  14.252
30401W        W34469   5.734  21.497  11.763
30402W        W34470   5.042  20.752  14.401
30403W        W34471   5.168  20.990  11.778
30404W        W34472   4.389  19.730  11.037
30405W        W34473   3.728  21.816  17.936
30406W        W34474   4.104  20.709  17.459
30407W        W34475   6.809  20.439  15.229
30408W        W34476   6.939  21.524  17.256
30409W        W34477   4.857  21.515  14.782
30410W        W34478   4.940  19.667  15.765
30411W        W34479   4.455  19.515  15.929
30412W        W34480   5.446  20.330  15.363
30413W        W34481   5.121  21.422  17.718
30414W        W34482   3.770  18.983  17.681
30415W        W34483   4.532  18.263  17.483
30416W        W34484   6.226  18.651  16.370
30417W        W34485   5.875  19.522  14.940
30418W        W34486   6.445  18.956  18.031
30419W        W34487   3.811  18.748  17.156
30420W        W34488   3.910  21.367  18.177
30421W        W34489   5.432  20.757  14.909
30422W        W34490   3.864  19.540  16.602
30423W        W34491   4.757  19.431  17.839
30424W        W34492   7.216  19.290  16.338
30425W        W34493   6.980  20.333  17.197
30426W        W34494   5.288  19.666  16.224
30427W        W34495   5.834  21.005  16.593
30428W        W34496   4.334  20.439  16.825
30429W        W34497   3.693  19.967  16.396
30430W        W34498   4.729  19.939  17.588
30431W        W34499   7.000  19.722  17.842
30432W        W34500   4.616  21.166  16.287
30433W        W34501   5.737  20.855  17.421
30434W        W34502   4.957  19.495  16.646
30435W        W34503   5.249  20.279  16.289
30436W        W34504   6.246  21.052  18.137
30437W        W34505   5.325  20.372  18.147
30438W        W34506   5.306  20.088  17.625
30439W        W34507   3.715  19.479  18.147
30440W        W34508   6.547  21.014  17.746
30441W        W34509   4.128  18.596  15.744
30442W        W34510   4.655  20.854  16.743
30443W        W34511   7.118  20.637  16.033
30444W        W34512   6.531  19.037  16.600
30445W        W34513   6.816  18.990  14.695
30446W        W34514   7.281  19.791  17.001
30447W        W34515   5.248  21.498  16.754
30448W        W34516   7.022  20.964  15.192
30449W        W34517   4.151  21.750  14.946
30450W        W34518   4.544  21.796  15.622
30451W        W34519   4.341  18.550  17.048
30452W        W34520   6.964  19.568  17.323
30453W        W34521   6.369  19.990  15.782
30454W        W34522   6.335  19.678  14.809
30455W        W34523   5.543  20.822  16.949
30456W        W34524   5.349  19.152  16.148
30457W        W34525   5.949  21.239  17.142
30458W        W34526   6.820  20.030  15.564
30459W        W34527   5.722  18.688  15.580
30460W        W34528   4.379  21.382  15.263
30461W        W34529   3.750  18.881  15.862
30462W        W34530   6.536  19.488  16.336
30463W        W34531   3.994  21.105  16.251
30464W        W34532   5.335  21.455  15.121
30465W        W34533   6.727  19.481  14.585
30466W        W34534   3.750  21.239  16.749
30467W        W34535   4.541  20.811  17.229
30468W        W34536   4.914  20.171  15.848
30469W        W34537   4.936  18.576  16.941
30470W        W34538   7.165  18.338  16.238
30471W        W34539   4.384  20.210  14.706
30472W        W34540   4.039  19.243  14.885
30473W        W34541   4.101  21.199  15.679
30474W        W34542   5.232  20.682  15.927
30475W        W34543   6.564  21.541  17.641
30476W        W34544   5.490  19.183  15.325
30477W        W34545   6.873  21.581  16.097
30478W        W34546   6.550  19.434  17.695
30479W        W34547   7.263  21.090  15.829
30480W        W34548   5.890  20.382  17.313
30481W        W34549   3.656  19.933  15.519
30482W        W34550   4.767  20.348  17.092
30483W        W34551   5.971  19.612  15.470
30484W        W34552   5.848  20.102  15.574
30485W        W34553   4.191  19.522  17.048
30486W        W34554   4.176  19.398  17.970
30487W        W34555   4.066  18.315  16.129
30488W        W34556   5.834  18.662  16.690
30489W        W34557   5.482  18.847  17.853
30490W        W34558   5.837  18.996  15.031
30491W        W34559   7.020  21.389  17.785
30492W        W34560   5.987  18.470  17.824
30493W        W34561   7.006  20.771  17.946
30494W        W34562   6.436  18.938  17.542
30495W        W34563   6.236  18.876  15.812
30496W        W34564   6.629  20.010  18.216
30497W        W34565   4.369  21.586  16.202
30498W        W34566   5.027  19.303  15.188
30499W        W34567   4.596  18.587  17.852
30500W        W34568   6.648  19.071  15.533
30501W        W34569   7.015  19.553  15.478
30502W        W34570   4.758  21.770  17.949
30503W        W34571   4.684  18.306  15.184
30504W        W34572   7.005  18.840  16.219
30505W        W34573   7.155  21.089  14.664
30506W        W34574   4.062  20.292  16.366
30507W        W34575   5.979  18.879  14.596
30508W        W34576   7.113  21.211  16.316
30509W        W34577   7.152  18.405  17.066
30510W        W34578   5.597  19.617  17.620
30511W        W34579   5.690  20.956  15.323
30512W        W34580   6.090  20.250  18.063
30513W        W34581   5.764  18.227  16.372
30514W        W34582   4.376  19.130  16.435
30515W        W34583   3.930  20.330  17.209
30516W        W34584   5.789  21.523  15.915
30517W        W34585   6.983  19.120  16.787
30518W        W34586   5.620  21.467  17.554
30519W        W34587   6.963  20.526  14.759
30520W        W34588   5.398  20.009  15.820
30521W        W34589   7.250  18.520  17.561
30522W        W34590   5.399  20.355  17.155
30523W        W34591   5.616  19.241  16.600
30524W        W34592   6.468  19.539  15.438
30525W        W34593   6.755  19.272  15.080
30526W        W34594   6.564  21.312  15.469
30527W        W34595   6.398  20.915  16.265
30528W        W34596   6.294  19.994  15.243
30529W        W34597   5.727  20.204  16.229
30530W        W34598   6.608  19.992  16.296
30531W        W34599   3.983  19.007  16.720
30532W        W34600   6.761  20.059  17.547
30533W        W34601   7.112  21.677  16.693
30534W        W34602   5.042  21.121  16.095
30535W        W34603   6.049  21.654  17.419
30536W        W34604   6.043  18.984  17.183
30537W        W34605   5.250  21.692  17.244
30538W        W34606   6.947  18.646  15.710
30539W        W34607   6.738  19.965  17.011
30540W        W34608   3.721  19.286  17.049
30541W        W34609   6.581  19.081  16.067
30542W        W34610   6.992  19.232  17.844
30543W        W34611   5.877  20.931  16.062
30544W        W34612   5.133  21.522  15.675
30545W        W34613   4.248  18.702  14.933
30546W        W34614   5.352  18.356  16.743
30547W        W34615   4.380  21.476  14.591
30548W        W34616   4.754  19.942  15.342
30549W        W34617   5.408  20.571  17.655
30550W        W34618   5.238  18.929  15.645
30551W        W34619   6.594  18.526  16.073
30552W        W34620   6.314  21.808  16.401
30553W        W34621   5.726  21.456  16.741
30554W        W34622   5.122  20.493  16.702
30555W        W34623   6.892  21.216  16.828
30556W        W34624   4.586  18.719  15.597
30557W        W34625   5.108  21.016  16.557
30558W        W34626   4.591  18.947  14.622
30559W        W34627   5.392  19.556  17.016
30560W        W34628   6.240  18.422  16.886
30561W        W34629   3.660  20.265  16.771
30562W        W34630   5.364  20.083  14.929
30563W        W34631   4.632  18.398  14.699
30564W        W34632   5.370  19.479  15.750
30565W        W34633   6.340  18.455  17.449
30566W        W34634   4.928  20.467  17.558
30567W        W34635   5.732  20.249  17.775
30568W        W34636   6.349  20.279  17.668
30569W        W34637   5.633  18.419  18.173
30570W        W34638   4.855  19.035  16.566
30571W        W34639   4.281  18.991  15.964
30572W        W34640   4.067  21.703  15.640
30573W        W34641   5.399  21.033  17.765
30574W        W34642   4.434  20.518  15.124
30575W        W34643   6.114  19.903  16.345
30576W        W34644   6.394  19.702  16.744
30577W        W34645   5.599  20.376  16.678
30578W        W34646   6.069  20.750  14.810
30579W        W34647   7.220  19.049  15.406
30580W        W34648   3.714  21.638  17.437
30581W        W34649   4.131  20.864  16.969
30582W        W34650   3.698  21.710  15.201
30583W        W34651   5.597  18.980  17.007
30584W        W34652   4.960  21.003  14.856
30585W        W34653   6.865  21.385  15.042
30586W        W34654   5.840  20.038  15.056
30587W        W34655   4.683  19.229  15.573
30588W        W34656   5.515  19.139  14.625
30589W        W34657   6.099  20.704  17.803
30590W        W34658   6.452  18.610  15.420
30591W        W34659   3.782  18.458  14.868
30592W        W34660   5.068  20.777  17.158
30593W        W34661   4.867  20.693  16.250
30594W        W34662   4.609  20.645  14.648
30595W        W34663   3.850  20.886  15.416
30596W        W34664   4.354  19.956  17.858
30597W        W34665   5.058  18.516  18.044
30598W        W34666   5.767  18.658  17.400
30599W        W34667   4.962  18.426  15.681
30600W        W34668   6.021  18.503  15.186
30601W        W34669   3.966  18.435  16.763
30602W        W34670   4.014  19.398  16.133
30603W        W34671   6.703  18.506  16.539
30604W        W34672   4.125  19.004  15.353
30605W        W34673   6.696  18.692  16.969
30606W        W34674   7.092  19.895  14.654
30607W        W34675   4.384  18.653  16.473
30608W        W34676   5.498  19.225  17.413
30609W        W34677   3.646  18.915  14.891
30610W        W34678   4.432  20.304  17.452
30611W        W34679   5.790  19.702  16.631
30612W        W34680   5.657  21.781  14.927
30613W        W34681   3.803  20.288  14.624
30614W        W34682   4.538  20.699  17.750
30615W        W34683   4.059  19.866  17.381
30616W        W34684   5.050  19.971  17.175
30617W        W34685   6.818  18.330  17.437
30618W        W34686   7.216  19.940  17.428
30619W        W34687   7.204  20.140  15.114
30620W        W34688   6.067  20.472  15.213
30621W        W34689   6.541  21.772  14.908
30622W        W34690   5.718  19.762  18.050
30623W        W34691   4.048  20.729  18.090
30624W        W34692   7.254  18.651  18.042
30625W        W34693   6.972  19.579  16.663
30626W        W34694   5.280  21.709  18.140
30627W        W34695   5.135  18.338  14.867
30628W        W34696   6.674  20.937  14.810
30629W        W34697   4.443  19.030  17.696
30630W        W34698   4.877  21.024  17.558
30631W        W34699   7.003  19.015  17.356
30632W        W34700   6.214  21.674  15.324
30633W        W34701   6.453  20.293  16.691
30634W        W34702   4.703  18.709  17.358
30635W        W34703   5.172  19.778  18.115
30636W        W34704   4.675  20.957  15.309
30637W        W34705   6.430  20.455  15.573
30638W        W34706   4.198  19.081  17.297
30639W        W34707   5.527  21.143  15.761
30640W        W34708   7.277  19.703  15.942
30641W        W34709   5.499  18.336  17.661
30642W        W34710   6.279  21.041  16.740
30643W        W34711   6.582  21.385  16.448
30644W        W34712   5.801  21.187  14.876
30645W        W34713   3.811  21.079  17.718
30646W        W34714   4.554  19.071  16.956
30647W        W34715   4.524  18.419  16.066
30648W        W34716   6.145  19.261  16.758
30649W        W34717   4.943  20.432  14.958
30650W        W34718   6.941  20.374  16.457
30651W        W34719   4.268  21.132  17.880
30652W        W34720   6.655  21.814  15.677
30653W        W34721   4.754  18.834  16.122
30654W        W34722   4.523  20.327  16.212
30655W        W34723   4.836  21.738  16.962
30656W        W34724   6.903  21.834  17.994
30657W        W34725   6.062  20.022  16.927
30658W        W34726   3.911  19.820  14.842
30659W        W34727   7.045  21.478  15.539
30660W        W34728   6.882  18.802  15.158
30661W        W34729   5.021  18.321  17.561
30662W        W34730   6.727  21.123  16.019
30663W        W34731   6.756  19.679  15.924
30664W        W34732   4.873  19.352  16.140
30665W        W34733   5.118  19.614  17.464
30666W        W34734   6.229  20.767  17.327
30667W        W34735   4.879  19.221  17.439
30668W        W34736   4.858  21.687  16.055
30669W        W34737   4.175  21.646  17.689
30670W        W34738   4.287  21.007  14.819
30671W        W34739   6.804  20.765  15.629
30672W        W34740   4.408  19.557  17.515
30673W        W34741   7.181  19.487  14.996
30674W        W34742   4.926  20.544  15.467
30675W        W34743   6.025  19.926  17.548
30676W        W34744   5.916  19.554  17.092
30677W        W34745   4.476  19.926  17.121
30678W        W34746   6.686  21.814  16.950
30679W        W34747   6.477  18.448  17.944
30680W        W34748   4.141  18.598  17.531
30681W        W34749   4.480  19.621  16.584
30682W        W34750   4.849  19.435  14.706
30683W        W34751   3.652  21.194  17.251
30684W        W34752   5.237  19.903  16.694
30685W        W34753   5.060  18.928  14.799
30686W        W34754   4.195  19.744  15.580
30687W        W34755   3.966  21.596  17.017
30688W        W34756   6.761  19.822  15.125
30689W        W34757   6.856  18.738  17.811
30690W        W34758   6.292  20.947  15.774
30691W        W34759   3.890  19.871  17.951
30692W        W34760   6.856  18.335  15.247
30693W        W34761   6.376  20.810  15.258
30694W        W34762   5.278  19.868  15.343
30695W        W34763   6.465  18.672  14.866
30696W        W34764   6.530  19.279  17.052
30697W        W34765   4.239  19.872  16.259
30698W        W34766   4.533  20.811  15.908
30699W        W34767   5.319  18.810  16.569
30700W        W34768   7.281  20.721  17.080
30701W        W34769   7.199  18.708  16.641
30702W        W34770   3.738  21.538  16.017
30703W        W34771   4.247  20.725  15.553
30704W        W34772   4.162  18.342  18.106
30705W        W34773   5.281  21.195  18.208
30706W        W34774   7.036  20.163  15.998
30707W        W34775   6.390  20.340  14.878
30708W        W34776   5.685  21.861  17.090
30709W        W34777   6.542  20.583  18.127
30710W        W34778   5.357  18.293  15.407
30711W        W34779   6.070  19.162  16.266
30712W        W34780   3.756  20.749  16.598
30713W        W34781   5.009  18.711  15.239
30714W        W34782   4.813  20.195  18.088
30715W        W34783   5.807  19.176  15.802
30716W        W34784   6.012  20.586  16.924
30717W        W34785   4.166  21.191  17.359
30718W        W34786   4.757  21.174  18.082
30719W        W34787   4.608  18.971  15.096
30720W        W34788   6.125  19.113  15.421
30721W        W34789   6.083  21.221  17.658
30722W        W34790   4.768  19.813  16.257
30723W        W34791   4.423  21.511  17.122
30724W        W34792   7.168  21.628  14.723
30725W        W34793   4.031  20.300  17.719
30726W        W34794   6.026  20.562  16.407
30727W        W34795   4.462  20.211  15.649
30728W        W34796   4.833  21.218  17.044
30729W        W34797   5.211  18.637  16.085
30730W        W34798   3.822  20.621  15.015
30731W        W34799   5.341  19.572  14.885
30732W        W34800   3.987  20.121  15.904
30733W        W34801   5.277  18.763  17.368
30734W        W34802   6.949  18.472  14.795
30735W        W34803   7.042  20.218  17.894
30736W        W34804   5.696  21.475  18.046
30737W        W34805   7.254  20.569  17.568
30738W        W34806   6.662  21.367  18.179
30739W        W34807   4.401  21.823  16.657
30740W        W34808   7.260  20.445  15.531
30741W        W34809   5.790  19.712  16.044
30742W        W34810   5.557  18.324  15.934
30743W        W34811   4.616  21.308  15.771
30744W        W34812   5.115  19.049  16.996
30745W        W34813   4.815  18.418  16.465
30746W        W34814   3.878  21.240  15.013
30747W        W34815   5.694  20.604  15.731
30748W        W34816   4.569  21.399  17.610
30749W        W34817   4.046  20.222  15.306
30750W        W34818   3.931  18.765  16.305
30751W        W34819   5.479  20.730  16.362
30752W        W34820   3.731  18.584  15.382
30753W        W34821   6.395  19.790  17.309
30754W        W34822   6.272  19.176  14.881
30755W        W34823   6.789  20.848  16.529
30756W        W34824   5.450  21.332  16.360
30757W        W34825   4.862  21.436  15.271
30758W        W34826   6.144  18.339  14.701
30759W        W34827   3.944  21.599  16.442
30760W        W34828   6.141  19.357  18.077
30761W        W34829   4.124  18.887  18.076
30762W        W34830   3.855  19.487  15.409
30763W        W34831   4.546  19.476  15.134
30764W        W34832   6.309  19.803  17.951
30765W        W34833   4.652  20.084  16.660
30766W        W34834   5.257  21.801  16.283
30767W        W34835   6.471  21.263  17.220
30768W        W34836   6.055  21.412  16.331
30769W        W34837   6.074  20.392  15.925
30770W        W34838   5.536  18.617  14.996
30771W        W34839   7.217  18.245  15.718
30772W        W34840   4.905  19.880  14.881
30773W        W34841   7.071  19.217  15.871
30774W        W34842   5.763  20.387  14.748
30775W        W34843   6.699  20.587  17.496
30776W        W34844   6.353  21.288  14.963
30777W        W34845   4.968  18.963  17.869
30778W        W34846   4.788  19.547  17.110
30779W        W34847   6.880  21.042  17.387
30780W        W34848   5.980  18.992  17.764
30781W        W34849   3.824  19.463  17.541
30782W        W34850   5.584  19.940  17.267
30783W        W34851   3.941  20.698  15.924
30784W        W34852   4.088  19.995  16.814
30785W        W34853   6.405  20.281  17.164
30786W        W34854   6.177  21.661  17.975
30787W        W34855   6.073  19.400  17.528
30788W        W34856   6.350  21.454  15.933
30789W        W34857   5.352  21.174  17.256
30790W        W34858   4.837  21.529  16.525
30791W        W34859   6.642  20.700  16.944
30792W        W34860   5.692  20.772  18.081
30793W        W34861   4.297  20.725  16.420
30794W        W34862   6.643  20.484  16.065
30795W        W34863   6.284  21.550  16.816
30796W        W34864   4.262  21.279  16.686
30797W        W34865   5.283  19.331  17.896
30798W        W34866   5.734  21.497  15.407
30799W        W34867   5.042  20.752  18.045
30800W        W34868   5.168  20.990  15.422
30801W        W34869   4.389  19.730  14.681
30802W        W34870   3.728  21.816  21.580
30803W        W34871   4.104  20.709  21.103
30804W        W34872   6.809  20.439  18.873
30805W        W34873   6.939  21.524  20.900
30806W        W34874   4.857  21.515  18.426
30807W        W34875   4.940  19.667  19.409
30808W        W34876   4.455  19.515  19.573
30809W        W34877   5.446  20.330  19.007
30810W        W34878   5.121  21.422  21.362
30811W        W34879   3.770  18.983  21.325
30812W        W34880   4.532  18.263  21.127
30813W        W34881   6.226  18.651  20.014
30814W        W34882   5.875  19.522  18.584
30815W        W34883   6.445  18.956  21.675
30816W        W34884   3.811  18.748  20.800
30817W        W34885   3.910  21.367  21.821
30818W        W34886   5.432  20.757  18.553
30819W        W34887   3.864  19.540  20.246
30820W        W34888   4.757  19.431  21.483
30821W        W34889   7.216  19.290  19.982
30822W        W34890   6.980  20.333  20.841
30823W        W34891   5.288  19.666  19.868
30824W        W34892   5.834  21.005  20.237
30825W        W34893   4.334  20.439  20.469
30826W        W34894   3.693  19.967  20.040
30827W        W34895   4.729  19.939  21.232
30828W        W34896   7.000  19.722  21.486
30829W        W34897   4.616  21.166  19.931
30830W        W34898   5.737  20.855  21.065
30831W        W34899   4.957  19.495  20.290
30832W        W34900   5.249  20.279  19.933
30833W        W34901   6.246  21.052  21.781
30834W        W34902   5.325  20.372  21.791
30835W        W34903   5.306  20.088  21.269
30836W        W34904   3.715  19.479  21.791
30837W        W34905   6.547  21.014  21.390
30838W        W34906   4.128  18.596  19.388
30839W        W34907   4.655  20.854  20.387
30840W        W34908   7.118  20.637  19.677
30841W        W34909   6.531  19.037  20.244
30842W        W34910   6.816  18.990  18.339
30843W        W34911   7.281  19.791  20.645
30844W        W34912   5.248  21.498  20.398
30845W        W34913   7.022  20.964  18.836
30846W        W34914   4.151  21.750  18.590
30847W        W34915   4.544  21.796  19.266
30848W        W34916   4.341  18.550  20.692
30849W        W34917   6.964  19.568  20.967
30850W        W34918   6.369  19.990  19.426
30851W        W34919   6.335  19.678  18.453
30852W        W34920   5.543  20.822  20.593
30853W        W34921   5.349  19.152  19.792
30854W        W34922   5.949  21.239  20.786
30855W        W34923   6.820  20.030  19.208
30856W        W34924   5.722  18.688  19.224
30857W        W34925   4.379  21.382  18.907
30858W        W34926   3.750  18.881  19.506
30859W        W34927   6.536  19.488  19.980
30860W        W34928   3.994  21.105  19.895
30861W        W34929   5.335  21.455  18.765
30862W        W34930   6.727  19.481  18.229
30863W        W34931   3.750  21.239  20.393
30864W        W34932   4.541  20.811  20.873
30865W        W34933   4.914  20.171  19.492
30866W        W34934   4.936  18.576  20.585
30867W        W34935   7.165  18.338  19.882
30868W        W34936   4.384  20.210  18.350
30869W        W34937   4.039  19.243  18.529
30870W        W34938   4.101  21.199  19.323
30871W        W34939   5.232  20.682  19.571
30872W        W34940   6.564  21.541  21.285
30873W        W34941   5.490  19.183  18.969
30874W        W34942   6.873  21.581  19.741
30875W        W34943   6.550  19.434  21.339
30876W        W34944   7.263  21.090  19.473
30877W        W34945   5.890  20.382  20.957
30878W        W34946   3.656  19.933  19.163
30879W        W34947   4.767  20.348  20.736
30880W        W34948   5.971  19.612  19.114
30881W        W34949   5.848  20.102  19.218
30882W        W34950   4.191  19.522  20.692
30883W        W34951   4.176  19.398  21.614
30884W        W34952   4.066  18.315  19.773
30885W        W34953   5.834  18.662  20.334
30886W        W34954   5.482  18.847  21.497
30887W        W34955   5.837  18.996  18.675
30888W        W34956   7.020  21.389  21.429
30889W        W34957   5.987  18.470  21.468
30890W        W34958   7.006  20.771  21.590
30891W        W34959   6.436  18.938  21.186
30892W        W34960   6.236  18.876  19.456
30893W        W34961   6.629  20.010  21.860
30894W        W34962   4.369  21.586  19.846
30895W        W34963   5.027  19.303  18.832
30896W        W34964   4.596  18.587  21.496
30897W        W34965   6.648  19.071  19.177
30898W        W34966   7.015  19.553  19.122
30899W        W34967   4.758  21.770  21.593
30900W        W34968   4.684  18.306  18.828
30901W        W34969   7.005  18.840  19.863
30902W        W34970   7.155  21.089  18.308
30903W        W34971   4.062  20.292  20.010
30904W        W34972   5.979  18.879  18.240
30905W        W34973   7.113  21.211  19.960
30906W        W34974   7.152  18.405  20.710
30907W        W34975   5.597  19.617  21.264
30908W        W34976   5.690  20.956  18.967
30909W        W34977   6.090  20.250  21.707
30910W        W34978   5.764  18.227  20.016
30911W        W34979   4.376  19.130  20.079
30912W        W34980   3.930  20.330  20.853
30913W        W34981   5.789  21.523  19.559
30914W        W34982   6.983  19.120  20.431
30915W        W34983   5.620  21.467  21.198
30916W        W34984   6.963  20.526  18.403
30917W        W34985   5.398  20.009  19.464
30918W        W34986   7.250  18.520  21.205
30919W        W34987   5.399  20.355  20.799
30920W        W34988   5.616  19.241  20.244
30921W        W34989   6.468  19.539  19.082
30922W        W34990   6.755  19.272  18.724
30923W        W34991   6.564  21.312  19.113
30924W        W34992   6.398  20.915  19.909
30925W        W34993   6.294  19.994  18.887
30926W        W34994   5.727  20.204  19.873
30927W        W34995   6.608  19.992  19.940
30928W        W34996   3.983  19.007  20.364
30929W        W34997   6.761  20.059  21.191
30930W        W34998   7.112  21.677  20.337
30931W        W34999   5.042  21.121  19.739
30932W        W35000   6.049  21.654  21.063
30933W        W35001   6.043  18.984  20.827
30934W        W35002   5.250  21.692  20.888
30935W        W35003   6.947  18.646  19.354
30936W        W35004   6.738  19.965  20.655
30937W        W35005   3.721  19.286  20.693
30938W        W35006   6.581  19.081  19.711
30939W        W35007   6.992  19.232  21.488
30940W        W35008   5.877  20.931  19.706
30941W        W35009   5.133  21.522  19.319
30942W        W35010   4.248  18.702  18.577
30943W        W35011   5.352  18.356  20.387
30944W        W35012   4.380  21.476  18.235
30945W        W35013   4.754  19.942  18.986
30946W        W35014   5.408  20.571  21.299
30947W        W35015   5.238  18.929  19.289
30948W        W35016   6.594  18.526  19.717
30949W        W35017   6.314  21.808  20.045
30950W        W35018   5.726  21.456  20.385
30951W        W35019   5.122  20.493  20.346
30952W        W35020   6.892  21.216  20.472
30953W        W35021   4.586  18.719  19.241
30954W        W35022   5.108  21.016  20.201
30955W        W35023   4.591  18.947  18.266
30956W        W35024   5.392  19.556  20.660
30957W        W35025   6.240  18.422  20.530
30958W        W35026   3.660  20.265  20.415
30959W        W35027   5.364  20.083  18.573
30960W        W35028   4.632  18.398  18.343
30961W        W35029   5.370  19.479  19.394
30962W        W35030   6.340  18.455  21.093
30963W        W35031   4.928  20.467  21.202
30964W        W35032   5.732  20.249  21.419
30965W        W35033   6.349  20.279  21.312
30966W        W35034   5.633  18.419  21.817
30967W        W35035   4.855  19.035  20.210
30968W        W35036   4.281  18.991  19.608
30969W        W35037   4.067  21.703  19.284
30970W        W35038   5.399  21.033  21.409
30971W        W35039   4.434  20.518  18.768
30972W        W35040   6.114  19.903  19.989
30973W        W35041   6.394  19.702  20.388
30974W        W35042   5.599  20.376  20.322
30975W        W35043   6.069  20.750  18.454
30976W        W35044   5.741  18.771  19.782
30977W        W35045   7.220  19.049  19.050
30978W        W35046   3.714  21.638  21.081
30979W        W35047   4.131  20.864  20.613
30980W        W35048   3.698  21.710  18.845
30981W        W35049   5.597  18.980  20.651
30982W        W35050   4.960  21.003  18.500
30983W        W35051   6.865  21.385  18.686
30984W        W35052   5.840  20.038  18.700
30985W        W35053   4.683  19.229  19.217
30986W        W35054   5.515  19.139  18.269
30987W        W35055   6.099  20.704  21.447
30988W        W35056   6.452  18.610  19.064
30989W        W35057   3.782  18.458  18.512
30990W        W35058   5.068  20.777  20.802
30991W        W35059   4.867  20.693  19.894
30992W        W35060   4.609  20.645  18.292
30993W        W35061   3.850  20.886  19.060
30994W        W35062   4.354  19.956  21.502
30995W        W35063   5.058  18.516  21.688
30996W        W35064   5.767  18.658  21.044
30997W        W35065   4.962  18.426  19.325
30998W        W35066   3.966  18.435  20.407
30999W        W35067   4.014  19.398  19.777
31000W        W35068   6.703  18.506  20.183
31001W        W35069   4.125  19.004  18.997
31002W        W35070   6.696  18.692  20.613
31003W        W35071   7.092  19.895  18.298
31004W        W35072   4.384  18.653  20.117
31005W        W35073   5.498  19.225  21.057
31006W        W35074   3.646  18.915  18.535
31007W        W35075   4.432  20.304  21.096
31008W        W35076   5.790  19.702  20.275
31009W        W35077   5.657  21.781  18.571
31010W        W35078   3.803  20.288  18.268
31011W        W35079   4.538  20.699  21.394
31012W        W35080   4.059  19.866  21.025
31013W        W35081   5.050  19.971  20.819
31014W        W35082   6.818  18.330  21.081
31015W        W35083   7.216  19.940  21.072
31016W        W35084   7.204  20.140  18.758
31017W        W35085   6.067  20.472  18.857
31018W        W35086   6.541  21.772  18.552
31019W        W35087   5.718  19.762  21.694
31020W        W35088   4.048  20.729  21.734
31021W        W35089   7.254  18.651  21.686
31022W        W35090   6.972  19.579  20.307
31023W        W35091   5.280  21.709  21.784
31024W        W35092   5.135  18.338  18.511
31025W        W35093   6.674  20.937  18.454
31026W        W35094   4.443  19.030  21.340
31027W        W35095   4.877  21.024  21.202
31028W        W35096   7.003  19.015  21.000
31029W        W35097   6.214  21.674  18.968
31030W        W35098   6.453  20.293  20.335
31031W        W35099   4.703  18.709  21.002
31032W        W35100   5.172  19.778  21.759
31033W        W35101   4.675  20.957  18.953
31034W        W35102   6.430  20.455  19.217
31035W        W35103   4.198  19.081  20.941
31036W        W35104   5.527  21.143  19.405
31037W        W35105   7.277  19.703  19.586
31038W        W35106   5.499  18.336  21.305
31039W        W35107   6.279  21.041  20.384
31040W        W35108   6.582  21.385  20.092
31041W        W35109   5.801  21.187  18.520
31042W        W35110   3.811  21.079  21.362
31043W        W35111   4.554  19.071  20.600
31044W        W35112   4.524  18.419  19.710
31045W        W35113   6.145  19.261  20.402
31046W        W35114   4.943  20.432  18.602
31047W        W35115   6.941  20.374  20.101
31048W        W35116   4.268  21.132  21.524
31049W        W35117   6.655  21.814  19.321
31050W        W35118   4.754  18.834  19.766
31051W        W35119   4.523  20.327  19.856
31052W        W35120   4.836  21.738  20.606
31053W        W35121   6.903  21.834  21.638
31054W        W35122   6.062  20.022  20.571
31055W        W35123   3.911  19.820  18.486
31056W        W35124   7.045  21.478  19.183
31057W        W35125   6.882  18.802  18.802
31058W        W35126   5.021  18.321  21.205
31059W        W35127   6.727  21.123  19.663
31060W        W35128   6.756  19.679  19.568
31061W        W35129   4.873  19.352  19.784
31062W        W35130   5.118  19.614  21.108
31063W        W35131   6.229  20.767  20.971
31064W        W35132   4.879  19.221  21.083
31065W        W35133   4.858  21.687  19.699
31066W        W35134   4.175  21.646  21.333
31067W        W35135   4.287  21.007  18.463
31068W        W35136   6.804  20.765  19.273
31069W        W35137   4.408  19.557  21.159
31070W        W35138   7.181  19.487  18.640
31071W        W35139   4.926  20.544  19.111
31072W        W35140   6.025  19.926  21.192
31073W        W35141   5.916  19.554  20.736
31074W        W35142   4.476  19.926  20.765
31075W        W35143   6.686  21.814  20.594
31076W        W35144   6.477  18.448  21.588
31077W        W35145   4.141  18.598  21.175
31078W        W35146   4.480  19.621  20.228
31079W        W35147   4.849  19.435  18.350
31080W        W35148   3.652  21.194  20.895
31081W        W35149   5.237  19.903  20.338
31082W        W35150   5.060  18.928  18.443
31083W        W35151   4.195  19.744  19.224
31084W        W35152   3.966  21.596  20.661
31085W        W35153   6.761  19.822  18.769
31086W        W35154   6.856  18.738  21.455
31087W        W35155   6.292  20.947  19.418
31088W        W35156   3.890  19.871  21.595
31089W        W35157   6.856  18.335  18.891
31090W        W35158   6.376  20.810  18.902
31091W        W35159   5.278  19.868  18.987
31092W        W35160   6.465  18.672  18.510
31093W        W35161   6.530  19.279  20.696
31094W        W35162   4.239  19.872  19.903
31095W        W35163   4.533  20.811  19.552
31096W        W35164   6.296  19.431  19.517
31097W        W35165   5.319  18.810  20.213
31098W        W35166   7.281  20.721  20.724
31099W        W35167   7.199  18.708  20.285
31100W        W35168   3.738  21.538  19.661
31101W        W35169   4.247  20.725  19.197
31102W        W35170   4.162  18.342  21.750
31103W        W35171   5.281  21.195  21.852
31104W        W35172   7.036  20.163  19.642
31105W        W35173   6.390  20.340  18.522
31106W        W35174   5.685  21.861  20.734
31107W        W35175   6.542  20.583  21.771
31108W        W35176   5.357  18.293  19.051
31109W        W35177   6.070  19.162  19.910
31110W        W35178   3.756  20.749  20.242
31111W        W35179   5.009  18.711  18.883
31112W        W35180   4.813  20.195  21.732
31113W        W35181   5.807  19.176  19.446
31114W        W35182   6.012  20.586  20.568
31115W        W35183   4.166  21.191  21.003
31116W        W35184   4.757  21.174  21.726
31117W        W35185   4.608  18.971  18.740
31118W        W35186   6.125  19.113  19.065
31119W        W35187   6.083  21.221  21.302
31120W        W35188   4.768  19.813  19.901
31121W        W35189   4.423  21.511  20.766
31122W        W35190   7.168  21.628  18.367
31123W        W35191   4.031  20.300  21.363
31124W        W35192   6.026  20.562  20.051
31125W        W35193   4.462  20.211  19.293
31126W        W35194   4.833  21.218  20.688
31127W        W35195   5.211  18.637  19.729
31128W        W35196   3.822  20.621  18.659
31129W        W35197   5.341  19.572  18.529
31130W        W35198   3.987  20.121  19.548
31131W        W35199   5.277  18.763  21.012
31132W        W35200   6.949  18.472  18.439
31133W        W35201   7.042  20.218  21.538
31134W        W35202   5.696  21.475  21.690
31135W        W35203   7.254  20.569  21.212
31136W        W35204   6.662  21.367  21.823
31137W        W35205   4.401  21.823  20.301
31138W        W35206   7.260  20.445  19.175
31139W        W35207   5.790  19.712  19.688
31140W        W35208   5.557  18.324  19.578
31141W        W35209   4.616  21.308  19.415
31142W        W35210   5.115  19.049  20.640
31143W        W35211   4.815  18.418  20.109
31144W        W35212   3.878  21.240  18.657
31145W        W35213   5.694  20.604  19.375
31146W        W35214   4.569  21.399  21.254
31147W        W35215   4.046  20.222  18.950
31148W        W35216   3.931  18.765  19.949
31149W        W35217   5.479  20.730  20.006
31150W        W35218   3.731  18.584  19.026
31151W        W35219   6.395  19.790  20.953
31152W        W35220   6.272  19.176  18.525
31153W        W35221   6.789  20.848  20.173
31154W        W35222   5.450  21.332  20.004
31155W        W35223   4.862  21.436  18.915
31156W        W35224   3.944  21.599  20.086
31157W        W35225   6.141  19.357  21.721
31158W        W35226   4.124  18.887  21.720
31159W        W35227   3.855  19.487  19.053
31160W        W35228   4.546  19.476  18.778
31161W        W35229   6.309  19.803  21.595
31162W        W35230   4.652  20.084  20.304
31163W        W35231   6.126  18.370  19.424
31164W        W35232   5.257  21.801  19.927
31165W        W35233   6.471  21.263  20.864
31166W        W35234   6.055  21.412  19.975
31167W        W35235   6.074  20.392  19.569
31168W        W35236   5.536  18.617  18.640
31169W        W35237   7.217  18.245  19.362
31170W        W35238   4.905  19.880  18.525
31171W        W35239   7.071  19.217  19.515
31172W        W35240   5.763  20.387  18.392
31173W        W35241   6.699  20.587  21.140
31174W        W35242   6.353  21.288  18.607
31175W        W35243   4.968  18.963  21.513
31176W        W35244   4.788  19.547  20.754
31177W        W35245   6.880  21.042  21.031
31178W        W35246   5.980  18.992  21.408
31179W        W35247   3.824  19.463  21.185
31180W        W35248   5.584  19.940  20.911
31181W        W35249   3.941  20.698  19.568
31182W        W35250   4.088  19.995  20.458
31183W        W35251   6.405  20.281  20.808
31184W        W35252   6.177  21.661  21.619
31185W        W35253   6.073  19.400  21.172
31186W        W35254   6.350  21.454  19.577
31187W        W35255   5.352  21.174  20.900
31188W        W35256   4.837  21.529  20.169
31189W        W35257   6.642  20.700  20.588
31190W        W35258   5.692  20.772  21.725
31191W        W35259   4.297  20.725  20.064
31192W        W35260   6.643  20.484  19.709
31193W        W35261   6.284  21.550  20.460
31194W        W35262   4.262  21.279  20.330
31195W        W35263   5.283  19.331  21.540
31196W        W35264   5.734  21.497  19.051
31197W        W35265   5.042  20.752  21.689
31198W        W35266   5.168  20.990  19.066
31199W        W35267   4.389  19.730  18.325
31200W        W35268   6.809  20.439  22.518
31201W        W35269   4.857  21.515  22.071
31202W        W35270   4.940  19.667  23.054
31203W        W35271   4.455  19.515  23.218
31204W        W35272   5.446  20.330  22.652
31205W        W35273   5.875  19.522  22.229
31206W        W35274   5.432  20.757  22.198
31207W        W35275   4.128  18.596  23.033
31208W        W35276   6.816  18.990  21.984
31209W        W35277   7.022  20.964  22.481
31210W        W35278   4.151  21.750  22.235
31211W        W35279   4.544  21.796  22.911
31212W        W35280   6.369  19.990  23.071
31213W        W35281   6.335  19.678  22.098
31214W        W35282   6.820  20.030  22.853
31215W        W35283   5.722  18.688  22.869
31216W        W35284   4.379  21.382  22.552
31217W        W35285   5.335  21.455  22.410
31218W        W35286   6.727  19.481  21.874
31219W        W35287   4.914  20.171  23.137
31220W        W35288   4.384  20.210  21.995
31221W        W35289   4.039  19.243  22.174
31222W        W35290   4.101  21.199  22.968
31223W        W35291   5.232  20.682  23.216
31224W        W35292   5.490  19.183  22.614
31225W        W35293   3.656  19.933  22.808
31226W        W35294   5.971  19.612  22.759
31227W        W35295   5.848  20.102  22.863
31228W        W35296   5.837  18.996  22.320
31229W        W35297   6.236  18.876  23.101
31230W        W35298   5.027  19.303  22.477
31231W        W35299   6.648  19.071  22.822
31232W        W35300   7.015  19.553  22.767
31233W        W35301   4.684  18.306  22.473
31234W        W35302   7.155  21.089  21.953
31235W        W35303   5.979  18.879  21.885
31236W        W35304   5.690  20.956  22.612
31237W        W35305   5.789  21.523  23.204
31238W        W35306   6.963  20.526  22.048
31239W        W35307   5.398  20.009  23.109
31240W        W35308   6.468  19.539  22.727
31241W        W35309   6.755  19.272  22.369
31242W        W35310   6.564  21.312  22.758
31243W        W35311   6.294  19.994  22.532
31244W        W35312   6.947  18.646  22.999
31245W        W35313   5.133  21.522  22.964
31246W        W35314   4.248  18.702  22.222
31247W        W35315   4.380  21.476  21.880
31248W        W35316   4.754  19.942  22.631
31249W        W35317   5.238  18.929  22.934
31250W        W35318   4.586  18.719  22.886
31251W        W35319   4.591  18.947  21.911
31252W        W35320   5.364  20.083  22.218
31253W        W35321   4.632  18.398  21.988
31254W        W35322   5.370  19.479  23.039
31255W        W35323   4.281  18.991  23.253
31256W        W35324   4.067  21.703  22.929
31257W        W35325   4.434  20.518  22.413
31258W        W35326   6.069  20.750  22.099
31259W        W35327   7.220  19.049  22.695
31260W        W35328   3.698  21.710  22.490
31261W        W35329   4.960  21.003  22.145
31262W        W35330   6.865  21.385  22.331
31263W        W35331   5.840  20.038  22.345
31264W        W35332   4.683  19.229  22.862
31265W        W35333   5.515  19.139  21.914
31266W        W35334   6.452  18.610  22.709
31267W        W35335   3.782  18.458  22.157
31268W        W35336   4.609  20.645  21.937
31269W        W35337   3.850  20.886  22.705
31270W        W35338   4.962  18.426  22.970
31271W        W35339   6.021  18.503  22.475
31272W        W35340   4.125  19.004  22.642
31273W        W35341   7.092  19.895  21.943
31274W        W35342   3.646  18.915  22.180
31275W        W35343   5.657  21.781  22.216
31276W        W35344   3.803  20.288  21.913
31277W        W35345   7.204  20.140  22.403
31278W        W35346   6.067  20.472  22.502
31279W        W35347   6.541  21.772  22.197
31280W        W35348   5.135  18.338  22.156
31281W        W35349   6.674  20.937  22.099
31282W        W35350   6.214  21.674  22.613
31283W        W35351   4.675  20.957  22.598
31284W        W35352   6.430  20.455  22.862
31285W        W35353   5.527  21.143  23.050
31286W        W35354   7.277  19.703  23.231
31287W        W35355   5.801  21.187  22.165
31288W        W35356   4.943  20.432  22.247
31289W        W35357   6.655  21.814  22.966
31290W        W35358   3.911  19.820  22.131
31291W        W35359   7.045  21.478  22.828
31292W        W35360   6.882  18.802  22.447
31293W        W35361   6.756  19.679  23.213
31294W        W35362   4.287  21.007  22.108
31295W        W35363   6.804  20.765  22.918
31296W        W35364   7.181  19.487  22.285
31297W        W35365   4.926  20.544  22.756
31298W        W35366   4.849  19.435  21.995
31299W        W35367   5.060  18.928  22.088
31300W        W35368   4.195  19.744  22.869
31301W        W35369   6.761  19.822  22.414
31302W        W35370   6.292  20.947  23.063
31303W        W35371   6.856  18.335  22.536
31304W        W35372   6.376  20.810  22.547
31305W        W35373   5.278  19.868  22.632
31306W        W35374   6.465  18.672  22.155
31307W        W35375   4.533  20.811  23.197
31308W        W35376   6.296  19.431  23.162
31309W        W35377   3.738  21.538  23.306
31310W        W35378   4.247  20.725  22.842
31311W        W35379   7.036  20.163  23.287
31312W        W35380   6.390  20.340  22.167
31313W        W35381   5.357  18.293  22.696
31314W        W35382   5.009  18.711  22.528
31315W        W35383   5.807  19.176  23.091
31316W        W35384   4.608  18.971  22.385
31317W        W35385   6.125  19.113  22.710
31318W        W35386   7.168  21.628  22.012
31319W        W35387   3.822  20.621  22.304
31320W        W35388   5.341  19.572  22.174
31321W        W35389   3.987  20.121  23.193
31322W        W35390   6.949  18.472  22.084
31323W        W35391   7.260  20.445  22.820
31324W        W35392   5.557  18.324  23.223
31325W        W35393   4.616  21.308  23.060
31326W        W35394   3.878  21.240  22.302
31327W        W35395   5.694  20.604  23.020
31328W        W35396   4.046  20.222  22.595
31329W        W35397   3.731  18.584  22.671
31330W        W35398   6.272  19.176  22.170
31331W        W35399   4.862  21.436  22.560
31332W        W35400   6.144  18.339  21.990
31333W        W35401   3.855  19.487  22.698
31334W        W35402   4.546  19.476  22.423
31335W        W35403   6.074  20.392  23.214
31336W        W35404   5.536  18.617  22.285
31337W        W35405   7.217  18.245  23.007
31338W        W35406   4.905  19.880  22.170
31339W        W35407   7.071  19.217  23.160
31340W        W35408   5.763  20.387  22.037
31341W        W35409   6.353  21.288  22.252
31342W        W35410   3.941  20.698  23.213
31343W        W35411   6.350  21.454  23.222
31344W        W35412   5.734  21.497  22.696
31345W        W35413   5.168  20.990  22.711
31346W        W35414   4.389  19.730  21.970
31347W        W35415   3.770  22.628   3.104
31348W        W35416   4.532  21.908   2.906
31349W        W35417   6.226  22.296   1.793
31350W        W35418   5.875  23.167   0.363
31351W        W35419   6.445  22.601   3.454
31352W        W35420   3.811  22.393   2.579
31353W        W35421   4.757  23.076   3.262
31354W        W35422   7.216  22.935   1.761
31355W        W35423   4.957  23.140   2.069
31356W        W35424   3.715  23.124   3.570
31357W        W35425   4.128  22.241   1.167
31358W        W35426   6.531  22.682   2.023
31359W        W35427   6.816  22.635   0.118
31360W        W35428   4.341  22.195   2.471
31361W        W35429   6.964  23.213   2.746
31362W        W35430   5.349  22.797   1.571
31363W        W35431   5.722  22.333   1.003
31364W        W35432   3.750  22.526   1.285
31365W        W35433   6.536  23.133   1.759
31366W        W35434   6.727  23.126   0.008
31367W        W35435   4.936  22.221   2.364
31368W        W35436   7.165  21.983   1.661
31369W        W35437   4.039  22.888   0.308
31370W        W35438   5.490  22.828   0.748
31371W        W35439   6.550  23.079   3.118
31372W        W35440   5.971  23.257   0.893
31373W        W35441   4.191  23.167   2.471
31374W        W35442   4.066  21.960   1.552
31375W        W35443   5.834  22.307   2.113
31376W        W35444   5.482  22.492   3.276
31377W        W35445   5.837  22.641   0.454
31378W        W35446   5.987  22.115   3.247
31379W        W35447   6.436  22.583   2.965
31380W        W35448   6.236  22.521   1.235
31381W        W35449   5.027  22.948   0.611
31382W        W35450   4.596  22.232   3.275
31383W        W35451   6.648  22.716   0.956
31384W        W35452   7.015  23.198   0.901
31385W        W35453   4.684  21.951   0.607
31386W        W35454   7.005  22.485   1.642
31387W        W35455   5.979  22.524   0.019
31388W        W35456   7.152  22.050   2.489
31389W        W35457   5.764  21.872   1.795
31390W        W35458   4.376  22.775   1.858
31391W        W35459   6.983  22.765   2.210
31392W        W35460   7.250  22.165   2.984
31393W        W35461   5.616  22.886   2.023
31394W        W35462   6.755  22.917   0.503
31395W        W35463   3.983  22.652   2.143
31396W        W35464   6.043  22.629   2.606
31397W        W35465   6.947  22.291   1.133
31398W        W35466   3.721  22.931   2.472
31399W        W35467   6.581  22.726   1.490
31400W        W35468   6.992  22.877   3.267
31401W        W35469   4.248  22.347   0.356
31402W        W35470   5.352  22.001   2.166
31403W        W35471   5.238  22.574   1.068
31404W        W35472   6.594  22.171   1.496
31405W        W35473   4.586  22.364   1.020
31406W        W35474   4.591  22.592   0.045
31407W        W35475   5.392  23.201   2.439
31408W        W35476   6.240  22.067   2.309
31409W        W35477   4.632  22.043   0.122
31410W        W35478   5.370  23.124   1.173
31411W        W35479   6.340  22.100   2.872
31412W        W35480   5.633  22.064   3.596
31413W        W35481   4.855  22.680   1.989
31414W        W35482   4.281  22.636   1.387
31415W        W35483   5.741  22.416   1.561
31416W        W35484   7.220  22.694   0.829
31417W        W35485   5.597  22.625   2.430
31418W        W35486   4.683  22.874   0.996
31419W        W35487   5.515  22.784   0.048
31420W        W35488   6.452  22.255   0.843
31421W        W35489   3.782  22.103   0.291
31422W        W35490   5.058  22.161   3.467
31423W        W35491   5.767  22.303   2.823
31424W        W35492   4.962  22.071   1.104
31425W        W35493   6.021  22.148   0.609
31426W        W35494   3.966  22.080   2.186
31427W        W35495   6.703  22.151   1.962
31428W        W35496   4.125  22.649   0.776
31429W        W35497   6.696  22.337   2.392
31430W        W35498   4.384  22.298   1.896
31431W        W35499   5.498  22.870   2.836
31432W        W35500   3.646  22.560   0.314
31433W        W35501   6.818  21.975   2.860
31434W        W35502   7.254  22.296   3.465
31435W        W35503   6.972  23.224   2.086
31436W        W35504   5.135  21.983   0.290
31437W        W35505   4.443  22.675   3.119
31438W        W35506   7.003  22.660   2.779
31439W        W35507   4.703  22.354   2.781
31440W        W35508   4.198  22.726   2.720
31441W        W35509   5.499  21.981   3.084
31442W        W35510   4.554  22.716   2.379
31443W        W35511   4.524  22.064   1.489
31444W        W35512   6.145  22.906   2.181
31445W        W35513   4.754  22.479   1.545
31446W        W35514   6.882  22.447   0.581
31447W        W35515   5.021  21.966   2.984
31448W        W35516   4.873  22.997   1.563
31449W        W35517   4.879  22.866   2.862
31450W        W35518   7.181  23.132   0.419
31451W        W35519   5.916  23.199   2.515
31452W        W35520   6.477  22.093   3.367
31453W        W35521   4.141  22.243   2.954
31454W        W35522   4.480  23.266   2.007
31455W        W35523   4.849  23.080   0.129
31456W        W35524   5.060  22.573   0.222
31457W        W35525   6.856  22.383   3.234
31458W        W35526   6.856  21.980   0.670
31459W        W35527   6.465  22.317   0.289
31460W        W35528   6.530  22.924   2.475
31461W        W35529   5.319  22.455   1.992
31462W        W35530   7.199  22.353   2.064
31463W        W35531   4.162  21.987   3.529
31464W        W35532   5.357  21.938   0.830
31465W        W35533   6.070  22.807   1.689
31466W        W35534   5.009  22.356   0.662
31467W        W35535   5.807  22.821   1.225
31468W        W35536   4.608  22.616   0.519
31469W        W35537   6.125  22.758   0.844
31470W        W35538   5.211  22.282   1.508
31471W        W35539   5.341  23.217   0.308
31472W        W35540   5.277  22.408   2.791
31473W        W35541   6.949  22.117   0.218
31474W        W35542   5.557  21.969   1.357
31475W        W35543   5.115  22.694   2.419
31476W        W35544   4.815  22.063   1.888
31477W        W35545   3.931  22.410   1.728
31478W        W35546   3.731  22.229   0.805
31479W        W35547   6.272  22.821   0.304
31480W        W35548   6.144  21.984   0.124
31481W        W35549   6.141  23.002   3.500
31482W        W35550   4.124  22.532   3.499
31483W        W35551   3.855  23.132   0.832
31484W        W35552   6.126  22.015   1.203
31485W        W35553   5.536  22.262   0.419
31486W        W35554   7.217  21.890   1.141
31487W        W35555   7.071  22.862   1.294
31488W        W35556   4.968  22.608   3.292
31489W        W35557   4.788  23.192   2.533
31490W        W35558   5.980  22.637   3.187
31491W        W35559   3.824  23.108   2.964
31492W        W35560   6.073  23.045   2.951
31493W        W35561   5.283  22.976   3.319
31494W        W35562   3.770  22.628   6.748
31495W        W35563   4.532  21.908   6.550
31496W        W35564   6.226  22.296   5.437
31497W        W35565   5.875  23.167   4.007
31498W        W35566   6.445  22.601   7.098
31499W        W35567   3.811  22.393   6.223
31500W        W35568   4.757  23.076   6.906
31501W        W35569   7.216  22.935   5.405
31502W        W35570   4.957  23.140   5.713
31503W        W35571   3.715  23.124   7.214
31504W        W35572   4.128  22.241   4.811
31505W        W35573   6.531  22.682   5.667
31506W        W35574   6.816  22.635   3.762
31507W        W35575   4.341  22.195   6.115
31508W        W35576   6.964  23.213   6.390
31509W        W35577   5.349  22.797   5.215
31510W        W35578   5.722  22.333   4.647
31511W        W35579   3.750  22.526   4.929
31512W        W35580   6.536  23.133   5.403
31513W        W35581   6.727  23.126   3.652
31514W        W35582   4.936  22.221   6.008
31515W        W35583   7.165  21.983   5.305
31516W        W35584   4.039  22.888   3.952
31517W        W35585   5.490  22.828   4.392
31518W        W35586   6.550  23.079   6.762
31519W        W35587   5.971  23.257   4.537
31520W        W35588   4.191  23.167   6.115
31521W        W35589   4.066  21.960   5.196
31522W        W35590   5.834  22.307   5.757
31523W        W35591   5.482  22.492   6.920
31524W        W35592   5.837  22.641   4.098
31525W        W35593   5.987  22.115   6.891
31526W        W35594   6.436  22.583   6.609
31527W        W35595   6.236  22.521   4.879
31528W        W35596   5.027  22.948   4.255
31529W        W35597   4.596  22.232   6.919
31530W        W35598   6.648  22.716   4.600
31531W        W35599   7.015  23.198   4.545
31532W        W35600   4.684  21.951   4.251
31533W        W35601   7.005  22.485   5.286
31534W        W35602   5.979  22.524   3.663
31535W        W35603   7.152  22.050   6.133
31536W        W35604   5.764  21.872   5.439
31537W        W35605   4.376  22.775   5.502
31538W        W35606   6.983  22.765   5.854
31539W        W35607   7.250  22.165   6.628
31540W        W35608   5.616  22.886   5.667
31541W        W35609   6.755  22.917   4.147
31542W        W35610   3.983  22.652   5.787
31543W        W35611   6.043  22.629   6.250
31544W        W35612   6.947  22.291   4.777
31545W        W35613   3.721  22.931   6.116
31546W        W35614   6.581  22.726   5.134
31547W        W35615   6.992  22.877   6.911
31548W        W35616   4.248  22.347   4.000
31549W        W35617   5.352  22.001   5.810
31550W        W35618   5.238  22.574   4.712
31551W        W35619   6.594  22.171   5.140
31552W        W35620   4.586  22.364   4.664
31553W        W35621   4.591  22.592   3.689
31554W        W35622   5.392  23.201   6.083
31555W        W35623   6.240  22.067   5.953
31556W        W35624   4.632  22.043   3.766
31557W        W35625   5.370  23.124   4.817
31558W        W35626   6.340  22.100   6.516
31559W        W35627   5.633  22.064   7.240
31560W        W35628   4.855  22.680   5.633
31561W        W35629   4.281  22.636   5.031
31562W        W35630   5.741  22.416   5.205
31563W        W35631   7.220  22.694   4.473
31564W        W35632   5.597  22.625   6.074
31565W        W35633   4.683  22.874   4.640
31566W        W35634   5.515  22.784   3.692
31567W        W35635   6.452  22.255   4.487
31568W        W35636   3.782  22.103   3.935
31569W        W35637   5.058  22.161   7.111
31570W        W35638   5.767  22.303   6.467
31571W        W35639   4.962  22.071   4.748
31572W        W35640   6.021  22.148   4.253
31573W        W35641   3.966  22.080   5.830
31574W        W35642   6.703  22.151   5.606
31575W        W35643   4.125  22.649   4.420
31576W        W35644   6.696  22.337   6.036
31577W        W35645   4.384  22.298   5.540
31578W        W35646   5.498  22.870   6.480
31579W        W35647   3.646  22.560   3.958
31580W        W35648   6.818  21.975   6.504
31581W        W35649   7.254  22.296   7.109
31582W        W35650   6.972  23.224   5.730
31583W        W35651   5.135  21.983   3.934
31584W        W35652   4.443  22.675   6.763
31585W        W35653   7.003  22.660   6.423
31586W        W35654   4.703  22.354   6.425
31587W        W35655   4.198  22.726   6.364
31588W        W35656   5.499  21.981   6.728
31589W        W35657   4.554  22.716   6.023
31590W        W35658   4.524  22.064   5.133
31591W        W35659   6.145  22.906   5.825
31592W        W35660   4.754  22.479   5.189
31593W        W35661   6.882  22.447   4.225
31594W        W35662   5.021  21.966   6.628
31595W        W35663   4.873  22.997   5.207
31596W        W35664   4.879  22.866   6.506
31597W        W35665   7.181  23.132   4.063
31598W        W35666   5.916  23.199   6.159
31599W        W35667   6.477  22.093   7.011
31600W        W35668   4.141  22.243   6.598
31601W        W35669   4.480  23.266   5.651
31602W        W35670   4.849  23.080   3.773
31603W        W35671   5.060  22.573   3.866
31604W        W35672   6.856  22.383   6.878
31605W        W35673   6.856  21.980   4.314
31606W        W35674   6.465  22.317   3.933
31607W        W35675   6.530  22.924   6.119
31608W        W35676   5.319  22.455   5.636
31609W        W35677   7.199  22.353   5.708
31610W        W35678   4.162  21.987   7.173
31611W        W35679   5.357  21.938   4.474
31612W        W35680   6.070  22.807   5.333
31613W        W35681   5.009  22.356   4.306
31614W        W35682   5.807  22.821   4.869
31615W        W35683   4.608  22.616   4.163
31616W        W35684   6.125  22.758   4.488
31617W        W35685   5.211  22.282   5.152
31618W        W35686   5.341  23.217   3.952
31619W        W35687   5.277  22.408   6.435
31620W        W35688   6.949  22.117   3.862
31621W        W35689   5.557  21.969   5.001
31622W        W35690   5.115  22.694   6.063
31623W        W35691   4.815  22.063   5.532
31624W        W35692   3.931  22.410   5.372
31625W        W35693   3.731  22.229   4.449
31626W        W35694   6.272  22.821   3.948
31627W        W35695   6.144  21.984   3.768
31628W        W35696   6.141  23.002   7.144
31629W        W35697   4.124  22.532   7.143
31630W        W35698   3.855  23.132   4.476
31631W        W35699   6.126  22.015   4.847
31632W        W35700   5.536  22.262   4.063
31633W        W35701   7.217  21.890   4.785
31634W        W35702   7.071  22.862   4.938
31635W        W35703   4.968  22.608   6.936
31636W        W35704   4.788  23.192   6.177
31637W        W35705   5.980  22.637   6.831
31638W        W35706   3.824  23.108   6.608
31639W        W35707   6.073  23.045   6.595
31640W        W35708   5.283  22.976   6.963
31641W        W35709   3.770  22.628  10.393
31642W        W35710   4.532  21.908  10.195
31643W        W35711   6.226  22.296   9.082
31644W        W35712   5.875  23.167   7.652
31645W        W35713   6.445  22.601  10.743
31646W        W35714   3.811  22.393   9.868
31647W        W35715   4.757  23.076  10.551
31648W        W35716   7.216  22.935   9.050
31649W        W35717   4.957  23.140   9.358
31650W        W35718   3.715  23.124  10.859
31651W        W35719   4.128  22.241   8.456
31652W        W35720   6.531  22.682   9.312
31653W        W35721   6.816  22.635   7.407
31654W        W35722   4.341  22.195   9.760
31655W        W35723   6.964  23.213  10.035
31656W        W35724   5.349  22.797   8.860
31657W        W35725   5.722  22.333   8.292
31658W        W35726   3.750  22.526   8.574
31659W        W35727   6.536  23.133   9.048
31660W        W35728   6.727  23.126   7.297
31661W        W35729   4.936  22.221   9.653
31662W        W35730   7.165  21.983   8.950
31663W        W35731   4.039  22.888   7.597
31664W        W35732   5.490  22.828   8.037
31665W        W35733   6.550  23.079  10.407
31666W        W35734   5.971  23.257   8.182
31667W        W35735   4.191  23.167   9.760
31668W        W35736   4.066  21.960   8.841
31669W        W35737   5.834  22.307   9.402
31670W        W35738   5.482  22.492  10.565
31671W        W35739   5.837  22.641   7.743
31672W        W35740   5.987  22.115  10.536
31673W        W35741   6.436  22.583  10.254
31674W        W35742   6.236  22.521   8.524
31675W        W35743   5.027  22.948   7.900
31676W        W35744   4.596  22.232  10.564
31677W        W35745   6.648  22.716   8.245
31678W        W35746   7.015  23.198   8.190
31679W        W35747   4.684  21.951   7.896
31680W        W35748   7.005  22.485   8.931
31681W        W35749   5.979  22.524   7.308
31682W        W35750   7.152  22.050   9.778
31683W        W35751   5.764  21.872   9.084
31684W        W35752   4.376  22.775   9.147
31685W        W35753   6.983  22.765   9.499
31686W        W35754   7.250  22.165  10.273
31687W        W35755   5.616  22.886   9.312
31688W        W35756   6.755  22.917   7.792
31689W        W35757   3.983  22.652   9.432
31690W        W35758   6.043  22.629   9.895
31691W        W35759   6.947  22.291   8.422
31692W        W35760   3.721  22.931   9.761
31693W        W35761   6.581  22.726   8.779
31694W        W35762   6.992  22.877  10.556
31695W        W35763   4.248  22.347   7.645
31696W        W35764   5.352  22.001   9.455
31697W        W35765   5.238  22.574   8.357
31698W        W35766   6.594  22.171   8.785
31699W        W35767   4.586  22.364   8.309
31700W        W35768   4.591  22.592   7.334
31701W        W35769   5.392  23.201   9.728
31702W        W35770   6.240  22.067   9.598
31703W        W35771   4.632  22.043   7.411
31704W        W35772   5.370  23.124   8.462
31705W        W35773   6.340  22.100  10.161
31706W        W35774   5.633  22.064  10.885
31707W        W35775   4.855  22.680   9.278
31708W        W35776   4.281  22.636   8.676
31709W        W35777   5.741  22.416   8.850
31710W        W35778   7.220  22.694   8.118
31711W        W35779   5.597  22.625   9.719
31712W        W35780   4.683  22.874   8.285
31713W        W35781   5.515  22.784   7.337
31714W        W35782   6.452  22.255   8.132
31715W        W35783   3.782  22.103   7.580
31716W        W35784   5.058  22.161  10.756
31717W        W35785   5.767  22.303  10.112
31718W        W35786   4.962  22.071   8.393
31719W        W35787   6.021  22.148   7.898
31720W        W35788   3.966  22.080   9.475
31721W        W35789   6.703  22.151   9.251
31722W        W35790   4.125  22.649   8.065
31723W        W35791   6.696  22.337   9.681
31724W        W35792   4.384  22.298   9.185
31725W        W35793   5.498  22.870  10.125
31726W        W35794   3.646  22.560   7.603
31727W        W35795   6.818  21.975  10.149
31728W        W35796   7.254  22.296  10.754
31729W        W35797   6.972  23.224   9.375
31730W        W35798   5.135  21.983   7.579
31731W        W35799   4.443  22.675  10.408
31732W        W35800   7.003  22.660  10.068
31733W        W35801   4.703  22.354  10.070
31734W        W35802   4.198  22.726  10.009
31735W        W35803   5.499  21.981  10.373
31736W        W35804   4.554  22.716   9.668
31737W        W35805   4.524  22.064   8.778
31738W        W35806   6.145  22.906   9.470
31739W        W35807   4.754  22.479   8.834
31740W        W35808   6.882  22.447   7.870
31741W        W35809   5.021  21.966  10.273
31742W        W35810   4.873  22.997   8.852
31743W        W35811   4.879  22.866  10.151
31744W        W35812   7.181  23.132   7.708
31745W        W35813   5.916  23.199   9.804
31746W        W35814   6.477  22.093  10.656
31747W        W35815   4.141  22.243  10.243
31748W        W35816   4.480  23.266   9.296
31749W        W35817   4.849  23.080   7.418
31750W        W35818   5.060  22.573   7.511
31751W        W35819   6.856  22.383  10.523
31752W        W35820   6.856  21.980   7.959
31753W        W35821   6.465  22.317   7.578
31754W        W35822   6.530  22.924   9.764
31755W        W35823   5.319  22.455   9.281
31756W        W35824   7.199  22.353   9.353
31757W        W35825   4.162  21.987  10.818
31758W        W35826   5.357  21.938   8.119
31759W        W35827   6.070  22.807   8.978
31760W        W35828   5.009  22.356   7.951
31761W        W35829   5.807  22.821   8.514
31762W        W35830   4.608  22.616   7.808
31763W        W35831   6.125  22.758   8.133
31764W        W35832   5.211  22.282   8.797
31765W        W35833   5.341  23.217   7.597
31766W        W35834   5.277  22.408  10.080
31767W        W35835   6.949  22.117   7.507
31768W        W35836   5.557  21.969   8.646
31769W        W35837   5.115  22.694   9.708
31770W        W35838   4.815  22.063   9.177
31771W        W35839   3.931  22.410   9.017
31772W        W35840   3.731  22.229   8.094
31773W        W35841   6.272  22.821   7.593
31774W        W35842   6.144  21.984   7.413
31775W        W35843   6.141  23.002  10.789
31776W        W35844   4.124  22.532  10.788
31777W        W35845   3.855  23.132   8.121
31778W        W35846   6.126  22.015   8.492
31779W        W35847   5.536  22.262   7.708
31780W        W35848   7.217  21.890   8.430
31781W        W35849   7.071  22.862   8.583
31782W        W35850   4.968  22.608  10.581
31783W        W35851   4.788  23.192   9.822
31784W        W35852   5.980  22.637  10.476
31785W        W35853   3.824  23.108  10.253
31786W        W35854   6.073  23.045  10.240
31787W        W35855   5.283  22.976  10.608
31788W        W35856   3.770  22.628  14.037
31789W        W35857   4.532  21.908  13.839
31790W        W35858   6.226  22.296  12.726
31791W        W35859   5.875  23.167  11.296
31792W        W35860   6.445  22.601  14.387
31793W        W35861   3.811  22.393  13.512
31794W        W35862   4.757  23.076  14.195
31795W        W35863   7.216  22.935  12.694
31796W        W35864   4.957  23.140  13.002
31797W        W35865   3.715  23.124  14.503
31798W        W35866   4.128  22.241  12.100
31799W        W35867   6.531  22.682  12.956
31800W        W35868   6.816  22.635  11.051
31801W        W35869   4.341  22.195  13.404
31802W        W35870   6.964  23.213  13.679
31803W        W35871   5.349  22.797  12.504
31804W        W35872   5.722  22.333  11.936
31805W        W35873   3.750  22.526  12.218
31806W        W35874   6.536  23.133  12.692
31807W        W35875   6.727  23.126  10.941
31808W        W35876   4.936  22.221  13.297
31809W        W35877   7.165  21.983  12.594
31810W        W35878   4.039  22.888  11.241
31811W        W35879   5.490  22.828  11.681
31812W        W35880   6.550  23.079  14.051
31813W        W35881   5.971  23.257  11.826
31814W        W35882   4.191  23.167  13.404
31815W        W35883   4.066  21.960  12.485
31816W        W35884   5.834  22.307  13.046
31817W        W35885   5.482  22.492  14.209
31818W        W35886   5.837  22.641  11.387
31819W        W35887   5.987  22.115  14.180
31820W        W35888   6.436  22.583  13.898
31821W        W35889   6.236  22.521  12.168
31822W        W35890   5.027  22.948  11.544
31823W        W35891   4.596  22.232  14.208
31824W        W35892   6.648  22.716  11.889
31825W        W35893   7.015  23.198  11.834
31826W        W35894   4.684  21.951  11.540
31827W        W35895   7.005  22.485  12.575
31828W        W35896   5.979  22.524  10.952
31829W        W35897   7.152  22.050  13.422
31830W        W35898   5.764  21.872  12.728
31831W        W35899   4.376  22.775  12.791
31832W        W35900   6.983  22.765  13.143
31833W        W35901   7.250  22.165  13.917
31834W        W35902   5.616  22.886  12.956
31835W        W35903   6.755  22.917  11.436
31836W        W35904   3.983  22.652  13.076
31837W        W35905   6.043  22.629  13.539
31838W        W35906   6.947  22.291  12.066
31839W        W35907   3.721  22.931  13.405
31840W        W35908   6.581  22.726  12.423
31841W        W35909   6.992  22.877  14.200
31842W        W35910   4.248  22.347  11.289
31843W        W35911   5.352  22.001  13.099
31844W        W35912   5.238  22.574  12.001
31845W        W35913   6.594  22.171  12.429
31846W        W35914   4.586  22.364  11.953
31847W        W35915   4.591  22.592  10.978
31848W        W35916   5.392  23.201  13.372
31849W        W35917   6.240  22.067  13.242
31850W        W35918   4.632  22.043  11.055
31851W        W35919   5.370  23.124  12.106
31852W        W35920   6.340  22.100  13.805
31853W        W35921   5.633  22.064  14.529
31854W        W35922   4.855  22.680  12.922
31855W        W35923   4.281  22.636  12.320
31856W        W35924   5.741  22.416  12.494
31857W        W35925   7.220  22.694  11.762
31858W        W35926   5.597  22.625  13.363
31859W        W35927   4.683  22.874  11.929
31860W        W35928   5.515  22.784  10.981
31861W        W35929   6.452  22.255  11.776
31862W        W35930   3.782  22.103  11.224
31863W        W35931   5.058  22.161  14.400
31864W        W35932   5.767  22.303  13.756
31865W        W35933   4.962  22.071  12.037
31866W        W35934   6.021  22.148  11.542
31867W        W35935   3.966  22.080  13.119
31868W        W35936   6.703  22.151  12.895
31869W        W35937   4.125  22.649  11.709
31870W        W35938   6.696  22.337  13.325
31871W        W35939   4.384  22.298  12.829
31872W        W35940   5.498  22.870  13.769
31873W        W35941   3.646  22.560  11.247
31874W        W35942   6.818  21.975  13.793
31875W        W35943   7.254  22.296  14.398
31876W        W35944   6.972  23.224  13.019
31877W        W35945   5.135  21.983  11.223
31878W        W35946   4.443  22.675  14.052
31879W        W35947   7.003  22.660  13.712
31880W        W35948   4.703  22.354  13.714
31881W        W35949   4.198  22.726  13.653
31882W        W35950   5.499  21.981  14.017
31883W        W35951   4.554  22.716  13.312
31884W        W35952   4.524  22.064  12.422
31885W        W35953   6.145  22.906  13.114
31886W        W35954   4.754  22.479  12.478
31887W        W35955   6.882  22.447  11.514
31888W        W35956   5.021  21.966  13.917
31889W        W35957   4.873  22.997  12.496
31890W        W35958   4.879  22.866  13.795
31891W        W35959   7.181  23.132  11.352
31892W        W35960   5.916  23.199  13.448
31893W        W35961   6.477  22.093  14.300
31894W        W35962   4.141  22.243  13.887
31895W        W35963   4.480  23.266  12.940
31896W        W35964   4.849  23.080  11.062
31897W        W35965   5.060  22.573  11.155
31898W        W35966   6.856  22.383  14.167
31899W        W35967   6.856  21.980  11.603
31900W        W35968   6.465  22.317  11.222
31901W        W35969   6.530  22.924  13.408
31902W        W35970   5.319  22.455  12.925
31903W        W35971   7.199  22.353  12.997
31904W        W35972   4.162  21.987  14.462
31905W        W35973   5.357  21.938  11.763
31906W        W35974   6.070  22.807  12.622
31907W        W35975   5.009  22.356  11.595
31908W        W35976   5.807  22.821  12.158
31909W        W35977   4.608  22.616  11.452
31910W        W35978   6.125  22.758  11.777
31911W        W35979   5.211  22.282  12.441
31912W        W35980   5.341  23.217  11.241
31913W        W35981   5.277  22.408  13.724
31914W        W35982   6.949  22.117  11.151
31915W        W35983   5.557  21.969  12.290
31916W        W35984   5.115  22.694  13.352
31917W        W35985   4.815  22.063  12.821
31918W        W35986   3.931  22.410  12.661
31919W        W35987   3.731  22.229  11.738
31920W        W35988   6.272  22.821  11.237
31921W        W35989   6.144  21.984  11.057
31922W        W35990   6.141  23.002  14.433
31923W        W35991   4.124  22.532  14.432
31924W        W35992   3.855  23.132  11.765
31925W        W35993   6.126  22.015  12.136
31926W        W35994   5.536  22.262  11.352
31927W        W35995   7.217  21.890  12.074
31928W        W35996   7.071  22.862  12.227
31929W        W35997   4.968  22.608  14.225
31930W        W35998   4.788  23.192  13.466
31931W        W35999   5.980  22.637  14.120
31932W        W36000   3.824  23.108  13.897
31933W        W36001   6.073  23.045  13.884
31934W        W36002   5.283  22.976  14.252
31935W        W36003   3.770  22.628  17.681
31936W        W36004   4.532  21.908  17.483
31937W        W36005   6.226  22.296  16.370
31938W        W36006   5.875  23.167  14.940
31939W        W36007   6.445  22.601  18.031
31940W        W36008   3.811  22.393  17.156
31941W        W36009   4.757  23.076  17.839
31942W        W36010   7.216  22.935  16.338
31943W        W36011   4.957  23.140  16.646
31944W        W36012   3.715  23.124  18.147
31945W        W36013   4.128  22.241  15.744
31946W        W36014   6.531  22.682  16.600
31947W        W36015   6.816  22.635  14.695
31948W        W36016   4.341  22.195  17.048
31949W        W36017   6.964  23.213  17.323
31950W        W36018   5.349  22.797  16.148
31951W        W36019   5.722  22.333  15.580
31952W        W36020   3.750  22.526  15.862
31953W        W36021   6.536  23.133  16.336
31954W        W36022   6.727  23.126  14.585
31955W        W36023   4.936  22.221  16.941
31956W        W36024   7.165  21.983  16.238
31957W        W36025   4.039  22.888  14.885
31958W        W36026   5.490  22.828  15.325
31959W        W36027   6.550  23.079  17.695
31960W        W36028   5.971  23.257  15.470
31961W        W36029   4.191  23.167  17.048
31962W        W36030   4.066  21.960  16.129
31963W        W36031   5.834  22.307  16.690
31964W        W36032   5.482  22.492  17.853
31965W        W36033   5.837  22.641  15.031
31966W        W36034   5.987  22.115  17.824
31967W        W36035   6.436  22.583  17.542
31968W        W36036   6.236  22.521  15.812
31969W        W36037   5.027  22.948  15.188
31970W        W36038   4.596  22.232  17.852
31971W        W36039   6.648  22.716  15.533
31972W        W36040   7.015  23.198  15.478
31973W        W36041   4.684  21.951  15.184
31974W        W36042   7.005  22.485  16.219
31975W        W36043   5.979  22.524  14.596
31976W        W36044   7.152  22.050  17.066
31977W        W36045   5.764  21.872  16.372
31978W        W36046   4.376  22.775  16.435
31979W        W36047   6.983  22.765  16.787
31980W        W36048   7.250  22.165  17.561
31981W        W36049   5.616  22.886  16.600
31982W        W36050   6.755  22.917  15.080
31983W        W36051   3.983  22.652  16.720
31984W        W36052   6.043  22.629  17.183
31985W        W36053   6.947  22.291  15.710
31986W        W36054   3.721  22.931  17.049
31987W        W36055   6.581  22.726  16.067
31988W        W36056   6.992  22.877  17.844
31989W        W36057   4.248  22.347  14.933
31990W        W36058   5.352  22.001  16.743
31991W        W36059   5.238  22.574  15.645
31992W        W36060   6.594  22.171  16.073
31993W        W36061   4.586  22.364  15.597
31994W        W36062   4.591  22.592  14.622
31995W        W36063   5.392  23.201  17.016
31996W        W36064   6.240  22.067  16.886
31997W        W36065   4.632  22.043  14.699
31998W        W36066   5.370  23.124  15.750
31999W        W36067   6.340  22.100  17.449
32000W        W36068   5.633  22.064  18.173
32001W        W36069   4.855  22.680  16.566
32002W        W36070   4.281  22.636  15.964
32003W        W36071   5.741  22.416  16.138
32004W        W36072   7.220  22.694  15.406
32005W        W36073   5.597  22.625  17.007
32006W        W36074   4.683  22.874  15.573
32007W        W36075   5.515  22.784  14.625
32008W        W36076   6.452  22.255  15.420
32009W        W36077   3.782  22.103  14.868
32010W        W36078   5.058  22.161  18.044
32011W        W36079   5.767  22.303  17.400
32012W        W36080   4.962  22.071  15.681
32013W        W36081   6.021  22.148  15.186
32014W        W36082   3.966  22.080  16.763
32015W        W36083   6.703  22.151  16.539
32016W        W36084   4.125  22.649  15.353
32017W        W36085   6.696  22.337  16.969
32018W        W36086   4.384  22.298  16.473
32019W        W36087   5.498  22.870  17.413
32020W        W36088   3.646  22.560  14.891
32021W        W36089   6.818  21.975  17.437
32022W        W36090   7.254  22.296  18.042
32023W        W36091   6.972  23.224  16.663
32024W        W36092   5.135  21.983  14.867
32025W        W36093   4.443  22.675  17.696
32026W        W36094   7.003  22.660  17.356
32027W        W36095   4.703  22.354  17.358
32028W        W36096   4.198  22.726  17.297
32029W        W36097   5.499  21.981  17.661
32030W        W36098   4.554  22.716  16.956
32031W        W36099   4.524  22.064  16.066
32032W        W36100   6.145  22.906  16.758
32033W        W36101   4.754  22.479  16.122
32034W        W36102   6.882  22.447  15.158
32035W        W36103   5.021  21.966  17.561
32036W        W36104   4.873  22.997  16.140
32037W        W36105   4.879  22.866  17.439
32038W        W36106   7.181  23.132  14.996
32039W        W36107   5.916  23.199  17.092
32040W        W36108   6.477  22.093  17.944
32041W        W36109   4.141  22.243  17.531
32042W        W36110   4.480  23.266  16.584
32043W        W36111   4.849  23.080  14.706
32044W        W36112   5.060  22.573  14.799
32045W        W36113   6.856  22.383  17.811
32046W        W36114   6.856  21.980  15.247
32047W        W36115   6.465  22.317  14.866
32048W        W36116   6.530  22.924  17.052
32049W        W36117   5.319  22.455  16.569
32050W        W36118   7.199  22.353  16.641
32051W        W36119   4.162  21.987  18.106
32052W        W36120   5.357  21.938  15.407
32053W        W36121   6.070  22.807  16.266
32054W        W36122   5.009  22.356  15.239
32055W        W36123   5.807  22.821  15.802
32056W        W36124   4.608  22.616  15.096
32057W        W36125   6.125  22.758  15.421
32058W        W36126   5.211  22.282  16.085
32059W        W36127   5.341  23.217  14.885
32060W        W36128   5.277  22.408  17.368
32061W        W36129   6.949  22.117  14.795
32062W        W36130   5.557  21.969  15.934
32063W        W36131   5.115  22.694  16.996
32064W        W36132   4.815  22.063  16.465
32065W        W36133   3.931  22.410  16.305
32066W        W36134   3.731  22.229  15.382
32067W        W36135   6.272  22.821  14.881
32068W        W36136   6.144  21.984  14.701
32069W        W36137   6.141  23.002  18.077
32070W        W36138   4.124  22.532  18.076
32071W        W36139   3.855  23.132  15.409
32072W        W36140   6.126  22.015  15.780
32073W        W36141   5.536  22.262  14.996
32074W        W36142   7.217  21.890  15.718
32075W        W36143   7.071  22.862  15.871
32076W        W36144   4.968  22.608  17.869
32077W        W36145   4.788  23.192  17.110
32078W        W36146   5.980  22.637  17.764
32079W        W36147   3.824  23.108  17.541
32080W        W36148   6.073  23.045  17.528
32081W        W36149   5.283  22.976  17.896
32082W        W36150   3.770  22.628  21.325
32083W        W36151   4.532  21.908  21.127
32084W        W36152   6.226  22.296  20.014
32085W        W36153   5.875  23.167  18.584
32086W        W36154   6.445  22.601  21.675
32087W        W36155   3.811  22.393  20.800
32088W        W36156   4.757  23.076  21.483
32089W        W36157   7.216  22.935  19.982
32090W        W36158   4.957  23.140  20.290
32091W        W36159   3.715  23.124  21.791
32092W        W36160   4.128  22.241  19.388
32093W        W36161   6.531  22.682  20.244
32094W        W36162   6.816  22.635  18.339
32095W        W36163   4.341  22.195  20.692
32096W        W36164   6.964  23.213  20.967
32097W        W36165   5.349  22.797  19.792
32098W        W36166   5.722  22.333  19.224
32099W        W36167   3.750  22.526  19.506
32100W        W36168   6.536  23.133  19.980
32101W        W36169   6.727  23.126  18.229
32102W        W36170   4.936  22.221  20.585
32103W        W36171   7.165  21.983  19.882
32104W        W36172   4.039  22.888  18.529
32105W        W36173   5.490  22.828  18.969
32106W        W36174   6.550  23.079  21.339
32107W        W36175   5.971  23.257  19.114
32108W        W36176   4.191  23.167  20.692
32109W        W36177   4.066  21.960  19.773
32110W        W36178   5.834  22.307  20.334
32111W        W36179   5.482  22.492  21.497
32112W        W36180   5.837  22.641  18.675
32113W        W36181   5.987  22.115  21.468
32114W        W36182   6.436  22.583  21.186
32115W        W36183   6.236  22.521  19.456
32116W        W36184   5.027  22.948  18.832
32117W        W36185   4.596  22.232  21.496
32118W        W36186   6.648  22.716  19.177
32119W        W36187   7.015  23.198  19.122
32120W        W36188   4.684  21.951  18.828
32121W        W36189   7.005  22.485  19.863
32122W        W36190   5.979  22.524  18.240
32123W        W36191   7.152  22.050  20.710
32124W        W36192   5.764  21.872  20.016
32125W        W36193   4.376  22.775  20.079
32126W        W36194   6.983  22.765  20.431
32127W        W36195   7.250  22.165  21.205
32128W        W36196   5.616  22.886  20.244
32129W        W36197   6.755  22.917  18.724
32130W        W36198   3.983  22.652  20.364
32131W        W36199   6.043  22.629  20.827
32132W        W36200   6.947  22.291  19.354
32133W        W36201   3.721  22.931  20.693
32134W        W36202   6.581  22.726  19.711
32135W        W36203   6.992  22.877  21.488
32136W        W36204   4.248  22.347  18.577
32137W        W36205   5.352  22.001  20.387
32138W        W36206   5.238  22.574  19.289
32139W        W36207   6.594  22.171  19.717
32140W        W36208   4.586  22.364  19.241
32141W        W36209   4.591  22.592  18.266
32142W        W36210   5.392  23.201  20.660
32143W        W36211   6.240  22.067  20.530
32144W        W36212   4.632  22.043  18.343
32145W        W36213   5.370  23.124  19.394
32146W        W36214   6.340  22.100  21.093
32147W        W36215   5.633  22.064  21.817
32148W        W36216   4.855  22.680  20.210
32149W        W36217   4.281  22.636  19.608
32150W        W36218   5.741  22.416  19.782
32151W        W36219   7.220  22.694  19.050
32152W        W36220   5.597  22.625  20.651
32153W        W36221   4.683  22.874  19.217
32154W        W36222   5.515  22.784  18.269
32155W        W36223   6.452  22.255  19.064
32156W        W36224   3.782  22.103  18.512
32157W        W36225   5.058  22.161  21.688
32158W        W36226   5.767  22.303  21.044
32159W        W36227   4.962  22.071  19.325
32160W        W36228   6.021  22.148  18.830
32161W        W36229   3.966  22.080  20.407
32162W        W36230   6.703  22.151  20.183
32163W        W36231   4.125  22.649  18.997
32164W        W36232   6.696  22.337  20.613
32165W        W36233   4.384  22.298  20.117
32166W        W36234   5.498  22.870  21.057
32167W        W36235   3.646  22.560  18.535
32168W        W36236   6.818  21.975  21.081
32169W        W36237   7.254  22.296  21.686
32170W        W36238   6.972  23.224  20.307
32171W        W36239   5.135  21.983  18.511
32172W        W36240   4.443  22.675  21.340
32173W        W36241   7.003  22.660  21.000
32174W        W36242   4.703  22.354  21.002
32175W        W36243   4.198  22.726  20.941
32176W        W36244   5.499  21.981  21.305
32177W        W36245   4.554  22.716  20.600
32178W        W36246   4.524  22.064  19.710
32179W        W36247   6.145  22.906  20.402
32180W        W36248   4.754  22.479  19.766
32181W        W36249   6.882  22.447  18.802
32182W        W36250   5.021  21.966  21.205
32183W        W36251   4.873  22.997  19.784
32184W        W36252   4.879  22.866  21.083
32185W        W36253   7.181  23.132  18.640
32186W        W36254   5.916  23.199  20.736
32187W        W36255   6.477  22.093  21.588
32188W        W36256   4.141  22.243  21.175
32189W        W36257   4.480  23.266  20.228
32190W        W36258   4.849  23.080  18.350
32191W        W36259   5.060  22.573  18.443
32192W        W36260   6.856  22.383  21.455
32193W        W36261   6.856  21.980  18.891
32194W        W36262   6.465  22.317  18.510
32195W        W36263   6.530  22.924  20.696
32196W        W36264   5.319  22.455  20.213
32197W        W36265   7.199  22.353  20.285
32198W        W36266   4.162  21.987  21.750
32199W        W36267   5.357  21.938  19.051
32200W        W36268   6.070  22.807  19.910
32201W        W36269   5.009  22.356  18.883
32202W        W36270   5.807  22.821  19.446
32203W        W36271   4.608  22.616  18.740
32204W        W36272   6.125  22.758  19.065
32205W        W36273   5.211  22.282  19.729
32206W        W36274   5.341  23.217  18.529
32207W        W36275   5.277  22.408  21.012
32208W        W36276   6.949  22.117  18.439
32209W        W36277   5.557  21.969  19.578
32210W        W36278   5.115  22.694  20.640
32211W        W36279   4.815  22.063  20.109
32212W        W36280   3.931  22.410  19.949
32213W        W36281   3.731  22.229  19.026
32214W        W36282   6.272  22.821  18.525
32215W        W36283   6.144  21.984  18.345
32216W        W36284   6.141  23.002  21.721
32217W        W36285   4.124  22.532  21.720
32218W        W36286   3.855  23.132  19.053
32219W        W36287   6.126  22.015  19.424
32220W        W36288   5.536  22.262  18.640
32221W        W36289   7.217  21.890  19.362
32222W        W36290   7.071  22.862  19.515
32223W        W36291   4.968  22.608  21.513
32224W        W36292   4.788  23.192  20.754
32225W        W36293   5.980  22.637  21.408
32226W        W36294   3.824  23.108  21.185
32227W        W36295   6.073  23.045  21.172
32228W        W36296   5.283  22.976  21.540
32229W        W36297   5.875  23.167  22.229
32230W        W36298   4.128  22.241  23.033
32231W        W36299   6.816  22.635  21.984
32232W        W36300   5.722  22.333  22.869
32233W        W36301   6.727  23.126  21.874
32234W        W36302   4.039  22.888  22.174
32235W        W36303   5.490  22.828  22.614
32236W        W36304   5.971  23.257  22.759
32237W        W36305   5.837  22.641  22.320
32238W        W36306   6.236  22.521  23.101
32239W        W36307   5.027  22.948  22.477
32240W        W36308   6.648  22.716  22.822
32241W        W36309   7.015  23.198  22.767
32242W        W36310   4.684  21.951  22.473
32243W        W36311   5.979  22.524  21.885
32244W        W36312   6.755  22.917  22.369
32245W        W36313   6.947  22.291  22.999
32246W        W36314   4.248  22.347  22.222
32247W        W36315   5.238  22.574  22.934
32248W        W36316   4.586  22.364  22.886
32249W        W36317   4.591  22.592  21.911
32250W        W36318   4.632  22.043  21.988
32251W        W36319   5.370  23.124  23.039
32252W        W36320   4.281  22.636  23.253
32253W        W36321   7.220  22.694  22.695
32254W        W36322   4.683  22.874  22.862
32255W        W36323   5.515  22.784  21.914
32256W        W36324   6.452  22.255  22.709
32257W        W36325   3.782  22.103  22.157
32258W        W36326   4.962  22.071  22.970
32259W        W36327   6.021  22.148  22.475
32260W        W36328   4.125  22.649  22.642
32261W        W36329   3.646  22.560  22.180
32262W        W36330   5.135  21.983  22.156
32263W        W36331   6.882  22.447  22.447
32264W        W36332   7.181  23.132  22.285
32265W        W36333   4.849  23.080  21.995
32266W        W36334   5.060  22.573  22.088
32267W        W36335   6.856  21.980  22.536
32268W        W36336   6.465  22.317  22.155
32269W        W36337   5.357  21.938  22.696
32270W        W36338   5.009  22.356  22.528
32271W        W36339   5.807  22.821  23.091
32272W        W36340   4.608  22.616  22.385
32273W        W36341   6.125  22.758  22.710
32274W        W36342   5.341  23.217  22.174
32275W        W36343   6.949  22.117  22.084
32276W        W36344   5.557  21.969  23.223
32277W        W36345   3.731  22.229  22.671
32278W        W36346   6.272  22.821  22.170
32279W        W36347   6.144  21.984  21.990
32280W        W36348   3.855  23.132  22.698
32281W        W36349   5.536  22.262  22.285
32282W        W36350   7.217  21.890  23.007
32283W        W36351   7.071  22.862  23.160
32284W        W36352   7.373   3.595   3.359
32285W        W36353   7.749   2.488   2.882
32286W        W36354  10.454   2.218   0.652
32287W        W36355  10.584   3.303   2.679
32288W        W36356   8.502   3.294   0.205
32289W        W36357   8.585   1.446   1.188
32290W        W36358   8.100   1.294   1.352
32291W        W36359   9.091   2.109   0.786
32292W        W36360   8.766   3.201   3.141
32293W        W36361   7.415   0.762   3.104
32294W        W36362   8.177   0.042   2.906
32295W        W36363   9.871   0.430   1.793
32296W        W36364   9.520   1.301   0.363
32297W        W36365  10.090   0.735   3.454
32298W        W36366   7.456   0.527   2.579
32299W        W36367   7.555   3.146   3.600
32300W        W36368   9.077   2.536   0.332
32301W        W36369   7.509   1.319   2.025
32302W        W36370   8.402   1.210   3.262
32303W        W36371  10.861   1.069   1.761
32304W        W36372  10.625   2.112   2.620
32305W        W36373   8.933   1.445   1.647
32306W        W36374   9.479   2.784   2.016
32307W        W36375   7.979   2.218   2.248
32308W        W36376   7.338   1.746   1.819
32309W        W36377   8.374   1.718   3.011
32310W        W36378  10.645   1.501   3.265
32311W        W36379   8.261   2.945   1.710
32312W        W36380   9.382   2.634   2.844
32313W        W36381   8.602   1.274   2.069
32314W        W36382   8.894   2.058   1.712
32315W        W36383   9.891   2.831   3.560
32316W        W36384   8.970   2.151   3.570
32317W        W36385   8.951   1.867   3.048
32318W        W36386   7.360   1.258   3.570
32319W        W36387  10.192   2.793   3.169
32320W        W36388   7.773   0.375   1.167
32321W        W36389   8.300   2.633   2.166
32322W        W36390  10.763   2.416   1.456
32323W        W36391  10.176   0.816   2.023
32324W        W36392  10.461   0.769   0.118
32325W        W36393  10.926   1.570   2.424
32326W        W36394   8.893   3.277   2.177
32327W        W36395  10.667   2.743   0.615
32328W        W36396   7.796   3.529   0.369
32329W        W36397   8.189   3.575   1.045
32330W        W36398   7.986   0.329   2.471
32331W        W36399  10.609   1.347   2.746
32332W        W36400  10.014   1.769   1.205
32333W        W36401   9.980   1.457   0.232
32334W        W36402   9.188   2.601   2.372
32335W        W36403   8.994   0.931   1.571
32336W        W36404   9.594   3.018   2.565
32337W        W36405  10.465   1.809   0.987
32338W        W36406   9.367   0.467   1.003
32339W        W36407   8.024   3.161   0.686
32340W        W36408   7.395   0.660   1.285
32341W        W36409  10.181   1.267   1.759
32342W        W36410   7.639   2.884   1.674
32343W        W36411   8.980   3.234   0.544
32344W        W36412  10.372   1.260   0.008
32345W        W36413   7.395   3.018   2.172
32346W        W36414   8.186   2.590   2.652
32347W        W36415   8.559   1.950   1.271
32348W        W36416   8.581   0.355   2.364
32349W        W36417  10.810   0.117   1.661
32350W        W36418   8.029   1.989   0.129
32351W        W36419   7.684   1.022   0.308
32352W        W36420   7.746   2.978   1.102
32353W        W36421   8.877   2.461   1.350
32354W        W36422  10.209   3.320   3.064
32355W        W36423   9.135   0.962   0.748
32356W        W36424  10.518   3.360   1.520
32357W        W36425  10.195   1.213   3.118
32358W        W36426  10.908   2.869   1.252
32359W        W36427   9.535   2.161   2.736
32360W        W36428   7.301   1.712   0.942
32361W        W36429   8.412   2.127   2.515
32362W        W36430   9.616   1.391   0.893
32363W        W36431   9.493   1.881   0.997
32364W        W36432   7.836   1.301   2.471
32365W        W36433   7.821   1.177   3.393
32366W        W36434   7.711   0.094   1.552
32367W        W36435   9.479   0.441   2.113
32368W        W36436   9.127   0.626   3.276
32369W        W36437   9.482   0.775   0.454
32370W        W36438   9.632   0.249   3.247
32371W        W36439  10.651   2.550   3.369
32372W        W36440  10.081   0.717   2.965
32373W        W36441   9.881   0.655   1.235
32374W        W36442  10.274   1.789   3.639
32375W        W36443   8.014   3.365   1.625
32376W        W36444   8.672   1.082   0.611
32377W        W36445   8.241   0.366   3.275
32378W        W36446  10.293   0.850   0.956
32379W        W36447  10.660   1.332   0.901
32380W        W36448   8.403   3.549   3.372
32381W        W36449   8.329   0.085   0.607
32382W        W36450  10.650   0.619   1.642
32383W        W36451  10.800   2.868   0.087
32384W        W36452   7.707   2.071   1.789
32385W        W36453   9.624   0.658   0.019
32386W        W36454  10.758   2.990   1.739
32387W        W36455  10.797   0.184   2.489
32388W        W36456   9.242   1.396   3.043
32389W        W36457   9.335   2.735   0.746
32390W        W36458   9.735   2.029   3.486
32391W        W36459   9.409   0.006   1.795
32392W        W36460   8.021   0.909   1.858
32393W        W36461   7.575   2.109   2.632
32394W        W36462   9.434   3.302   1.338
32395W        W36463  10.628   0.899   2.210
32396W        W36464   9.265   3.246   2.977
32397W        W36465  10.608   2.305   0.182
32398W        W36466   9.043   1.788   1.243
32399W        W36467  10.895   0.299   2.984
32400W        W36468   9.044   2.134   2.578
32401W        W36469   9.261   1.020   2.023
32402W        W36470  10.113   1.318   0.861
32403W        W36471  10.400   1.051   0.503
32404W        W36472  10.209   3.091   0.892
32405W        W36473  10.043   2.694   1.688
32406W        W36474   9.939   1.773   0.666
32407W        W36475   9.372   1.983   1.652
32408W        W36476  10.253   1.771   1.719
32409W        W36477   7.628   0.786   2.143
32410W        W36478  10.406   1.838   2.970
32411W        W36479  10.757   3.456   2.116
32412W        W36480   8.687   2.900   1.518
32413W        W36481   9.694   3.433   2.842
32414W        W36482   9.688   0.763   2.606
32415W        W36483   8.895   3.471   2.667
32416W        W36484  10.592   0.425   1.133
32417W        W36485  10.383   1.744   2.434
32418W        W36486   7.366   1.065   2.472
32419W        W36487  10.226   0.860   1.490
32420W        W36488  10.637   1.011   3.267
32421W        W36489   9.522   2.710   1.485
32422W        W36490   8.778   3.301   1.098
32423W        W36491   7.893   0.481   0.356
32424W        W36492   8.997   0.135   2.166
32425W        W36493   8.025   3.255   0.014
32426W        W36494   8.399   1.721   0.765
32427W        W36495   9.053   2.350   3.078
32428W        W36496   8.883   0.708   1.068
32429W        W36497  10.239   0.305   1.496
32430W        W36498   9.959   3.587   1.824
32431W        W36499   9.371   3.235   2.164
32432W        W36500   8.767   2.272   2.125
32433W        W36501  10.537   2.995   2.251
32434W        W36502   8.231   0.498   1.020
32435W        W36503   8.753   2.795   1.980
32436W        W36504   8.236   0.726   0.045
32437W        W36505   9.037   1.335   2.439
32438W        W36506   9.885   0.201   2.309
32439W        W36507   7.305   2.044   2.194
32440W        W36508   9.009   1.862   0.352
32441W        W36509   8.277   0.177   0.122
32442W        W36510   9.015   1.258   1.173
32443W        W36511   9.985   0.234   2.872
32444W        W36512   8.573   2.246   2.981
32445W        W36513   9.377   2.028   3.198
32446W        W36514   9.994   2.058   3.091
32447W        W36515   9.278   0.198   3.596
32448W        W36516   8.500   0.814   1.989
32449W        W36517   7.926   0.770   1.387
32450W        W36518   7.712   3.482   1.063
32451W        W36519   9.044   2.812   3.188
32452W        W36520   8.079   2.297   0.547
32453W        W36521   9.759   1.682   1.768
32454W        W36522  10.039   1.481   2.167
32455W        W36523   9.244   2.155   2.101
32456W        W36524   9.714   2.529   0.233
32457W        W36525   9.386   0.550   1.561
32458W        W36526  10.865   0.828   0.829
32459W        W36527   7.359   3.417   2.860
32460W        W36528   7.776   2.643   2.392
32461W        W36529   7.343   3.489   0.624
32462W        W36530   9.242   0.759   2.430
32463W        W36531   8.605   2.782   0.279
32464W        W36532  10.510   3.164   0.465
32465W        W36533   9.485   1.817   0.479
32466W        W36534   8.328   1.008   0.996
32467W        W36535   9.160   0.918   0.048
32468W        W36536   9.744   2.483   3.226
32469W        W36537  10.097   0.389   0.843
32470W        W36538   7.427   0.237   0.291
32471W        W36539   8.713   2.556   2.581
32472W        W36540   8.512   2.472   1.673
32473W        W36541   8.254   2.424   0.071
32474W        W36542   7.495   2.665   0.839
32475W        W36543   7.999   1.735   3.281
32476W        W36544   8.703   0.295   3.467
32477W        W36545   9.412   0.437   2.823
32478W        W36546   8.607   0.205   1.104
32479W        W36547   9.666   0.282   0.609
32480W        W36548   7.611   0.214   2.186
32481W        W36549   7.659   1.177   1.556
32482W        W36550  10.348   0.285   1.962
32483W        W36551   7.770   0.783   0.776
32484W        W36552  10.341   0.471   2.392
32485W        W36553  10.737   1.674   0.077
32486W        W36554   8.029   0.432   1.896
32487W        W36555   9.143   1.004   2.836
32488W        W36556   7.291   0.694   0.314
32489W        W36557   8.077   2.083   2.875
32490W        W36558   9.435   1.481   2.054
32491W        W36559   9.302   3.560   0.350
32492W        W36560   7.448   2.067   0.047
32493W        W36561   8.183   2.478   3.173
32494W        W36562   7.704   1.645   2.804
32495W        W36563   8.695   1.750   2.598
32496W        W36564  10.463   0.109   2.860
32497W        W36565  10.861   1.719   2.851
32498W        W36566  10.849   1.919   0.537
32499W        W36567   9.712   2.251   0.636
32500W        W36568  10.186   3.551   0.331
32501W        W36569   9.363   1.541   3.473
32502W        W36570   7.693   2.508   3.513
32503W        W36571  10.899   0.430   3.465
32504W        W36572  10.617   1.358   2.086
32505W        W36573   8.925   3.488   3.563
32506W        W36574   8.780   0.117   0.290
32507W        W36575  10.319   2.716   0.233
32508W        W36576   8.088   0.809   3.119
32509W        W36577   8.522   2.803   2.981
32510W        W36578  10.648   0.794   2.779
32511W        W36579   9.859   3.453   0.747
32512W        W36580  10.098   2.072   2.114
32513W        W36581   8.348   0.488   2.781
32514W        W36582   8.817   1.557   3.538
32515W        W36583   8.320   2.736   0.732
32516W        W36584  10.075   2.234   0.996
32517W        W36585   7.843   0.860   2.720
32518W        W36586   9.172   2.922   1.184
32519W        W36587  10.922   1.482   1.365
32520W        W36588   9.144   0.115   3.084
32521W        W36589   9.924   2.820   2.163
32522W        W36590  10.227   3.164   1.871
32523W        W36591   9.446   2.966   0.299
32524W        W36592   7.456   2.858   3.141
32525W        W36593   8.199   0.850   2.379
32526W        W36594   8.169   0.198   1.489
32527W        W36595   9.790   1.040   2.181
32528W        W36596   8.588   2.211   0.381
32529W        W36597  10.586   2.153   1.880
32530W        W36598   7.913   2.911   3.303
32531W        W36599  10.300   3.593   1.100
32532W        W36600   8.399   0.613   1.545
32533W        W36601   8.168   2.106   1.635
32534W        W36602   8.481   3.517   2.385
32535W        W36603  10.548   3.613   3.417
32536W        W36604   9.707   1.801   2.350
32537W        W36605   7.556   1.599   0.265
32538W        W36606  10.690   3.257   0.962
32539W        W36607  10.527   0.581   0.581
32540W        W36608   8.666   0.100   2.984
32541W        W36609  10.372   2.902   1.442
32542W        W36610  10.401   1.458   1.347
32543W        W36611   8.518   1.131   1.563
32544W        W36612   8.763   1.393   2.887
32545W        W36613   9.874   2.546   2.750
32546W        W36614   8.524   1.000   2.862
32547W        W36615   8.503   3.466   1.478
32548W        W36616   7.820   3.425   3.112
32549W        W36617   7.932   2.786   0.242
32550W        W36618  10.449   2.544   1.052
32551W        W36619   8.053   1.336   2.938
32552W        W36620  10.826   1.266   0.419
32553W        W36621   8.571   2.323   0.890
32554W        W36622   9.670   1.705   2.971
32555W        W36623   9.561   1.333   2.515
32556W        W36624   8.121   1.705   2.544
32557W        W36625  10.331   3.593   2.373
32558W        W36626  10.122   0.227   3.367
32559W        W36627   7.786   0.377   2.954
32560W        W36628   8.125   1.400   2.007
32561W        W36629   8.494   1.214   0.129
32562W        W36630   7.297   2.973   2.674
32563W        W36631   8.882   1.682   2.117
32564W        W36632   8.705   0.707   0.222
32565W        W36633   7.840   1.523   1.003
32566W        W36634   7.611   3.375   2.440
32567W        W36635  10.406   1.601   0.548
32568W        W36636  10.501   0.517   3.234
32569W        W36637   9.937   2.726   1.197
32570W        W36638   7.535   1.650   3.374
32571W        W36639  10.501   0.114   0.670
32572W        W36640  10.021   2.589   0.681
32573W        W36641   8.923   1.647   0.766
32574W        W36642  10.110   0.451   0.289
32575W        W36643  10.175   1.058   2.475
32576W        W36644   7.884   1.651   1.682
32577W        W36645   8.178   2.590   1.331
32578W        W36646   9.941   1.210   1.296
32579W        W36647   8.964   0.589   1.992
32580W        W36648  10.844   0.487   2.064
32581W        W36649   7.383   3.317   1.440
32582W        W36650   7.892   2.504   0.976
32583W        W36651   7.807   0.121   3.529
32584W        W36652   8.926   2.974   3.631
32585W        W36653  10.681   1.942   1.421
32586W        W36654  10.035   2.119   0.301
32587W        W36655   9.330   3.640   2.513
32588W        W36656  10.187   2.362   3.550
32589W        W36657   9.002   0.072   0.830
32590W        W36658   9.715   0.941   1.689
32591W        W36659   7.401   2.528   2.021
32592W        W36660   8.654   0.490   0.662
32593W        W36661   8.458   1.974   3.511
32594W        W36662   9.452   0.955   1.225
32595W        W36663   9.657   2.365   2.347
32596W        W36664   7.811   2.970   2.782
32597W        W36665   8.402   2.953   3.505
32598W        W36666   8.253   0.750   0.519
32599W        W36667   9.770   0.892   0.844
32600W        W36668   9.728   3.000   3.081
32601W        W36669   8.413   1.592   1.680
32602W        W36670   8.068   3.290   2.545
32603W        W36671  10.813   3.407   0.146
32604W        W36672   7.676   2.079   3.142
32605W        W36673   9.671   2.341   1.830
32606W        W36674   8.107   1.990   1.072
32607W        W36675   8.478   2.997   2.467
32608W        W36676   8.856   0.416   1.508
32609W        W36677   7.467   2.400   0.438
32610W        W36678   8.986   1.351   0.308
32611W        W36679   7.632   1.900   1.327
32612W        W36680   8.922   0.542   2.791
32613W        W36681  10.594   0.251   0.218
32614W        W36682  10.687   1.997   3.317
32615W        W36683   9.341   3.254   3.469
32616W        W36684  10.899   2.348   2.991
32617W        W36685  10.307   3.146   3.602
32618W        W36686   8.046   3.602   2.080
32619W        W36687  10.905   2.224   0.954
32620W        W36688   9.435   1.491   1.467
32621W        W36689   9.202   0.103   1.357
32622W        W36690   8.261   3.087   1.194
32623W        W36691   8.760   0.828   2.419
32624W        W36692   8.460   0.197   1.888
32625W        W36693   7.523   3.019   0.436
32626W        W36694   9.339   2.383   1.154
32627W        W36695   8.214   3.178   3.033
32628W        W36696   7.691   2.001   0.729
32629W        W36697   7.576   0.544   1.728
32630W        W36698   9.124   2.509   1.785
32631W        W36699   7.376   0.363   0.805
32632W        W36700  10.040   1.569   2.732
32633W        W36701   9.917   0.955   0.304
32634W        W36702  10.434   2.627   1.952
32635W        W36703   9.095   3.111   1.783
32636W        W36704   8.507   3.215   0.694
32637W        W36705   9.789   0.118   0.124
32638W        W36706   7.589   3.378   1.865
32639W        W36707   9.786   1.136   3.500
32640W        W36708   7.769   0.666   3.499
32641W        W36709   7.500   1.266   0.832
32642W        W36710   8.191   1.255   0.557
32643W        W36711   9.954   1.582   3.374
32644W        W36712   8.297   1.863   2.083
32645W        W36713   9.771   0.149   1.203
32646W        W36714   8.902   3.580   1.706
32647W        W36715  10.116   3.042   2.643
32648W        W36716   9.700   3.191   1.754
32649W        W36717   9.719   2.171   1.348
32650W        W36718   9.181   0.396   0.419
32651W        W36719  10.862   0.024   1.141
32652W        W36720   8.550   1.659   0.304
32653W        W36721  10.716   0.996   1.294
32654W        W36722   9.408   2.166   0.171
32655W        W36723  10.344   2.366   2.919
32656W        W36724   9.998   3.067   0.386
32657W        W36725   8.613   0.742   3.292
32658W        W36726   8.433   1.326   2.533
32659W        W36727  10.525   2.821   2.810
32660W        W36728   9.625   0.771   3.187
32661W        W36729   7.469   1.242   2.964
32662W        W36730   9.229   1.719   2.690
32663W        W36731   7.586   2.477   1.347
32664W        W36732   7.733   1.774   2.237
32665W        W36733  10.050   2.060   2.587
32666W        W36734   9.822   3.440   3.398
32667W        W36735   9.718   1.179   2.951
32668W        W36736   9.995   3.233   1.356
32669W        W36737   8.997   2.953   2.679
32670W        W36738   8.482   3.308   1.948
32671W        W36739  10.287   2.479   2.367
32672W        W36740   9.337   2.551   3.504
32673W        W36741   7.942   2.504   1.843
32674W        W36742  10.288   2.263   1.488
32675W        W36743   9.929   3.329   2.239
32676W        W36744   7.907   3.058   2.109
32677W        W36745   8.928   1.110   3.319
32678W        W36746   9.379   3.276   0.830
32679W        W36747   8.687   2.531   3.468
32680W        W36748   8.813   2.769   0.845
32681W        W36749   8.034   1.509   0.104
32682W        W36750   7.373   3.595   7.003
32683W        W36751   7.749   2.488   6.526
32684W        W36752  10.454   2.218   4.296
32685W        W36753  10.584   3.303   6.323
32686W        W36754   8.502   3.294   3.849
32687W        W36755   8.585   1.446   4.832
32688W        W36756   8.100   1.294   4.996
32689W        W36757   9.091   2.109   4.430
32690W        W36758   8.766   3.201   6.785
32691W        W36759   7.415   0.762   6.748
32692W        W36760   8.177   0.042   6.550
32693W        W36761   9.871   0.430   5.437
32694W        W36762   9.520   1.301   4.007
32695W        W36763  10.090   0.735   7.098
32696W        W36764   7.456   0.527   6.223
32697W        W36765   7.555   3.146   7.244
32698W        W36766   9.077   2.536   3.976
32699W        W36767   7.509   1.319   5.669
32700W        W36768   8.402   1.210   6.906
32701W        W36769  10.861   1.069   5.405
32702W        W36770  10.625   2.112   6.264
32703W        W36771   8.933   1.445   5.291
32704W        W36772   9.479   2.784   5.660
32705W        W36773   7.979   2.218   5.892
32706W        W36774   7.338   1.746   5.463
32707W        W36775   8.374   1.718   6.655
32708W        W36776  10.645   1.501   6.909
32709W        W36777   8.261   2.945   5.354
32710W        W36778   9.382   2.634   6.488
32711W        W36779   8.602   1.274   5.713
32712W        W36780   8.894   2.058   5.356
32713W        W36781   9.891   2.831   7.204
32714W        W36782   8.970   2.151   7.214
32715W        W36783   8.951   1.867   6.692
32716W        W36784   7.360   1.258   7.214
32717W        W36785  10.192   2.793   6.813
32718W        W36786   7.773   0.375   4.811
32719W        W36787   8.300   2.633   5.810
32720W        W36788  10.763   2.416   5.100
32721W        W36789  10.176   0.816   5.667
32722W        W36790  10.461   0.769   3.762
32723W        W36791  10.926   1.570   6.068
32724W        W36792   8.893   3.277   5.821
32725W        W36793  10.667   2.743   4.259
32726W        W36794   7.796   3.529   4.013
32727W        W36795   8.189   3.575   4.689
32728W        W36796   7.986   0.329   6.115
32729W        W36797  10.609   1.347   6.390
32730W        W36798  10.014   1.769   4.849
32731W        W36799   9.980   1.457   3.876
32732W        W36800   9.188   2.601   6.016
32733W        W36801   8.994   0.931   5.215
32734W        W36802   9.594   3.018   6.209
32735W        W36803  10.465   1.809   4.631
32736W        W36804   9.367   0.467   4.647
32737W        W36805   8.024   3.161   4.330
32738W        W36806   7.395   0.660   4.929
32739W        W36807  10.181   1.267   5.403
32740W        W36808   7.639   2.884   5.318
32741W        W36809   8.980   3.234   4.188
32742W        W36810  10.372   1.260   3.652
32743W        W36811   7.395   3.018   5.816
32744W        W36812   8.186   2.590   6.296
32745W        W36813   8.559   1.950   4.915
32746W        W36814   8.581   0.355   6.008
32747W        W36815  10.810   0.117   5.305
32748W        W36816   8.029   1.989   3.773
32749W        W36817   7.684   1.022   3.952
32750W        W36818   7.746   2.978   4.746
32751W        W36819   8.877   2.461   4.994
32752W        W36820  10.209   3.320   6.708
32753W        W36821   9.135   0.962   4.392
32754W        W36822  10.518   3.360   5.164
32755W        W36823  10.195   1.213   6.762
32756W        W36824  10.908   2.869   4.896
32757W        W36825   9.535   2.161   6.380
32758W        W36826   7.301   1.712   4.586
32759W        W36827   8.412   2.127   6.159
32760W        W36828   9.616   1.391   4.537
32761W        W36829   9.493   1.881   4.641
32762W        W36830   7.836   1.301   6.115
32763W        W36831   7.821   1.177   7.037
32764W        W36832   7.711   0.094   5.196
32765W        W36833   9.479   0.441   5.757
32766W        W36834   9.127   0.626   6.920
32767W        W36835   9.482   0.775   4.098
32768W        W36836  10.665   3.168   6.852
32769W        W36837   9.632   0.249   6.891
32770W        W36838  10.651   2.550   7.013
32771W        W36839  10.081   0.717   6.609
32772W        W36840   9.881   0.655   4.879
32773W        W36841  10.274   1.789   7.283
32774W        W36842   8.014   3.365   5.269
32775W        W36843   8.672   1.082   4.255
32776W        W36844   8.241   0.366   6.919
32777W        W36845  10.293   0.850   4.600
32778W        W36846  10.660   1.332   4.545
32779W        W36847   8.403   3.549   7.016
32780W        W36848   8.329   0.085   4.251
32781W        W36849  10.650   0.619   5.286
32782W        W36850  10.800   2.868   3.731
32783W        W36851   7.707   2.071   5.433
32784W        W36852   9.624   0.658   3.663
32785W        W36853  10.758   2.990   5.383
32786W        W36854  10.797   0.184   6.133
32787W        W36855   9.242   1.396   6.687
32788W        W36856   9.335   2.735   4.390
32789W        W36857   9.735   2.029   7.130
32790W        W36858   9.409   0.006   5.439
32791W        W36859   8.021   0.909   5.502
32792W        W36860   7.575   2.109   6.276
32793W        W36861   9.434   3.302   4.982
32794W        W36862  10.628   0.899   5.854
32795W        W36863   9.265   3.246   6.621
32796W        W36864  10.608   2.305   3.826
32797W        W36865   9.043   1.788   4.887
32798W        W36866  10.895   0.299   6.628
32799W        W36867   9.044   2.134   6.222
32800W        W36868   9.261   1.020   5.667
32801W        W36869  10.113   1.318   4.505
32802W        W36870  10.400   1.051   4.147
32803W        W36871  10.209   3.091   4.536
32804W        W36872  10.043   2.694   5.332
32805W        W36873   9.939   1.773   4.310
32806W        W36874   9.372   1.983   5.296
32807W        W36875  10.253   1.771   5.363
32808W        W36876   7.628   0.786   5.787
32809W        W36877  10.406   1.838   6.614
32810W        W36878  10.757   3.456   5.760
32811W        W36879   8.687   2.900   5.162
32812W        W36880   9.694   3.433   6.486
32813W        W36881   9.688   0.763   6.250
32814W        W36882   8.895   3.471   6.311
32815W        W36883  10.592   0.425   4.777
32816W        W36884  10.383   1.744   6.078
32817W        W36885   7.366   1.065   6.116
32818W        W36886  10.226   0.860   5.134
32819W        W36887  10.637   1.011   6.911
32820W        W36888   9.522   2.710   5.129
32821W        W36889   8.778   3.301   4.742
32822W        W36890   7.893   0.481   4.000
32823W        W36891   8.997   0.135   5.810
32824W        W36892   8.025   3.255   3.658
32825W        W36893   8.399   1.721   4.409
32826W        W36894   9.053   2.350   6.722
32827W        W36895   8.883   0.708   4.712
32828W        W36896  10.239   0.305   5.140
32829W        W36897   9.959   3.587   5.468
32830W        W36898   9.371   3.235   5.808
32831W        W36899   8.767   2.272   5.769
32832W        W36900  10.537   2.995   5.895
32833W        W36901   8.231   0.498   4.664
32834W        W36902   8.753   2.795   5.624
32835W        W36903   8.236   0.726   3.689
32836W        W36904   9.037   1.335   6.083
32837W        W36905   9.885   0.201   5.953
32838W        W36906   7.305   2.044   5.838
32839W        W36907   9.009   1.862   3.996
32840W        W36908   8.277   0.177   3.766
32841W        W36909   9.015   1.258   4.817
32842W        W36910   9.985   0.234   6.516
32843W        W36911   8.573   2.246   6.625
32844W        W36912   9.377   2.028   6.842
32845W        W36913   9.994   2.058   6.735
32846W        W36914   9.278   0.198   7.240
32847W        W36915   8.500   0.814   5.633
32848W        W36916   7.926   0.770   5.031
32849W        W36917   7.712   3.482   4.707
32850W        W36918   9.044   2.812   6.832
32851W        W36919   8.079   2.297   4.191
32852W        W36920   9.759   1.682   5.412
32853W        W36921  10.039   1.481   5.811
32854W        W36922   9.244   2.155   5.745
32855W        W36923   9.714   2.529   3.877
32856W        W36924   9.386   0.550   5.205
32857W        W36925  10.865   0.828   4.473
32858W        W36926   7.359   3.417   6.504
32859W        W36927   7.776   2.643   6.036
32860W        W36928   7.343   3.489   4.268
32861W        W36929   9.242   0.759   6.074
32862W        W36930   8.605   2.782   3.923
32863W        W36931  10.510   3.164   4.109
32864W        W36932   9.485   1.817   4.123
32865W        W36933   8.328   1.008   4.640
32866W        W36934   9.160   0.918   3.692
32867W        W36935   9.744   2.483   6.870
32868W        W36936  10.097   0.389   4.487
32869W        W36937   7.427   0.237   3.935
32870W        W36938   8.713   2.556   6.225
32871W        W36939   8.512   2.472   5.317
32872W        W36940   8.254   2.424   3.715
32873W        W36941   7.495   2.665   4.483
32874W        W36942   7.999   1.735   6.925
32875W        W36943   8.703   0.295   7.111
32876W        W36944   9.412   0.437   6.467
32877W        W36945   8.607   0.205   4.748
32878W        W36946   9.666   0.282   4.253
32879W        W36947   7.611   0.214   5.830
32880W        W36948   7.659   1.177   5.200
32881W        W36949  10.348   0.285   5.606
32882W        W36950   7.770   0.783   4.420
32883W        W36951  10.341   0.471   6.036
32884W        W36952  10.737   1.674   3.721
32885W        W36953   8.029   0.432   5.540
32886W        W36954   9.143   1.004   6.480
32887W        W36955   7.291   0.694   3.958
32888W        W36956   8.077   2.083   6.519
32889W        W36957   9.435   1.481   5.698
32890W        W36958   9.302   3.560   3.994
32891W        W36959   7.448   2.067   3.691
32892W        W36960   8.183   2.478   6.817
32893W        W36961   7.704   1.645   6.448
32894W        W36962   8.695   1.750   6.242
32895W        W36963  10.463   0.109   6.504
32896W        W36964  10.861   1.719   6.495
32897W        W36965  10.849   1.919   4.181
32898W        W36966   9.712   2.251   4.280
32899W        W36967  10.186   3.551   3.975
32900W        W36968   9.363   1.541   7.117
32901W        W36969   7.693   2.508   7.157
32902W        W36970  10.899   0.430   7.109
32903W        W36971  10.617   1.358   5.730
32904W        W36972   8.925   3.488   7.207
32905W        W36973   8.780   0.117   3.934
32906W        W36974  10.319   2.716   3.877
32907W        W36975   8.088   0.809   6.763
32908W        W36976   8.522   2.803   6.625
32909W        W36977  10.648   0.794   6.423
32910W        W36978   9.859   3.453   4.391
32911W        W36979  10.098   2.072   5.758
32912W        W36980   8.348   0.488   6.425
32913W        W36981   8.817   1.557   7.182
32914W        W36982   8.320   2.736   4.376
32915W        W36983  10.075   2.234   4.640
32916W        W36984   7.843   0.860   6.364
32917W        W36985   9.172   2.922   4.828
32918W        W36986  10.922   1.482   5.009
32919W        W36987   9.144   0.115   6.728
32920W        W36988   9.924   2.820   5.807
32921W        W36989  10.227   3.164   5.515
32922W        W36990   9.446   2.966   3.943
32923W        W36991   7.456   2.858   6.785
32924W        W36992   8.199   0.850   6.023
32925W        W36993   8.169   0.198   5.133
32926W        W36994   9.790   1.040   5.825
32927W        W36995   8.588   2.211   4.025
32928W        W36996  10.586   2.153   5.524
32929W        W36997   7.913   2.911   6.947
32930W        W36998  10.300   3.593   4.744
32931W        W36999   8.399   0.613   5.189
32932W        W37000   8.168   2.106   5.279
32933W        W37001   8.481   3.517   6.029
32934W        W37002  10.548   3.613   7.061
32935W        W37003   9.707   1.801   5.994
32936W        W37004   7.556   1.599   3.909
32937W        W37005  10.690   3.257   4.606
32938W        W37006  10.527   0.581   4.225
32939W        W37007   8.666   0.100   6.628
32940W        W37008  10.372   2.902   5.086
32941W        W37009  10.401   1.458   4.991
32942W        W37010   8.518   1.131   5.207
32943W        W37011   8.763   1.393   6.531
32944W        W37012   9.874   2.546   6.394
32945W        W37013   8.524   1.000   6.506
32946W        W37014   8.503   3.466   5.122
32947W        W37015   7.820   3.425   6.756
32948W        W37016   7.932   2.786   3.886
32949W        W37017  10.449   2.544   4.696
32950W        W37018   8.053   1.336   6.582
32951W        W37019  10.826   1.266   4.063
32952W        W37020   8.571   2.323   4.534
32953W        W37021   9.670   1.705   6.615
32954W        W37022   9.561   1.333   6.159
32955W        W37023   8.121   1.705   6.188
32956W        W37024  10.331   3.593   6.017
32957W        W37025  10.122   0.227   7.011
32958W        W37026   7.786   0.377   6.598
32959W        W37027   8.125   1.400   5.651
32960W        W37028   8.494   1.214   3.773
32961W        W37029   7.297   2.973   6.318
32962W        W37030   8.882   1.682   5.761
32963W        W37031   8.705   0.707   3.866
32964W        W37032   7.840   1.523   4.647
32965W        W37033   7.611   3.375   6.084
32966W        W37034  10.406   1.601   4.192
32967W        W37035  10.501   0.517   6.878
32968W        W37036   9.937   2.726   4.841
32969W        W37037   7.535   1.650   7.018
32970W        W37038  10.501   0.114   4.314
32971W        W37039  10.021   2.589   4.325
32972W        W37040   8.923   1.647   4.410
32973W        W37041  10.110   0.451   3.933
32974W        W37042  10.175   1.058   6.119
32975W        W37043   7.884   1.651   5.326
32976W        W37044   8.178   2.590   4.975
32977W        W37045   9.941   1.210   4.940
32978W        W37046   8.964   0.589   5.636
32979W        W37047  10.926   2.500   6.147
32980W        W37048  10.844   0.487   5.708
32981W        W37049   7.383   3.317   5.084
32982W        W37050   7.892   2.504   4.620
32983W        W37051   7.807   0.121   7.173
32984W        W37052   8.926   2.974   7.275
32985W        W37053  10.681   1.942   5.065
32986W        W37054  10.035   2.119   3.945
32987W        W37055   9.330   3.640   6.157
32988W        W37056  10.187   2.362   7.194
32989W        W37057   9.002   0.072   4.474
32990W        W37058   9.715   0.941   5.333
32991W        W37059   7.401   2.528   5.665
32992W        W37060   8.654   0.490   4.306
32993W        W37061   8.458   1.974   7.155
32994W        W37062   9.452   0.955   4.869
32995W        W37063   9.657   2.365   5.991
32996W        W37064   7.811   2.970   6.426
32997W        W37065   8.402   2.953   7.149
32998W        W37066   8.253   0.750   4.163
32999W        W37067   9.770   0.892   4.488
33000W        W37068   9.728   3.000   6.725
33001W        W37069   8.413   1.592   5.324
33002W        W37070   8.068   3.290   6.189
33003W        W37071  10.813   3.407   3.790
33004W        W37072   7.676   2.079   6.786
33005W        W37073   9.671   2.341   5.474
33006W        W37074   8.107   1.990   4.716
33007W        W37075   8.478   2.997   6.111
33008W        W37076   8.856   0.416   5.152
33009W        W37077   7.467   2.400   4.082
33010W        W37078   8.986   1.351   3.952
33011W        W37079   7.632   1.900   4.971
33012W        W37080   8.922   0.542   6.435
33013W        W37081  10.594   0.251   3.862
33014W        W37082  10.687   1.997   6.961
33015W        W37083   9.341   3.254   7.113
33016W        W37084  10.899   2.348   6.635
33017W        W37085  10.307   3.146   7.246
33018W        W37086   8.046   3.602   5.724
33019W        W37087  10.905   2.224   4.598
33020W        W37088   9.435   1.491   5.111
33021W        W37089   9.202   0.103   5.001
33022W        W37090   8.261   3.087   4.838
33023W        W37091   8.760   0.828   6.063
33024W        W37092   8.460   0.197   5.532
33025W        W37093   7.523   3.019   4.080
33026W        W37094   9.339   2.383   4.798
33027W        W37095   8.214   3.178   6.677
33028W        W37096   7.691   2.001   4.373
33029W        W37097   7.576   0.544   5.372
33030W        W37098   9.124   2.509   5.429
33031W        W37099   7.376   0.363   4.449
33032W        W37100  10.040   1.569   6.376
33033W        W37101   9.917   0.955   3.948
33034W        W37102  10.434   2.627   5.596
33035W        W37103   9.095   3.111   5.427
33036W        W37104   8.507   3.215   4.338
33037W        W37105   9.789   0.118   3.768
33038W        W37106   7.589   3.378   5.509
33039W        W37107   9.786   1.136   7.144
33040W        W37108   7.769   0.666   7.143
33041W        W37109   7.500   1.266   4.476
33042W        W37110   8.191   1.255   4.201
33043W        W37111   9.954   1.582   7.018
33044W        W37112   8.297   1.863   5.727
33045W        W37113   9.771   0.149   4.847
33046W        W37114   8.902   3.580   5.350
33047W        W37115  10.116   3.042   6.287
33048W        W37116   9.700   3.191   5.398
33049W        W37117   9.719   2.171   4.992
33050W        W37118   9.181   0.396   4.063
33051W        W37119  10.862   0.024   4.785
33052W        W37120   8.550   1.659   3.948
33053W        W37121  10.716   0.996   4.938
33054W        W37122   9.408   2.166   3.815
33055W        W37123  10.344   2.366   6.563
33056W        W37124   9.998   3.067   4.030
33057W        W37125   8.613   0.742   6.936
33058W        W37126   8.433   1.326   6.177
33059W        W37127  10.525   2.821   6.454
33060W        W37128   9.625   0.771   6.831
33061W        W37129   7.469   1.242   6.608
33062W        W37130   9.229   1.719   6.334
33063W        W37131   7.586   2.477   4.991
33064W        W37132   7.733   1.774   5.881
33065W        W37133  10.050   2.060   6.231
33066W        W37134   9.822   3.440   7.042
33067W        W37135   9.718   1.179   6.595
33068W        W37136   9.995   3.233   5.000
33069W        W37137   8.997   2.953   6.323
33070W        W37138   8.482   3.308   5.592
33071W        W37139  10.287   2.479   6.011
33072W        W37140   9.337   2.551   7.148
33073W        W37141   7.942   2.504   5.487
33074W        W37142  10.288   2.263   5.132
33075W        W37143   9.929   3.329   5.883
33076W        W37144   7.907   3.058   5.753
33077W        W37145   8.928   1.110   6.963
33078W        W37146   9.379   3.276   4.474
33079W        W37147   8.687   2.531   7.112
33080W        W37148   8.813   2.769   4.489
33081W        W37149   8.034   1.509   3.748
33082W        W37150   7.373   3.595  10.648
33083W        W37151   7.749   2.488  10.171
33084W        W37152  10.454   2.218   7.941
33085W        W37153  10.584   3.303   9.968
33086W        W37154   8.502   3.294   7.494
33087W        W37155   8.585   1.446   8.477
33088W        W37156   8.100   1.294   8.641
33089W        W37157   9.091   2.109   8.075
33090W        W37158   8.766   3.201  10.430
33091W        W37159   7.415   0.762  10.393
33092W        W37160   8.177   0.042  10.195
33093W        W37161   9.871   0.430   9.082
33094W        W37162   9.520   1.301   7.652
33095W        W37163  10.090   0.735  10.743
33096W        W37164   7.456   0.527   9.868
33097W        W37165   7.555   3.146  10.889
33098W        W37166   9.077   2.536   7.621
33099W        W37167   7.509   1.319   9.314
33100W        W37168   8.402   1.210  10.551
33101W        W37169  10.861   1.069   9.050
33102W        W37170  10.625   2.112   9.909
33103W        W37171   8.933   1.445   8.936
33104W        W37172   9.479   2.784   9.305
33105W        W37173   7.979   2.218   9.537
33106W        W37174   7.338   1.746   9.108
33107W        W37175   8.374   1.718  10.300
33108W        W37176  10.645   1.501  10.554
33109W        W37177   8.261   2.945   8.999
33110W        W37178   9.382   2.634  10.133
33111W        W37179   8.602   1.274   9.358
33112W        W37180   8.894   2.058   9.001
33113W        W37181   9.891   2.831  10.849
33114W        W37182   8.970   2.151  10.859
33115W        W37183   8.951   1.867  10.337
33116W        W37184   7.360   1.258  10.859
33117W        W37185  10.192   2.793  10.458
33118W        W37186   7.773   0.375   8.456
33119W        W37187   8.300   2.633   9.455
33120W        W37188  10.763   2.416   8.745
33121W        W37189  10.176   0.816   9.312
33122W        W37190  10.461   0.769   7.407
33123W        W37191  10.926   1.570   9.713
33124W        W37192   8.893   3.277   9.466
33125W        W37193  10.667   2.743   7.904
33126W        W37194   7.796   3.529   7.658
33127W        W37195   8.189   3.575   8.334
33128W        W37196   7.986   0.329   9.760
33129W        W37197  10.609   1.347  10.035
33130W        W37198  10.014   1.769   8.494
33131W        W37199   9.980   1.457   7.521
33132W        W37200   9.188   2.601   9.661
33133W        W37201   8.994   0.931   8.860
33134W        W37202   9.594   3.018   9.854
33135W        W37203  10.465   1.809   8.276
33136W        W37204   9.367   0.467   8.292
33137W        W37205   8.024   3.161   7.975
33138W        W37206   7.395   0.660   8.574
33139W        W37207  10.181   1.267   9.048
33140W        W37208   7.639   2.884   8.963
33141W        W37209   8.980   3.234   7.833
33142W        W37210  10.372   1.260   7.297
33143W        W37211   7.395   3.018   9.461
33144W        W37212   8.186   2.590   9.941
33145W        W37213   8.559   1.950   8.560
33146W        W37214   8.581   0.355   9.653
33147W        W37215  10.810   0.117   8.950
33148W        W37216   8.029   1.989   7.418
33149W        W37217   7.684   1.022   7.597
33150W        W37218   7.746   2.978   8.391
33151W        W37219   8.877   2.461   8.639
33152W        W37220  10.209   3.320  10.353
33153W        W37221   9.135   0.962   8.037
33154W        W37222  10.518   3.360   8.809
33155W        W37223  10.195   1.213  10.407
33156W        W37224  10.908   2.869   8.541
33157W        W37225   9.535   2.161  10.025
33158W        W37226   7.301   1.712   8.231
33159W        W37227   8.412   2.127   9.804
33160W        W37228   9.616   1.391   8.182
33161W        W37229   9.493   1.881   8.286
33162W        W37230   7.836   1.301   9.760
33163W        W37231   7.821   1.177  10.682
33164W        W37232   7.711   0.094   8.841
33165W        W37233   9.479   0.441   9.402
33166W        W37234   9.127   0.626  10.565
33167W        W37235   9.482   0.775   7.743
33168W        W37236  10.665   3.168  10.497
33169W        W37237   9.632   0.249  10.536
33170W        W37238  10.651   2.550  10.658
33171W        W37239  10.081   0.717  10.254
33172W        W37240   9.881   0.655   8.524
33173W        W37241  10.274   1.789  10.928
33174W        W37242   8.014   3.365   8.914
33175W        W37243   8.672   1.082   7.900
33176W        W37244   8.241   0.366  10.564
33177W        W37245  10.293   0.850   8.245
33178W        W37246  10.660   1.332   8.190
33179W        W37247   8.403   3.549  10.661
33180W        W37248   8.329   0.085   7.896
33181W        W37249  10.650   0.619   8.931
33182W        W37250  10.800   2.868   7.376
33183W        W37251   7.707   2.071   9.078
33184W        W37252   9.624   0.658   7.308
33185W        W37253  10.758   2.990   9.028
33186W        W37254  10.797   0.184   9.778
33187W        W37255   9.242   1.396  10.332
33188W        W37256   9.335   2.735   8.035
33189W        W37257   9.735   2.029  10.775
33190W        W37258   9.409   0.006   9.084
33191W        W37259   8.021   0.909   9.147
33192W        W37260   7.575   2.109   9.921
33193W        W37261   9.434   3.302   8.627
33194W        W37262  10.628   0.899   9.499
33195W        W37263   9.265   3.246  10.266
33196W        W37264  10.608   2.305   7.471
33197W        W37265   9.043   1.788   8.532
33198W        W37266  10.895   0.299  10.273
33199W        W37267   9.044   2.134   9.867
33200W        W37268   9.261   1.020   9.312
33201W        W37269  10.113   1.318   8.150
33202W        W37270  10.400   1.051   7.792
33203W        W37271  10.209   3.091   8.181
33204W        W37272  10.043   2.694   8.977
33205W        W37273   9.939   1.773   7.955
33206W        W37274   9.372   1.983   8.941
33207W        W37275  10.253   1.771   9.008
33208W        W37276   7.628   0.786   9.432
33209W        W37277  10.406   1.838  10.259
33210W        W37278  10.757   3.456   9.405
33211W        W37279   8.687   2.900   8.807
33212W        W37280   9.694   3.433  10.131
33213W        W37281   9.688   0.763   9.895
33214W        W37282   8.895   3.471   9.956
33215W        W37283  10.592   0.425   8.422
33216W        W37284  10.383   1.744   9.723
33217W        W37285   7.366   1.065   9.761
33218W        W37286  10.226   0.860   8.779
33219W        W37287  10.637   1.011  10.556
33220W        W37288   9.522   2.710   8.774
33221W        W37289   8.778   3.301   8.387
33222W        W37290   7.893   0.481   7.645
33223W        W37291   8.997   0.135   9.455
33224W        W37292   8.025   3.255   7.303
33225W        W37293   8.399   1.721   8.054
33226W        W37294   9.053   2.350  10.367
33227W        W37295   8.883   0.708   8.357
33228W        W37296  10.239   0.305   8.785
33229W        W37297   9.959   3.587   9.113
33230W        W37298   9.371   3.235   9.453
33231W        W37299   8.767   2.272   9.414
33232W        W37300  10.537   2.995   9.540
33233W        W37301   8.231   0.498   8.309
33234W        W37302   8.753   2.795   9.269
33235W        W37303   8.236   0.726   7.334
33236W        W37304   9.037   1.335   9.728
33237W        W37305   9.885   0.201   9.598
33238W        W37306   7.305   2.044   9.483
33239W        W37307   9.009   1.862   7.641
33240W        W37308   8.277   0.177   7.411
33241W        W37309   9.015   1.258   8.462
33242W        W37310   9.985   0.234  10.161
33243W        W37311   8.573   2.246  10.270
33244W        W37312   9.377   2.028  10.487
33245W        W37313   9.994   2.058  10.380
33246W        W37314   9.278   0.198  10.885
33247W        W37315   8.500   0.814   9.278
33248W        W37316   7.926   0.770   8.676
33249W        W37317   7.712   3.482   8.352
33250W        W37318   9.044   2.812  10.477
33251W        W37319   8.079   2.297   7.836
33252W        W37320   9.759   1.682   9.057
33253W        W37321  10.039   1.481   9.456
33254W        W37322   9.244   2.155   9.390
33255W        W37323   9.714   2.529   7.522
33256W        W37324   9.386   0.550   8.850
33257W        W37325  10.865   0.828   8.118
33258W        W37326   7.359   3.417  10.149
33259W        W37327   7.776   2.643   9.681
33260W        W37328   7.343   3.489   7.913
33261W        W37329   9.242   0.759   9.719
33262W        W37330   8.605   2.782   7.568
33263W        W37331  10.510   3.164   7.754
33264W        W37332   9.485   1.817   7.768
33265W        W37333   8.328   1.008   8.285
33266W        W37334   9.160   0.918   7.337
33267W        W37335   9.744   2.483  10.515
33268W        W37336  10.097   0.389   8.132
33269W        W37337   7.427   0.237   7.580
33270W        W37338   8.713   2.556   9.870
33271W        W37339   8.512   2.472   8.962
33272W        W37340   8.254   2.424   7.360
33273W        W37341   7.495   2.665   8.128
33274W        W37342   7.999   1.735  10.570
33275W        W37343   8.703   0.295  10.756
33276W        W37344   9.412   0.437  10.112
33277W        W37345   8.607   0.205   8.393
33278W        W37346   9.666   0.282   7.898
33279W        W37347   7.611   0.214   9.475
33280W        W37348   7.659   1.177   8.845
33281W        W37349  10.348   0.285   9.251
33282W        W37350   7.770   0.783   8.065
33283W        W37351  10.341   0.471   9.681
33284W        W37352  10.737   1.674   7.366
33285W        W37353   8.029   0.432   9.185
33286W        W37354   9.143   1.004  10.125
33287W        W37355   7.291   0.694   7.603
33288W        W37356   8.077   2.083  10.164
33289W        W37357   9.435   1.481   9.343
33290W        W37358   9.302   3.560   7.639
33291W        W37359   7.448   2.067   7.336
33292W        W37360   8.183   2.478  10.462
33293W        W37361   7.704   1.645  10.093
33294W        W37362   8.695   1.750   9.887
33295W        W37363  10.463   0.109  10.149
33296W        W37364  10.861   1.719  10.140
33297W        W37365  10.849   1.919   7.826
33298W        W37366   9.712   2.251   7.925
33299W        W37367  10.186   3.551   7.620
33300W        W37368   9.363   1.541  10.762
33301W        W37369   7.693   2.508  10.802
33302W        W37370  10.899   0.430  10.754
33303W        W37371  10.617   1.358   9.375
33304W        W37372   8.925   3.488  10.852
33305W        W37373   8.780   0.117   7.579
33306W        W37374  10.319   2.716   7.522
33307W        W37375   8.088   0.809  10.408
33308W        W37376   8.522   2.803  10.270
33309W        W37377  10.648   0.794  10.068
33310W        W37378   9.859   3.453   8.036
33311W        W37379  10.098   2.072   9.403
33312W        W37380   8.348   0.488  10.070
33313W        W37381   8.817   1.557  10.827
33314W        W37382   8.320   2.736   8.021
33315W        W37383  10.075   2.234   8.285
33316W        W37384   7.843   0.860  10.009
33317W        W37385   9.172   2.922   8.473
33318W        W37386  10.922   1.482   8.654
33319W        W37387   9.144   0.115  10.373
33320W        W37388   9.924   2.820   9.452
33321W        W37389  10.227   3.164   9.160
33322W        W37390   9.446   2.966   7.588
33323W        W37391   7.456   2.858  10.430
33324W        W37392   8.199   0.850   9.668
33325W        W37393   8.169   0.198   8.778
33326W        W37394   9.790   1.040   9.470
33327W        W37395   8.588   2.211   7.670
33328W        W37396  10.586   2.153   9.169
33329W        W37397   7.913   2.911  10.592
33330W        W37398  10.300   3.593   8.389
33331W        W37399   8.399   0.613   8.834
33332W        W37400   8.168   2.106   8.924
33333W        W37401   8.481   3.517   9.674
33334W        W37402  10.548   3.613  10.706
33335W        W37403   9.707   1.801   9.639
33336W        W37404   7.556   1.599   7.554
33337W        W37405  10.690   3.257   8.251
33338W        W37406  10.527   0.581   7.870
33339W        W37407   8.666   0.100  10.273
33340W        W37408  10.372   2.902   8.731
33341W        W37409  10.401   1.458   8.636
33342W        W37410   8.518   1.131   8.852
33343W        W37411   8.763   1.393  10.176
33344W        W37412   9.874   2.546  10.039
33345W        W37413   8.524   1.000  10.151
33346W        W37414   8.503   3.466   8.767
33347W        W37415   7.820   3.425  10.401
33348W        W37416   7.932   2.786   7.531
33349W        W37417  10.449   2.544   8.341
33350W        W37418   8.053   1.336  10.227
33351W        W37419  10.826   1.266   7.708
33352W        W37420   8.571   2.323   8.179
33353W        W37421   9.670   1.705  10.260
33354W        W37422   9.561   1.333   9.804
33355W        W37423   8.121   1.705   9.833
33356W        W37424  10.331   3.593   9.662
33357W        W37425  10.122   0.227  10.656
33358W        W37426   7.786   0.377  10.243
33359W        W37427   8.125   1.400   9.296
33360W        W37428   8.494   1.214   7.418
33361W        W37429   7.297   2.973   9.963
33362W        W37430   8.882   1.682   9.406
33363W        W37431   8.705   0.707   7.511
33364W        W37432   7.840   1.523   8.292
33365W        W37433   7.611   3.375   9.729
33366W        W37434  10.406   1.601   7.837
33367W        W37435  10.501   0.517  10.523
33368W        W37436   9.937   2.726   8.486
33369W        W37437   7.535   1.650  10.663
33370W        W37438  10.501   0.114   7.959
33371W        W37439  10.021   2.589   7.970
33372W        W37440   8.923   1.647   8.055
33373W        W37441  10.110   0.451   7.578
33374W        W37442  10.175   1.058   9.764
33375W        W37443   7.884   1.651   8.971
33376W        W37444   8.178   2.590   8.620
33377W        W37445   9.941   1.210   8.585
33378W        W37446   8.964   0.589   9.281
33379W        W37447  10.926   2.500   9.792
33380W        W37448  10.844   0.487   9.353
33381W        W37449   7.383   3.317   8.729
33382W        W37450   7.892   2.504   8.265
33383W        W37451   7.807   0.121  10.818
33384W        W37452   8.926   2.974  10.920
33385W        W37453  10.681   1.942   8.710
33386W        W37454  10.035   2.119   7.590
33387W        W37455   9.330   3.640   9.802
33388W        W37456  10.187   2.362  10.839
33389W        W37457   9.002   0.072   8.119
33390W        W37458   9.715   0.941   8.978
33391W        W37459   7.401   2.528   9.310
33392W        W37460   8.654   0.490   7.951
33393W        W37461   8.458   1.974  10.800
33394W        W37462   9.452   0.955   8.514
33395W        W37463   9.657   2.365   9.636
33396W        W37464   7.811   2.970  10.071
33397W        W37465   8.402   2.953  10.794
33398W        W37466   8.253   0.750   7.808
33399W        W37467   9.770   0.892   8.133
33400W        W37468   9.728   3.000  10.370
33401W        W37469   8.413   1.592   8.969
33402W        W37470   8.068   3.290   9.834
33403W        W37471  10.813   3.407   7.435
33404W        W37472   7.676   2.079  10.431
33405W        W37473   9.671   2.341   9.119
33406W        W37474   8.107   1.990   8.361
33407W        W37475   8.478   2.997   9.756
33408W        W37476   8.856   0.416   8.797
33409W        W37477   7.467   2.400   7.727
33410W        W37478   8.986   1.351   7.597
33411W        W37479   7.632   1.900   8.616
33412W        W37480   8.922   0.542  10.080
33413W        W37481  10.594   0.251   7.507
33414W        W37482  10.687   1.997  10.606
33415W        W37483   9.341   3.254  10.758
33416W        W37484  10.899   2.348  10.280
33417W        W37485  10.307   3.146  10.891
33418W        W37486   8.046   3.602   9.369
33419W        W37487  10.905   2.224   8.243
33420W        W37488   9.435   1.491   8.756
33421W        W37489   9.202   0.103   8.646
33422W        W37490   8.261   3.087   8.483
33423W        W37491   8.760   0.828   9.708
33424W        W37492   8.460   0.197   9.177
33425W        W37493   7.523   3.019   7.725
33426W        W37494   9.339   2.383   8.443
33427W        W37495   8.214   3.178  10.322
33428W        W37496   7.691   2.001   8.018
33429W        W37497   7.576   0.544   9.017
33430W        W37498   9.124   2.509   9.074
33431W        W37499   7.376   0.363   8.094
33432W        W37500  10.040   1.569  10.021
33433W        W37501   9.917   0.955   7.593
33434W        W37502  10.434   2.627   9.241
33435W        W37503   9.095   3.111   9.072
33436W        W37504   8.507   3.215   7.983
33437W        W37505   9.789   0.118   7.413
33438W        W37506   7.589   3.378   9.154
33439W        W37507   9.786   1.136  10.789
33440W        W37508   7.769   0.666  10.788
33441W        W37509   7.500   1.266   8.121
33442W        W37510   8.191   1.255   7.846
33443W        W37511   9.954   1.582  10.663
33444W        W37512   8.297   1.863   9.372
33445W        W37513   9.771   0.149   8.492
33446W        W37514   8.902   3.580   8.995
33447W        W37515  10.116   3.042   9.932
33448W        W37516   9.700   3.191   9.043
33449W        W37517   9.719   2.171   8.637
33450W        W37518   9.181   0.396   7.708
33451W        W37519  10.862   0.024   8.430
33452W        W37520   8.550   1.659   7.593
33453W        W37521  10.716   0.996   8.583
33454W        W37522   9.408   2.166   7.460
33455W        W37523  10.344   2.366  10.208
33456W        W37524   9.998   3.067   7.675
33457W        W37525   8.613   0.742  10.581
33458W        W37526   8.433   1.326   9.822
33459W        W37527  10.525   2.821  10.099
33460W        W37528   9.625   0.771  10.476
33461W        W37529   7.469   1.242  10.253
33462W        W37530   9.229   1.719   9.979
33463W        W37531   7.586   2.477   8.636
33464W        W37532   7.733   1.774   9.526
33465W        W37533  10.050   2.060   9.876
33466W        W37534   9.822   3.440  10.687
33467W        W37535   9.718   1.179  10.240
33468W        W37536   9.995   3.233   8.645
33469W        W37537   8.997   2.953   9.968
33470W        W37538   8.482   3.308   9.237
33471W        W37539  10.287   2.479   9.656
33472W        W37540   9.337   2.551  10.793
33473W        W37541   7.942   2.504   9.132
33474W        W37542  10.288   2.263   8.777
33475W        W37543   9.929   3.329   9.528
33476W        W37544   7.907   3.058   9.398
33477W        W37545   8.928   1.110  10.608
33478W        W37546   9.379   3.276   8.119
33479W        W37547   8.687   2.531  10.757
33480W        W37548   8.813   2.769   8.134
33481W        W37549   8.034   1.509   7.393
33482W        W37550   7.373   3.595  14.292
33483W        W37551   7.749   2.488  13.815
33484W        W37552  10.454   2.218  11.585
33485W        W37553  10.584   3.303  13.612
33486W        W37554   8.502   3.294  11.138
33487W        W37555   8.585   1.446  12.121
33488W        W37556   8.100   1.294  12.285
33489W        W37557   9.091   2.109  11.719
33490W        W37558   8.766   3.201  14.074
33491W        W37559   7.415   0.762  14.037
33492W        W37560   8.177   0.042  13.839
33493W        W37561   9.871   0.430  12.726
33494W        W37562   9.520   1.301  11.296
33495W        W37563  10.090   0.735  14.387
33496W        W37564   7.456   0.527  13.512
33497W        W37565   7.555   3.146  14.533
33498W        W37566   9.077   2.536  11.265
33499W        W37567   7.509   1.319  12.958
33500W        W37568   8.402   1.210  14.195
33501W        W37569  10.861   1.069  12.694
33502W        W37570  10.625   2.112  13.553
33503W        W37571   8.933   1.445  12.580
33504W        W37572   9.479   2.784  12.949
33505W        W37573   7.979   2.218  13.181
33506W        W37574   7.338   1.746  12.752
33507W        W37575   8.374   1.718  13.944
33508W        W37576  10.645   1.501  14.198
33509W        W37577   8.261   2.945  12.643
33510W        W37578   9.382   2.634  13.777
33511W        W37579   8.602   1.274  13.002
33512W        W37580   8.894   2.058  12.645
33513W        W37581   9.891   2.831  14.493
33514W        W37582   8.970   2.151  14.503
33515W        W37583   8.951   1.867  13.981
33516W        W37584   7.360   1.258  14.503
33517W        W37585  10.192   2.793  14.102
33518W        W37586   7.773   0.375  12.100
33519W        W37587   8.300   2.633  13.099
33520W        W37588  10.763   2.416  12.389
33521W        W37589  10.176   0.816  12.956
33522W        W37590  10.461   0.769  11.051
33523W        W37591  10.926   1.570  13.357
33524W        W37592   8.893   3.277  13.110
33525W        W37593  10.667   2.743  11.548
33526W        W37594   7.796   3.529  11.302
33527W        W37595   8.189   3.575  11.978
33528W        W37596   7.986   0.329  13.404
33529W        W37597  10.609   1.347  13.679
33530W        W37598  10.014   1.769  12.138
33531W        W37599   9.980   1.457  11.165
33532W        W37600   9.188   2.601  13.305
33533W        W37601   8.994   0.931  12.504
33534W        W37602   9.594   3.018  13.498
33535W        W37603  10.465   1.809  11.920
33536W        W37604   9.367   0.467  11.936
33537W        W37605   8.024   3.161  11.619
33538W        W37606   7.395   0.660  12.218
33539W        W37607  10.181   1.267  12.692
33540W        W37608   7.639   2.884  12.607
33541W        W37609   8.980   3.234  11.477
33542W        W37610  10.372   1.260  10.941
33543W        W37611   7.395   3.018  13.105
33544W        W37612   8.186   2.590  13.585
33545W        W37613   8.559   1.950  12.204
33546W        W37614   8.581   0.355  13.297
33547W        W37615  10.810   0.117  12.594
33548W        W37616   8.029   1.989  11.062
33549W        W37617   7.684   1.022  11.241
33550W        W37618   7.746   2.978  12.035
33551W        W37619   8.877   2.461  12.283
33552W        W37620  10.209   3.320  13.997
33553W        W37621   9.135   0.962  11.681
33554W        W37622  10.518   3.360  12.453
33555W        W37623  10.195   1.213  14.051
33556W        W37624  10.908   2.869  12.185
33557W        W37625   9.535   2.161  13.669
33558W        W37626   7.301   1.712  11.875
33559W        W37627   8.412   2.127  13.448
33560W        W37628   9.616   1.391  11.826
33561W        W37629   9.493   1.881  11.930
33562W        W37630   7.836   1.301  13.404
33563W        W37631   7.821   1.177  14.326
33564W        W37632   7.711   0.094  12.485
33565W        W37633   9.479   0.441  13.046
33566W        W37634   9.127   0.626  14.209
33567W        W37635   9.482   0.775  11.387
33568W        W37636  10.665   3.168  14.141
33569W        W37637   9.632   0.249  14.180
33570W        W37638  10.651   2.550  14.302
33571W        W37639  10.081   0.717  13.898
33572W        W37640   9.881   0.655  12.168
33573W        W37641  10.274   1.789  14.572
33574W        W37642   8.014   3.365  12.558
33575W        W37643   8.672   1.082  11.544
33576W        W37644   8.241   0.366  14.208
33577W        W37645  10.293   0.850  11.889
33578W        W37646  10.660   1.332  11.834
33579W        W37647   8.403   3.549  14.305
33580W        W37648   8.329   0.085  11.540
33581W        W37649  10.650   0.619  12.575
33582W        W37650  10.800   2.868  11.020
33583W        W37651   7.707   2.071  12.722
33584W        W37652   9.624   0.658  10.952
33585W        W37653  10.758   2.990  12.672
33586W        W37654  10.797   0.184  13.422
33587W        W37655   9.242   1.396  13.976
33588W        W37656   9.335   2.735  11.679
33589W        W37657   9.735   2.029  14.419
33590W        W37658   9.409   0.006  12.728
33591W        W37659   8.021   0.909  12.791
33592W        W37660   7.575   2.109  13.565
33593W        W37661   9.434   3.302  12.271
33594W        W37662  10.628   0.899  13.143
33595W        W37663   9.265   3.246  13.910
33596W        W37664  10.608   2.305  11.115
33597W        W37665   9.043   1.788  12.176
33598W        W37666  10.895   0.299  13.917
33599W        W37667   9.044   2.134  13.511
33600W        W37668   9.261   1.020  12.956
33601W        W37669  10.113   1.318  11.794
33602W        W37670  10.400   1.051  11.436
33603W        W37671  10.209   3.091  11.825
33604W        W37672  10.043   2.694  12.621
33605W        W37673   9.939   1.773  11.599
33606W        W37674   9.372   1.983  12.585
33607W        W37675  10.253   1.771  12.652
33608W        W37676   7.628   0.786  13.076
33609W        W37677  10.406   1.838  13.903
33610W        W37678  10.757   3.456  13.049
33611W        W37679   8.687   2.900  12.451
33612W        W37680   9.694   3.433  13.775
33613W        W37681   9.688   0.763  13.539
33614W        W37682   8.895   3.471  13.600
33615W        W37683  10.592   0.425  12.066
33616W        W37684  10.383   1.744  13.367
33617W        W37685   7.366   1.065  13.405
33618W        W37686  10.226   0.860  12.423
33619W        W37687  10.637   1.011  14.200
33620W        W37688   9.522   2.710  12.418
33621W        W37689   8.778   3.301  12.031
33622W        W37690   7.893   0.481  11.289
33623W        W37691   8.997   0.135  13.099
33624W        W37692   8.025   3.255  10.947
33625W        W37693   8.399   1.721  11.698
33626W        W37694   9.053   2.350  14.011
33627W        W37695   8.883   0.708  12.001
33628W        W37696  10.239   0.305  12.429
33629W        W37697   9.959   3.587  12.757
33630W        W37698   9.371   3.235  13.097
33631W        W37699   8.767   2.272  13.058
33632W        W37700  10.537   2.995  13.184
33633W        W37701   8.231   0.498  11.953
33634W        W37702   8.753   2.795  12.913
33635W        W37703   8.236   0.726  10.978
33636W        W37704   9.037   1.335  13.372
33637W        W37705   9.885   0.201  13.242
33638W        W37706   7.305   2.044  13.127
33639W        W37707   9.009   1.862  11.285
33640W        W37708   8.277   0.177  11.055
33641W        W37709   9.015   1.258  12.106
33642W        W37710   9.985   0.234  13.805
33643W        W37711   8.573   2.246  13.914
33644W        W37712   9.377   2.028  14.131
33645W        W37713   9.994   2.058  14.024
33646W        W37714   9.278   0.198  14.529
33647W        W37715   8.500   0.814  12.922
33648W        W37716   7.926   0.770  12.320
33649W        W37717   7.712   3.482  11.996
33650W        W37718   9.044   2.812  14.121
33651W        W37719   8.079   2.297  11.480
33652W        W37720   9.759   1.682  12.701
33653W        W37721  10.039   1.481  13.100
33654W        W37722   9.244   2.155  13.034
33655W        W37723   9.714   2.529  11.166
33656W        W37724   9.386   0.550  12.494
33657W        W37725  10.865   0.828  11.762
33658W        W37726   7.359   3.417  13.793
33659W        W37727   7.776   2.643  13.325
33660W        W37728   7.343   3.489  11.557
33661W        W37729   9.242   0.759  13.363
33662W        W37730   8.605   2.782  11.212
33663W        W37731  10.510   3.164  11.398
33664W        W37732   9.485   1.817  11.412
33665W        W37733   8.328   1.008  11.929
33666W        W37734   9.160   0.918  10.981
33667W        W37735   9.744   2.483  14.159
33668W        W37736  10.097   0.389  11.776
33669W        W37737   7.427   0.237  11.224
33670W        W37738   8.713   2.556  13.514
33671W        W37739   8.512   2.472  12.606
33672W        W37740   8.254   2.424  11.004
33673W        W37741   7.495   2.665  11.772
33674W        W37742   7.999   1.735  14.214
33675W        W37743   8.703   0.295  14.400
33676W        W37744   9.412   0.437  13.756
33677W        W37745   8.607   0.205  12.037
33678W        W37746   9.666   0.282  11.542
33679W        W37747   7.611   0.214  13.119
33680W        W37748   7.659   1.177  12.489
33681W        W37749  10.348   0.285  12.895
33682W        W37750   7.770   0.783  11.709
33683W        W37751  10.341   0.471  13.325
33684W        W37752  10.737   1.674  11.010
33685W        W37753   8.029   0.432  12.829
33686W        W37754   9.143   1.004  13.769
33687W        W37755   7.291   0.694  11.247
33688W        W37756   8.077   2.083  13.808
33689W        W37757   9.435   1.481  12.987
33690W        W37758   9.302   3.560  11.283
33691W        W37759   7.448   2.067  10.980
33692W        W37760   8.183   2.478  14.106
33693W        W37761   7.704   1.645  13.737
33694W        W37762   8.695   1.750  13.531
33695W        W37763  10.463   0.109  13.793
33696W        W37764  10.861   1.719  13.784
33697W        W37765  10.849   1.919  11.470
33698W        W37766   9.712   2.251  11.569
33699W        W37767  10.186   3.551  11.264
33700W        W37768   9.363   1.541  14.406
33701W        W37769   7.693   2.508  14.446
33702W        W37770  10.899   0.430  14.398
33703W        W37771  10.617   1.358  13.019
33704W        W37772   8.925   3.488  14.496
33705W        W37773   8.780   0.117  11.223
33706W        W37774  10.319   2.716  11.166
33707W        W37775   8.088   0.809  14.052
33708W        W37776   8.522   2.803  13.914
33709W        W37777  10.648   0.794  13.712
33710W        W37778   9.859   3.453  11.680
33711W        W37779  10.098   2.072  13.047
33712W        W37780   8.348   0.488  13.714
33713W        W37781   8.817   1.557  14.471
33714W        W37782   8.320   2.736  11.665
33715W        W37783  10.075   2.234  11.929
33716W        W37784   7.843   0.860  13.653
33717W        W37785   9.172   2.922  12.117
33718W        W37786  10.922   1.482  12.298
33719W        W37787   9.144   0.115  14.017
33720W        W37788   9.924   2.820  13.096
33721W        W37789  10.227   3.164  12.804
33722W        W37790   9.446   2.966  11.232
33723W        W37791   7.456   2.858  14.074
33724W        W37792   8.199   0.850  13.312
33725W        W37793   8.169   0.198  12.422
33726W        W37794   9.790   1.040  13.114
33727W        W37795   8.588   2.211  11.314
33728W        W37796  10.586   2.153  12.813
33729W        W37797   7.913   2.911  14.236
33730W        W37798  10.300   3.593  12.033
33731W        W37799   8.399   0.613  12.478
33732W        W37800   8.168   2.106  12.568
33733W        W37801   8.481   3.517  13.318
33734W        W37802  10.548   3.613  14.350
33735W        W37803   9.707   1.801  13.283
33736W        W37804   7.556   1.599  11.198
33737W        W37805  10.690   3.257  11.895
33738W        W37806  10.527   0.581  11.514
33739W        W37807   8.666   0.100  13.917
33740W        W37808  10.372   2.902  12.375
33741W        W37809  10.401   1.458  12.280
33742W        W37810   8.518   1.131  12.496
33743W        W37811   8.763   1.393  13.820
33744W        W37812   9.874   2.546  13.683
33745W        W37813   8.524   1.000  13.795
33746W        W37814   8.503   3.466  12.411
33747W        W37815   7.820   3.425  14.045
33748W        W37816   7.932   2.786  11.175
33749W        W37817  10.449   2.544  11.985
33750W        W37818   8.053   1.336  13.871
33751W        W37819  10.826   1.266  11.352
33752W        W37820   8.571   2.323  11.823
33753W        W37821   9.670   1.705  13.904
33754W        W37822   9.561   1.333  13.448
33755W        W37823   8.121   1.705  13.477
33756W        W37824  10.331   3.593  13.306
33757W        W37825  10.122   0.227  14.300
33758W        W37826   7.786   0.377  13.887
33759W        W37827   8.125   1.400  12.940
33760W        W37828   8.494   1.214  11.062
33761W        W37829   7.297   2.973  13.607
33762W        W37830   8.882   1.682  13.050
33763W        W37831   8.705   0.707  11.155
33764W        W37832   7.840   1.523  11.936
33765W        W37833   7.611   3.375  13.373
33766W        W37834  10.406   1.601  11.481
33767W        W37835  10.501   0.517  14.167
33768W        W37836   9.937   2.726  12.130
33769W        W37837   7.535   1.650  14.307
33770W        W37838  10.501   0.114  11.603
33771W        W37839  10.021   2.589  11.614
33772W        W37840   8.923   1.647  11.699
33773W        W37841  10.110   0.451  11.222
33774W        W37842  10.175   1.058  13.408
33775W        W37843   7.884   1.651  12.615
33776W        W37844   8.178   2.590  12.264
33777W        W37845   9.941   1.210  12.229
33778W        W37846   8.964   0.589  12.925
33779W        W37847  10.926   2.500  13.436
33780W        W37848  10.844   0.487  12.997
33781W        W37849   7.383   3.317  12.373
33782W        W37850   7.892   2.504  11.909
33783W        W37851   7.807   0.121  14.462
33784W        W37852   8.926   2.974  14.564
33785W        W37853  10.681   1.942  12.354
33786W        W37854  10.035   2.119  11.234
33787W        W37855   9.330   3.640  13.446
33788W        W37856  10.187   2.362  14.483
33789W        W37857   9.002   0.072  11.763
33790W        W37858   9.715   0.941  12.622
33791W        W37859   7.401   2.528  12.954
33792W        W37860   8.654   0.490  11.595
33793W        W37861   8.458   1.974  14.444
33794W        W37862   9.452   0.955  12.158
33795W        W37863   9.657   2.365  13.280
33796W        W37864   7.811   2.970  13.715
33797W        W37865   8.402   2.953  14.438
33798W        W37866   8.253   0.750  11.452
33799W        W37867   9.770   0.892  11.777
33800W        W37868   9.728   3.000  14.014
33801W        W37869   8.413   1.592  12.613
33802W        W37870   8.068   3.290  13.478
33803W        W37871  10.813   3.407  11.079
33804W        W37872   7.676   2.079  14.075
33805W        W37873   9.671   2.341  12.763
33806W        W37874   8.107   1.990  12.005
33807W        W37875   8.478   2.997  13.400
33808W        W37876   8.856   0.416  12.441
33809W        W37877   7.467   2.400  11.371
33810W        W37878   8.986   1.351  11.241
33811W        W37879   7.632   1.900  12.260
33812W        W37880   8.922   0.542  13.724
33813W        W37881  10.594   0.251  11.151
33814W        W37882  10.687   1.997  14.250
33815W        W37883   9.341   3.254  14.402
33816W        W37884  10.899   2.348  13.924
33817W        W37885  10.307   3.146  14.535
33818W        W37886   8.046   3.602  13.013
33819W        W37887  10.905   2.224  11.887
33820W        W37888   9.435   1.491  12.400
33821W        W37889   9.202   0.103  12.290
33822W        W37890   8.261   3.087  12.127
33823W        W37891   8.760   0.828  13.352
33824W        W37892   8.460   0.197  12.821
33825W        W37893   7.523   3.019  11.369
33826W        W37894   9.339   2.383  12.087
33827W        W37895   8.214   3.178  13.966
33828W        W37896   7.691   2.001  11.662
33829W        W37897   7.576   0.544  12.661
33830W        W37898   9.124   2.509  12.718
33831W        W37899   7.376   0.363  11.738
33832W        W37900  10.040   1.569  13.665
33833W        W37901   9.917   0.955  11.237
33834W        W37902  10.434   2.627  12.885
33835W        W37903   9.095   3.111  12.716
33836W        W37904   8.507   3.215  11.627
33837W        W37905   9.789   0.118  11.057
33838W        W37906   7.589   3.378  12.798
33839W        W37907   9.786   1.136  14.433
33840W        W37908   7.769   0.666  14.432
33841W        W37909   7.500   1.266  11.765
33842W        W37910   8.191   1.255  11.490
33843W        W37911   9.954   1.582  14.307
33844W        W37912   8.297   1.863  13.016
33845W        W37913   9.771   0.149  12.136
33846W        W37914   8.902   3.580  12.639
33847W        W37915  10.116   3.042  13.576
33848W        W37916   9.700   3.191  12.687
33849W        W37917   9.719   2.171  12.281
33850W        W37918   9.181   0.396  11.352
33851W        W37919  10.862   0.024  12.074
33852W        W37920   8.550   1.659  11.237
33853W        W37921  10.716   0.996  12.227
33854W        W37922   9.408   2.166  11.104
33855W        W37923  10.344   2.366  13.852
33856W        W37924   9.998   3.067  11.319
33857W        W37925   8.613   0.742  14.225
33858W        W37926   8.433   1.326  13.466
33859W        W37927  10.525   2.821  13.743
33860W        W37928   9.625   0.771  14.120
33861W        W37929   7.469   1.242  13.897
33862W        W37930   9.229   1.719  13.623
33863W        W37931   7.586   2.477  12.280
33864W        W37932   7.733   1.774  13.170
33865W        W37933  10.050   2.060  13.520
33866W        W37934   9.822   3.440  14.331
33867W        W37935   9.718   1.179  13.884
33868W        W37936   9.995   3.233  12.289
33869W        W37937   8.997   2.953  13.612
33870W        W37938   8.482   3.308  12.881
33871W        W37939  10.287   2.479  13.300
33872W        W37940   9.337   2.551  14.437
33873W        W37941   7.942   2.504  12.776
33874W        W37942  10.288   2.263  12.421
33875W        W37943   9.929   3.329  13.172
33876W        W37944   7.907   3.058  13.042
33877W        W37945   8.928   1.110  14.252
33878W        W37946   9.379   3.276  11.763
33879W        W37947   8.687   2.531  14.401
33880W        W37948   8.813   2.769  11.778
33881W        W37949   8.034   1.509  11.037
33882W        W37950   7.373   3.595  17.936
33883W        W37951   7.749   2.488  17.459
33884W        W37952  10.454   2.218  15.229
33885W        W37953  10.584   3.303  17.256
33886W        W37954   8.502   3.294  14.782
33887W        W37955   8.585   1.446  15.765
33888W        W37956   8.100   1.294  15.929
33889W        W37957   9.091   2.109  15.363
33890W        W37958   8.766   3.201  17.718
33891W        W37959   7.415   0.762  17.681
33892W        W37960   8.177   0.042  17.483
33893W        W37961   9.871   0.430  16.370
33894W        W37962   9.520   1.301  14.940
33895W        W37963  10.090   0.735  18.031
33896W        W37964   7.456   0.527  17.156
33897W        W37965   7.555   3.146  18.177
33898W        W37966   9.077   2.536  14.909
33899W        W37967   7.509   1.319  16.602
33900W        W37968   8.402   1.210  17.839
33901W        W37969  10.861   1.069  16.338
33902W        W37970  10.625   2.112  17.197
33903W        W37971   8.933   1.445  16.224
33904W        W37972   9.479   2.784  16.593
33905W        W37973   7.979   2.218  16.825
33906W        W37974   7.338   1.746  16.396
33907W        W37975   8.374   1.718  17.588
33908W        W37976  10.645   1.501  17.842
33909W        W37977   8.261   2.945  16.287
33910W        W37978   9.382   2.634  17.421
33911W        W37979   8.602   1.274  16.646
33912W        W37980   8.894   2.058  16.289
33913W        W37981   9.891   2.831  18.137
33914W        W37982   8.970   2.151  18.147
33915W        W37983   8.951   1.867  17.625
33916W        W37984   7.360   1.258  18.147
33917W        W37985  10.192   2.793  17.746
33918W        W37986   7.773   0.375  15.744
33919W        W37987   8.300   2.633  16.743
33920W        W37988  10.763   2.416  16.033
33921W        W37989  10.176   0.816  16.600
33922W        W37990  10.461   0.769  14.695
33923W        W37991  10.926   1.570  17.001
33924W        W37992   8.893   3.277  16.754
33925W        W37993  10.667   2.743  15.192
33926W        W37994   7.796   3.529  14.946
33927W        W37995   8.189   3.575  15.622
33928W        W37996   7.986   0.329  17.048
33929W        W37997  10.609   1.347  17.323
33930W        W37998  10.014   1.769  15.782
33931W        W37999   9.980   1.457  14.809
33932W        W38000   9.188   2.601  16.949
33933W        W38001   8.994   0.931  16.148
33934W        W38002   9.594   3.018  17.142
33935W        W38003  10.465   1.809  15.564
33936W        W38004   9.367   0.467  15.580
33937W        W38005   8.024   3.161  15.263
33938W        W38006   7.395   0.660  15.862
33939W        W38007  10.181   1.267  16.336
33940W        W38008   7.639   2.884  16.251
33941W        W38009   8.980   3.234  15.121
33942W        W38010  10.372   1.260  14.585
33943W        W38011   7.395   3.018  16.749
33944W        W38012   8.186   2.590  17.229
33945W        W38013   8.559   1.950  15.848
33946W        W38014   8.581   0.355  16.941
33947W        W38015  10.810   0.117  16.238
33948W        W38016   8.029   1.989  14.706
33949W        W38017   7.684   1.022  14.885
33950W        W38018   7.746   2.978  15.679
33951W        W38019   8.877   2.461  15.927
33952W        W38020  10.209   3.320  17.641
33953W        W38021   9.135   0.962  15.325
33954W        W38022  10.518   3.360  16.097
33955W        W38023  10.195   1.213  17.695
33956W        W38024  10.908   2.869  15.829
33957W        W38025   9.535   2.161  17.313
33958W        W38026   7.301   1.712  15.519
33959W        W38027   8.412   2.127  17.092
33960W        W38028   9.616   1.391  15.470
33961W        W38029   9.493   1.881  15.574
33962W        W38030   7.836   1.301  17.048
33963W        W38031   7.821   1.177  17.970
33964W        W38032   7.711   0.094  16.129
33965W        W38033   9.479   0.441  16.690
33966W        W38034   9.127   0.626  17.853
33967W        W38035   9.482   0.775  15.031
33968W        W38036  10.665   3.168  17.785
33969W        W38037   9.632   0.249  17.824
33970W        W38038  10.651   2.550  17.946
33971W        W38039  10.081   0.717  17.542
33972W        W38040   9.881   0.655  15.812
33973W        W38041  10.274   1.789  18.216
33974W        W38042   8.014   3.365  16.202
33975W        W38043   8.672   1.082  15.188
33976W        W38044   8.241   0.366  17.852
33977W        W38045  10.293   0.850  15.533
33978W        W38046  10.660   1.332  15.478
33979W        W38047   8.403   3.549  17.949
33980W        W38048   8.329   0.085  15.184
33981W        W38049  10.650   0.619  16.219
33982W        W38050  10.800   2.868  14.664
33983W        W38051   7.707   2.071  16.366
33984W        W38052   9.624   0.658  14.596
33985W        W38053  10.758   2.990  16.316
33986W        W38054  10.797   0.184  17.066
33987W        W38055   9.242   1.396  17.620
33988W        W38056   9.335   2.735  15.323
33989W        W38057   9.735   2.029  18.063
33990W        W38058   9.409   0.006  16.372
33991W        W38059   8.021   0.909  16.435
33992W        W38060   7.575   2.109  17.209
33993W        W38061   9.434   3.302  15.915
33994W        W38062  10.628   0.899  16.787
33995W        W38063   9.265   3.246  17.554
33996W        W38064  10.608   2.305  14.759
33997W        W38065   9.043   1.788  15.820
33998W        W38066  10.895   0.299  17.561
33999W        W38067   9.044   2.134  17.155
34000W        W38068   9.261   1.020  16.600
34001W        W38069  10.113   1.318  15.438
34002W        W38070  10.400   1.051  15.080
34003W        W38071  10.209   3.091  15.469
34004W        W38072  10.043   2.694  16.265
34005W        W38073   9.939   1.773  15.243
34006W        W38074   9.372   1.983  16.229
34007W        W38075  10.253   1.771  16.296
34008W        W38076   7.628   0.786  16.720
34009W        W38077  10.406   1.838  17.547
34010W        W38078  10.757   3.456  16.693
34011W        W38079   8.687   2.900  16.095
34012W        W38080   9.694   3.433  17.419
34013W        W38081   9.688   0.763  17.183
34014W        W38082   8.895   3.471  17.244
34015W        W38083  10.592   0.425  15.710
34016W        W38084  10.383   1.744  17.011
34017W        W38085   7.366   1.065  17.049
34018W        W38086  10.226   0.860  16.067
34019W        W38087  10.637   1.011  17.844
34020W        W38088   9.522   2.710  16.062
34021W        W38089   8.778   3.301  15.675
34022W        W38090   7.893   0.481  14.933
34023W        W38091   8.997   0.135  16.743
34024W        W38092   8.025   3.255  14.591
34025W        W38093   8.399   1.721  15.342
34026W        W38094   9.053   2.350  17.655
34027W        W38095   8.883   0.708  15.645
34028W        W38096  10.239   0.305  16.073
34029W        W38097   9.959   3.587  16.401
34030W        W38098   9.371   3.235  16.741
34031W        W38099   8.767   2.272  16.702
34032W        W38100  10.537   2.995  16.828
34033W        W38101   8.231   0.498  15.597
34034W        W38102   8.753   2.795  16.557
34035W        W38103   8.236   0.726  14.622
34036W        W38104   9.037   1.335  17.016
34037W        W38105   9.885   0.201  16.886
34038W        W38106   7.305   2.044  16.771
34039W        W38107   9.009   1.862  14.929
34040W        W38108   8.277   0.177  14.699
34041W        W38109   9.015   1.258  15.750
34042W        W38110   9.985   0.234  17.449
34043W        W38111   8.573   2.246  17.558
34044W        W38112   9.377   2.028  17.775
34045W        W38113   9.994   2.058  17.668
34046W        W38114   9.278   0.198  18.173
34047W        W38115   8.500   0.814  16.566
34048W        W38116   7.926   0.770  15.964
34049W        W38117   7.712   3.482  15.640
34050W        W38118   9.044   2.812  17.765
34051W        W38119   8.079   2.297  15.124
34052W        W38120   9.759   1.682  16.345
34053W        W38121  10.039   1.481  16.744
34054W        W38122   9.244   2.155  16.678
34055W        W38123   9.714   2.529  14.810
34056W        W38124   9.386   0.550  16.138
34057W        W38125  10.865   0.828  15.406
34058W        W38126   7.359   3.417  17.437
34059W        W38127   7.776   2.643  16.969
34060W        W38128   7.343   3.489  15.201
34061W        W38129   9.242   0.759  17.007
34062W        W38130   8.605   2.782  14.856
34063W        W38131  10.510   3.164  15.042
34064W        W38132   9.485   1.817  15.056
34065W        W38133   8.328   1.008  15.573
34066W        W38134   9.160   0.918  14.625
34067W        W38135   9.744   2.483  17.803
34068W        W38136  10.097   0.389  15.420
34069W        W38137   7.427   0.237  14.868
34070W        W38138   8.713   2.556  17.158
34071W        W38139   8.512   2.472  16.250
34072W        W38140   8.254   2.424  14.648
34073W        W38141   7.495   2.665  15.416
34074W        W38142   7.999   1.735  17.858
34075W        W38143   8.703   0.295  18.044
34076W        W38144   9.412   0.437  17.400
34077W        W38145   8.607   0.205  15.681
34078W        W38146   9.666   0.282  15.186
34079W        W38147   7.611   0.214  16.763
34080W        W38148   7.659   1.177  16.133
34081W        W38149  10.348   0.285  16.539
34082W        W38150   7.770   0.783  15.353
34083W        W38151  10.341   0.471  16.969
34084W        W38152  10.737   1.674  14.654
34085W        W38153   8.029   0.432  16.473
34086W        W38154   9.143   1.004  17.413
34087W        W38155   7.291   0.694  14.891
34088W        W38156   8.077   2.083  17.452
34089W        W38157   9.435   1.481  16.631
34090W        W38158   9.302   3.560  14.927
34091W        W38159   7.448   2.067  14.624
34092W        W38160   8.183   2.478  17.750
34093W        W38161   7.704   1.645  17.381
34094W        W38162   8.695   1.750  17.175
34095W        W38163  10.463   0.109  17.437
34096W        W38164  10.861   1.719  17.428
34097W        W38165  10.849   1.919  15.114
34098W        W38166   9.712   2.251  15.213
34099W        W38167  10.186   3.551  14.908
34100W        W38168   9.363   1.541  18.050
34101W        W38169   7.693   2.508  18.090
34102W        W38170  10.899   0.430  18.042
34103W        W38171  10.617   1.358  16.663
34104W        W38172   8.925   3.488  18.140
34105W        W38173   8.780   0.117  14.867
34106W        W38174  10.319   2.716  14.810
34107W        W38175   8.088   0.809  17.696
34108W        W38176   8.522   2.803  17.558
34109W        W38177  10.648   0.794  17.356
34110W        W38178   9.859   3.453  15.324
34111W        W38179  10.098   2.072  16.691
34112W        W38180   8.348   0.488  17.358
34113W        W38181   8.817   1.557  18.115
34114W        W38182   8.320   2.736  15.309
34115W        W38183  10.075   2.234  15.573
34116W        W38184   7.843   0.860  17.297
34117W        W38185   9.172   2.922  15.761
34118W        W38186  10.922   1.482  15.942
34119W        W38187   9.144   0.115  17.661
34120W        W38188   9.924   2.820  16.740
34121W        W38189  10.227   3.164  16.448
34122W        W38190   9.446   2.966  14.876
34123W        W38191   7.456   2.858  17.718
34124W        W38192   8.199   0.850  16.956
34125W        W38193   8.169   0.198  16.066
34126W        W38194   9.790   1.040  16.758
34127W        W38195   8.588   2.211  14.958
34128W        W38196  10.586   2.153  16.457
34129W        W38197   7.913   2.911  17.880
34130W        W38198  10.300   3.593  15.677
34131W        W38199   8.399   0.613  16.122
34132W        W38200   8.168   2.106  16.212
34133W        W38201   8.481   3.517  16.962
34134W        W38202  10.548   3.613  17.994
34135W        W38203   9.707   1.801  16.927
34136W        W38204   7.556   1.599  14.842
34137W        W38205  10.690   3.257  15.539
34138W        W38206  10.527   0.581  15.158
34139W        W38207   8.666   0.100  17.561
34140W        W38208  10.372   2.902  16.019
34141W        W38209  10.401   1.458  15.924
34142W        W38210   8.518   1.131  16.140
34143W        W38211   8.763   1.393  17.464
34144W        W38212   9.874   2.546  17.327
34145W        W38213   8.524   1.000  17.439
34146W        W38214   8.503   3.466  16.055
34147W        W38215   7.820   3.425  17.689
34148W        W38216   7.932   2.786  14.819
34149W        W38217  10.449   2.544  15.629
34150W        W38218   8.053   1.336  17.515
34151W        W38219  10.826   1.266  14.996
34152W        W38220   8.571   2.323  15.467
34153W        W38221   9.670   1.705  17.548
34154W        W38222   9.561   1.333  17.092
34155W        W38223   8.121   1.705  17.121
34156W        W38224  10.331   3.593  16.950
34157W        W38225  10.122   0.227  17.944
34158W        W38226   7.786   0.377  17.531
34159W        W38227   8.125   1.400  16.584
34160W        W38228   8.494   1.214  14.706
34161W        W38229   7.297   2.973  17.251
34162W        W38230   8.882   1.682  16.694
34163W        W38231   8.705   0.707  14.799
34164W        W38232   7.840   1.523  15.580
34165W        W38233   7.611   3.375  17.017
34166W        W38234  10.406   1.601  15.125
34167W        W38235  10.501   0.517  17.811
34168W        W38236   9.937   2.726  15.774
34169W        W38237   7.535   1.650  17.951
34170W        W38238  10.501   0.114  15.247
34171W        W38239  10.021   2.589  15.258
34172W        W38240   8.923   1.647  15.343
34173W        W38241  10.110   0.451  14.866
34174W        W38242  10.175   1.058  17.052
34175W        W38243   7.884   1.651  16.259
34176W        W38244   8.178   2.590  15.908
34177W        W38245   9.941   1.210  15.873
34178W        W38246   8.964   0.589  16.569
34179W        W38247  10.926   2.500  17.080
34180W        W38248  10.844   0.487  16.641
34181W        W38249   7.383   3.317  16.017
34182W        W38250   7.892   2.504  15.553
34183W        W38251   7.807   0.121  18.106
34184W        W38252   8.926   2.974  18.208
34185W        W38253  10.681   1.942  15.998
34186W        W38254  10.035   2.119  14.878
34187W        W38255   9.330   3.640  17.090
34188W        W38256  10.187   2.362  18.127
34189W        W38257   9.002   0.072  15.407
34190W        W38258   9.715   0.941  16.266
34191W        W38259   7.401   2.528  16.598
34192W        W38260   8.654   0.490  15.239
34193W        W38261   8.458   1.974  18.088
34194W        W38262   9.452   0.955  15.802
34195W        W38263   9.657   2.365  16.924
34196W        W38264   7.811   2.970  17.359
34197W        W38265   8.402   2.953  18.082
34198W        W38266   8.253   0.750  15.096
34199W        W38267   9.770   0.892  15.421
34200W        W38268   9.728   3.000  17.658
34201W        W38269   8.413   1.592  16.257
34202W        W38270   8.068   3.290  17.122
34203W        W38271  10.813   3.407  14.723
34204W        W38272   7.676   2.079  17.719
34205W        W38273   9.671   2.341  16.407
34206W        W38274   8.107   1.990  15.649
34207W        W38275   8.478   2.997  17.044
34208W        W38276   8.856   0.416  16.085
34209W        W38277   7.467   2.400  15.015
34210W        W38278   8.986   1.351  14.885
34211W        W38279   7.632   1.900  15.904
34212W        W38280   8.922   0.542  17.368
34213W        W38281  10.594   0.251  14.795
34214W        W38282  10.687   1.997  17.894
34215W        W38283   9.341   3.254  18.046
34216W        W38284  10.899   2.348  17.568
34217W        W38285  10.307   3.146  18.179
34218W        W38286   8.046   3.602  16.657
34219W        W38287  10.905   2.224  15.531
34220W        W38288   9.435   1.491  16.044
34221W        W38289   9.202   0.103  15.934
34222W        W38290   8.261   3.087  15.771
34223W        W38291   8.760   0.828  16.996
34224W        W38292   8.460   0.197  16.465
34225W        W38293   7.523   3.019  15.013
34226W        W38294   9.339   2.383  15.731
34227W        W38295   8.214   3.178  17.610
34228W        W38296   7.691   2.001  15.306
34229W        W38297   7.576   0.544  16.305
34230W        W38298   9.124   2.509  16.362
34231W        W38299   7.376   0.363  15.382
34232W        W38300  10.040   1.569  17.309
34233W        W38301   9.917   0.955  14.881
34234W        W38302  10.434   2.627  16.529
34235W        W38303   9.095   3.111  16.360
34236W        W38304   8.507   3.215  15.271
34237W        W38305   9.789   0.118  14.701
34238W        W38306   7.589   3.378  16.442
34239W        W38307   9.786   1.136  18.077
34240W        W38308   7.769   0.666  18.076
34241W        W38309   7.500   1.266  15.409
34242W        W38310   8.191   1.255  15.134
34243W        W38311   9.954   1.582  17.951
34244W        W38312   8.297   1.863  16.660
34245W        W38313   9.771   0.149  15.780
34246W        W38314   8.902   3.580  16.283
34247W        W38315  10.116   3.042  17.220
34248W        W38316   9.700   3.191  16.331
34249W        W38317   9.719   2.171  15.925
34250W        W38318   9.181   0.396  14.996
34251W        W38319  10.862   0.024  15.718
34252W        W38320   8.550   1.659  14.881
34253W        W38321  10.716   0.996  15.871
34254W        W38322   9.408   2.166  14.748
34255W        W38323  10.344   2.366  17.496
34256W        W38324   9.998   3.067  14.963
34257W        W38325   8.613   0.742  17.869
34258W        W38326   8.433   1.326  17.110
34259W        W38327  10.525   2.821  17.387
34260W        W38328   9.625   0.771  17.764
34261W        W38329   7.469   1.242  17.541
34262W        W38330   9.229   1.719  17.267
34263W        W38331   7.586   2.477  15.924
34264W        W38332   7.733   1.774  16.814
34265W        W38333  10.050   2.060  17.164
34266W        W38334   9.822   3.440  17.975
34267W        W38335   9.718   1.179  17.528
34268W        W38336   9.995   3.233  15.933
34269W        W38337   8.997   2.953  17.256
34270W        W38338   8.482   3.308  16.525
34271W        W38339  10.287   2.479  16.944
34272W        W38340   9.337   2.551  18.081
34273W        W38341   7.942   2.504  16.420
34274W        W38342  10.288   2.263  16.065
34275W        W38343   9.929   3.329  16.816
34276W        W38344   7.907   3.058  16.686
34277W        W38345   8.928   1.110  17.896
34278W        W38346   9.379   3.276  15.407
34279W        W38347   8.687   2.531  18.045
34280W        W38348   8.813   2.769  15.422
34281W        W38349   8.034   1.509  14.681
34282W        W38350   7.373   3.595  21.580
34283W        W38351   7.749   2.488  21.103
34284W        W38352  10.454   2.218  18.873
34285W        W38353  10.584   3.303  20.900
34286W        W38354   8.502   3.294  18.426
34287W        W38355   8.585   1.446  19.409
34288W        W38356   8.100   1.294  19.573
34289W        W38357   9.091   2.109  19.007
34290W        W38358   8.766   3.201  21.362
34291W        W38359   7.415   0.762  21.325
34292W        W38360   8.177   0.042  21.127
34293W        W38361   9.871   0.430  20.014
34294W        W38362   9.520   1.301  18.584
34295W        W38363  10.090   0.735  21.675
34296W        W38364   7.456   0.527  20.800
34297W        W38365   7.555   3.146  21.821
34298W        W38366   9.077   2.536  18.553
34299W        W38367   7.509   1.319  20.246
34300W        W38368   8.402   1.210  21.483
34301W        W38369  10.861   1.069  19.982
34302W        W38370  10.625   2.112  20.841
34303W        W38371   8.933   1.445  19.868
34304W        W38372   9.479   2.784  20.237
34305W        W38373   7.979   2.218  20.469
34306W        W38374   7.338   1.746  20.040
34307W        W38375   8.374   1.718  21.232
34308W        W38376  10.645   1.501  21.486
34309W        W38377   8.261   2.945  19.931
34310W        W38378   9.382   2.634  21.065
34311W        W38379   8.602   1.274  20.290
34312W        W38380   8.894   2.058  19.933
34313W        W38381   9.891   2.831  21.781
34314W        W38382   8.970   2.151  21.791
34315W        W38383   8.951   1.867  21.269
34316W        W38384   7.360   1.258  21.791
34317W        W38385  10.192   2.793  21.390
34318W        W38386   7.773   0.375  19.388
34319W        W38387   8.300   2.633  20.387
34320W        W38388  10.763   2.416  19.677
34321W        W38389  10.176   0.816  20.244
34322W        W38390  10.461   0.769  18.339
34323W        W38391  10.926   1.570  20.645
34324W        W38392   8.893   3.277  20.398
34325W        W38393  10.667   2.743  18.836
34326W        W38394   7.796   3.529  18.590
34327W        W38395   8.189   3.575  19.266
34328W        W38396   7.986   0.329  20.692
34329W        W38397  10.609   1.347  20.967
34330W        W38398  10.014   1.769  19.426
34331W        W38399   9.980   1.457  18.453
34332W        W38400   9.188   2.601  20.593
34333W        W38401   8.994   0.931  19.792
34334W        W38402   9.594   3.018  20.786
34335W        W38403  10.465   1.809  19.208
34336W        W38404   9.367   0.467  19.224
34337W        W38405   8.024   3.161  18.907
34338W        W38406   7.395   0.660  19.506
34339W        W38407  10.181   1.267  19.980
34340W        W38408   7.639   2.884  19.895
34341W        W38409   8.980   3.234  18.765
34342W        W38410  10.372   1.260  18.229
34343W        W38411   7.395   3.018  20.393
34344W        W38412   8.186   2.590  20.873
34345W        W38413   8.559   1.950  19.492
34346W        W38414   8.581   0.355  20.585
34347W        W38415  10.810   0.117  19.882
34348W        W38416   8.029   1.989  18.350
34349W        W38417   7.684   1.022  18.529
34350W        W38418   7.746   2.978  19.323
34351W        W38419   8.877   2.461  19.571
34352W        W38420  10.209   3.320  21.285
34353W        W38421   9.135   0.962  18.969
34354W        W38422  10.518   3.360  19.741
34355W        W38423  10.195   1.213  21.339
34356W        W38424  10.908   2.869  19.473
34357W        W38425   9.535   2.161  20.957
34358W        W38426   7.301   1.712  19.163
34359W        W38427   8.412   2.127  20.736
34360W        W38428   9.616   1.391  19.114
34361W        W38429   9.493   1.881  19.218
34362W        W38430   7.836   1.301  20.692
34363W        W38431   7.821   1.177  21.614
34364W        W38432   7.711   0.094  19.773
34365W        W38433   9.479   0.441  20.334
34366W        W38434   9.127   0.626  21.497
34367W        W38435   9.482   0.775  18.675
34368W        W38436  10.665   3.168  21.429
34369W        W38437   9.632   0.249  21.468
34370W        W38438  10.651   2.550  21.590
34371W        W38439  10.081   0.717  21.186
34372W        W38440   9.881   0.655  19.456
34373W        W38441  10.274   1.789  21.860
34374W        W38442   8.014   3.365  19.846
34375W        W38443   8.672   1.082  18.832
34376W        W38444   8.241   0.366  21.496
34377W        W38445  10.293   0.850  19.177
34378W        W38446  10.660   1.332  19.122
34379W        W38447   8.403   3.549  21.593
34380W        W38448   8.329   0.085  18.828
34381W        W38449  10.650   0.619  19.863
34382W        W38450  10.800   2.868  18.308
34383W        W38451   7.707   2.071  20.010
34384W        W38452   9.624   0.658  18.240
34385W        W38453  10.758   2.990  19.960
34386W        W38454  10.797   0.184  20.710
34387W        W38455   9.242   1.396  21.264
34388W        W38456   9.335   2.735  18.967
34389W        W38457   9.735   2.029  21.707
34390W        W38458   9.409   0.006  20.016
34391W        W38459   8.021   0.909  20.079
34392W        W38460   7.575   2.109  20.853
34393W        W38461   9.434   3.302  19.559
34394W        W38462  10.628   0.899  20.431
34395W        W38463   9.265   3.246  21.198
34396W        W38464  10.608   2.305  18.403
34397W        W38465   9.043   1.788  19.464
34398W        W38466  10.895   0.299  21.205
34399W        W38467   9.044   2.134  20.799
34400W        W38468   9.261   1.020  20.244
34401W        W38469  10.113   1.318  19.082
34402W        W38470  10.400   1.051  18.724
34403W        W38471  10.209   3.091  19.113
34404W        W38472  10.043   2.694  19.909
34405W        W38473   9.939   1.773  18.887
34406W        W38474   9.372   1.983  19.873
34407W        W38475  10.253   1.771  19.940
34408W        W38476   7.628   0.786  20.364
34409W        W38477  10.406   1.838  21.191
34410W        W38478  10.757   3.456  20.337
34411W        W38479   8.687   2.900  19.739
34412W        W38480   9.694   3.433  21.063
34413W        W38481   9.688   0.763  20.827
34414W        W38482   8.895   3.471  20.888
34415W        W38483  10.592   0.425  19.354
34416W        W38484  10.383   1.744  20.655
34417W        W38485   7.366   1.065  20.693
34418W        W38486  10.226   0.860  19.711
34419W        W38487  10.637   1.011  21.488
34420W        W38488   9.522   2.710  19.706
34421W        W38489   8.778   3.301  19.319
34422W        W38490   7.893   0.481  18.577
34423W        W38491   8.997   0.135  20.387
34424W        W38492   8.025   3.255  18.235
34425W        W38493   8.399   1.721  18.986
34426W        W38494   9.053   2.350  21.299
34427W        W38495   8.883   0.708  19.289
34428W        W38496  10.239   0.305  19.717
34429W        W38497   9.959   3.587  20.045
34430W        W38498   9.371   3.235  20.385
34431W        W38499   8.767   2.272  20.346
34432W        W38500  10.537   2.995  20.472
34433W        W38501   8.231   0.498  19.241
34434W        W38502   8.753   2.795  20.201
34435W        W38503   8.236   0.726  18.266
34436W        W38504   9.037   1.335  20.660
34437W        W38505   9.885   0.201  20.530
34438W        W38506   7.305   2.044  20.415
34439W        W38507   9.009   1.862  18.573
34440W        W38508   8.277   0.177  18.343
34441W        W38509   9.015   1.258  19.394
34442W        W38510   9.985   0.234  21.093
34443W        W38511   8.573   2.246  21.202
34444W        W38512   9.377   2.028  21.419
34445W        W38513   9.994   2.058  21.312
34446W        W38514   9.278   0.198  21.817
34447W        W38515   8.500   0.814  20.210
34448W        W38516   7.926   0.770  19.608
34449W        W38517   7.712   3.482  19.284
34450W        W38518   9.044   2.812  21.409
34451W        W38519   8.079   2.297  18.768
34452W        W38520   9.759   1.682  19.989
34453W        W38521  10.039   1.481  20.388
34454W        W38522   9.244   2.155  20.322
34455W        W38523   9.714   2.529  18.454
34456W        W38524   9.386   0.550  19.782
34457W        W38525  10.865   0.828  19.050
34458W        W38526   7.359   3.417  21.081
34459W        W38527   7.776   2.643  20.613
34460W        W38528   7.343   3.489  18.845
34461W        W38529   9.242   0.759  20.651
34462W        W38530   8.605   2.782  18.500
34463W        W38531  10.510   3.164  18.686
34464W        W38532   9.485   1.817  18.700
34465W        W38533   8.328   1.008  19.217
34466W        W38534   9.160   0.918  18.269
34467W        W38535   9.744   2.483  21.447
34468W        W38536  10.097   0.389  19.064
34469W        W38537   7.427   0.237  18.512
34470W        W38538   8.713   2.556  20.802
34471W        W38539   8.512   2.472  19.894
34472W        W38540   8.254   2.424  18.292
34473W        W38541   7.495   2.665  19.060
34474W        W38542   7.999   1.735  21.502
34475W        W38543   8.703   0.295  21.688
34476W        W38544   9.412   0.437  21.044
34477W        W38545   8.607   0.205  19.325
34478W        W38546   9.666   0.282  18.830
34479W        W38547   7.611   0.214  20.407
34480W        W38548   7.659   1.177  19.777
34481W        W38549  10.348   0.285  20.183
34482W        W38550   7.770   0.783  18.997
34483W        W38551  10.341   0.471  20.613
34484W        W38552  10.737   1.674  18.298
34485W        W38553   8.029   0.432  20.117
34486W        W38554   9.143   1.004  21.057
34487W        W38555   7.291   0.694  18.535
34488W        W38556   8.077   2.083  21.096
34489W        W38557   9.435   1.481  20.275
34490W        W38558   9.302   3.560  18.571
34491W        W38559   7.448   2.067  18.268
34492W        W38560   8.183   2.478  21.394
34493W        W38561   7.704   1.645  21.025
34494W        W38562   8.695   1.750  20.819
34495W        W38563  10.463   0.109  21.081
34496W        W38564  10.861   1.719  21.072
34497W        W38565  10.849   1.919  18.758
34498W        W38566   9.712   2.251  18.857
34499W        W38567  10.186   3.551  18.552
34500W        W38568   9.363   1.541  21.694
34501W        W38569   7.693   2.508  21.734
34502W        W38570  10.899   0.430  21.686
34503W        W38571  10.617   1.358  20.307
34504W        W38572   8.925   3.488  21.784
34505W        W38573   8.780   0.117  18.511
34506W        W38574  10.319   2.716  18.454
34507W        W38575   8.088   0.809  21.340
34508W        W38576   8.522   2.803  21.202
34509W        W38577  10.648   0.794  21.000
34510W        W38578   9.859   3.453  18.968
34511W        W38579  10.098   2.072  20.335
34512W        W38580   8.348   0.488  21.002
34513W        W38581   8.817   1.557  21.759
34514W        W38582   8.320   2.736  18.953
34515W        W38583  10.075   2.234  19.217
34516W        W38584   7.843   0.860  20.941
34517W        W38585   9.172   2.922  19.405
34518W        W38586  10.922   1.482  19.586
34519W        W38587   9.144   0.115  21.305
34520W        W38588   9.924   2.820  20.384
34521W        W38589  10.227   3.164  20.092
34522W        W38590   9.446   2.966  18.520
34523W        W38591   7.456   2.858  21.362
34524W        W38592   8.199   0.850  20.600
34525W        W38593   8.169   0.198  19.710
34526W        W38594   9.790   1.040  20.402
34527W        W38595   8.588   2.211  18.602
34528W        W38596  10.586   2.153  20.101
34529W        W38597   7.913   2.911  21.524
34530W        W38598  10.300   3.593  19.321
34531W        W38599   8.399   0.613  19.766
34532W        W38600   8.168   2.106  19.856
34533W        W38601   8.481   3.517  20.606
34534W        W38602  10.548   3.613  21.638
34535W        W38603   9.707   1.801  20.571
34536W        W38604   7.556   1.599  18.486
34537W        W38605  10.690   3.257  19.183
34538W        W38606  10.527   0.581  18.802
34539W        W38607   8.666   0.100  21.205
34540W        W38608  10.372   2.902  19.663
34541W        W38609  10.401   1.458  19.568
34542W        W38610   8.518   1.131  19.784
34543W        W38611   8.763   1.393  21.108
34544W        W38612   9.874   2.546  20.971
34545W        W38613   8.524   1.000  21.083
34546W        W38614   8.503   3.466  19.699
34547W        W38615   7.820   3.425  21.333
34548W        W38616   7.932   2.786  18.463
34549W        W38617  10.449   2.544  19.273
34550W        W38618   8.053   1.336  21.159
34551W        W38619  10.826   1.266  18.640
34552W        W38620   8.571   2.323  19.111
34553W        W38621   9.670   1.705  21.192
34554W        W38622   9.561   1.333  20.736
34555W        W38623   8.121   1.705  20.765
34556W        W38624  10.331   3.593  20.594
34557W        W38625  10.122   0.227  21.588
34558W        W38626   7.786   0.377  21.175
34559W        W38627   8.125   1.400  20.228
34560W        W38628   8.494   1.214  18.350
34561W        W38629   7.297   2.973  20.895
34562W        W38630   8.882   1.682  20.338
34563W        W38631   8.705   0.707  18.443
34564W        W38632   7.840   1.523  19.224
34565W        W38633   7.611   3.375  20.661
34566W        W38634  10.406   1.601  18.769
34567W        W38635  10.501   0.517  21.455
34568W        W38636   9.937   2.726  19.418
34569W        W38637   7.535   1.650  21.595
34570W        W38638  10.501   0.114  18.891
34571W        W38639  10.021   2.589  18.902
34572W        W38640   8.923   1.647  18.987
34573W        W38641  10.110   0.451  18.510
34574W        W38642  10.175   1.058  20.696
34575W        W38643   7.884   1.651  19.903
34576W        W38644   8.178   2.590  19.552
34577W        W38645   9.941   1.210  19.517
34578W        W38646   8.964   0.589  20.213
34579W        W38647  10.926   2.500  20.724
34580W        W38648  10.844   0.487  20.285
34581W        W38649   7.383   3.317  19.661
34582W        W38650   7.892   2.504  19.197
34583W        W38651   7.807   0.121  21.750
34584W        W38652   8.926   2.974  21.852
34585W        W38653  10.681   1.942  19.642
34586W        W38654  10.035   2.119  18.522
34587W        W38655   9.330   3.640  20.734
34588W        W38656  10.187   2.362  21.771
34589W        W38657   9.002   0.072  19.051
34590W        W38658   9.715   0.941  19.910
34591W        W38659   7.401   2.528  20.242
34592W        W38660   8.654   0.490  18.883
34593W        W38661   8.458   1.974  21.732
34594W        W38662   9.452   0.955  19.446
34595W        W38663   9.657   2.365  20.568
34596W        W38664   7.811   2.970  21.003
34597W        W38665   8.402   2.953  21.726
34598W        W38666   8.253   0.750  18.740
34599W        W38667   9.770   0.892  19.065
34600W        W38668   9.728   3.000  21.302
34601W        W38669   8.413   1.592  19.901
34602W        W38670   8.068   3.290  20.766
34603W        W38671  10.813   3.407  18.367
34604W        W38672   7.676   2.079  21.363
34605W        W38673   9.671   2.341  20.051
34606W        W38674   8.107   1.990  19.293
34607W        W38675   8.478   2.997  20.688
34608W        W38676   8.856   0.416  19.729
34609W        W38677   7.467   2.400  18.659
34610W        W38678   8.986   1.351  18.529
34611W        W38679   7.632   1.900  19.548
34612W        W38680   8.922   0.542  21.012
34613W        W38681  10.594   0.251  18.439
34614W        W38682  10.687   1.997  21.538
34615W        W38683   9.341   3.254  21.690
34616W        W38684  10.899   2.348  21.212
34617W        W38685  10.307   3.146  21.823
34618W        W38686   8.046   3.602  20.301
34619W        W38687  10.905   2.224  19.175
34620W        W38688   9.435   1.491  19.688
34621W        W38689   9.202   0.103  19.578
34622W        W38690   8.261   3.087  19.415
34623W        W38691   8.760   0.828  20.640
34624W        W38692   8.460   0.197  20.109
34625W        W38693   7.523   3.019  18.657
34626W        W38694   9.339   2.383  19.375
34627W        W38695   8.214   3.178  21.254
34628W        W38696   7.691   2.001  18.950
34629W        W38697   7.576   0.544  19.949
34630W        W38698   9.124   2.509  20.006
34631W        W38699   7.376   0.363  19.026
34632W        W38700  10.040   1.569  20.953
34633W        W38701   9.917   0.955  18.525
34634W        W38702  10.434   2.627  20.173
34635W        W38703   9.095   3.111  20.004
34636W        W38704   8.507   3.215  18.915
34637W        W38705   9.789   0.118  18.345
34638W        W38706   7.589   3.378  20.086
34639W        W38707   9.786   1.136  21.721
34640W        W38708   7.769   0.666  21.720
34641W        W38709   7.500   1.266  19.053
34642W        W38710   8.191   1.255  18.778
34643W        W38711   9.954   1.582  21.595
34644W        W38712   8.297   1.863  20.304
34645W        W38713   9.771   0.149  19.424
34646W        W38714   8.902   3.580  19.927
34647W        W38715  10.116   3.042  20.864
34648W        W38716   9.700   3.191  19.975
34649W        W38717   9.719   2.171  19.569
34650W        W38718   9.181   0.396  18.640
34651W        W38719  10.862   0.024  19.362
34652W        W38720   8.550   1.659  18.525
34653W        W38721  10.716   0.996  19.515
34654W        W38722   9.408   2.166  18.392
34655W        W38723  10.344   2.366  21.140
34656W        W38724   9.998   3.067  18.607
34657W        W38725   8.613   0.742  21.513
34658W        W38726   8.433   1.326  20.754
34659W        W38727  10.525   2.821  21.031
34660W        W38728   9.625   0.771  21.408
34661W        W38729   7.469   1.242  21.185
34662W        W38730   9.229   1.719  20.911
34663W        W38731   7.586   2.477  19.568
34664W        W38732   7.733   1.774  20.458
34665W        W38733  10.050   2.060  20.808
34666W        W38734   9.822   3.440  21.619
34667W        W38735   9.718   1.179  21.172
34668W        W38736   9.995   3.233  19.577
34669W        W38737   8.997   2.953  20.900
34670W        W38738   8.482   3.308  20.169
34671W        W38739  10.287   2.479  20.588
34672W        W38740   9.337   2.551  21.725
34673W        W38741   7.942   2.504  20.064
34674W        W38742  10.288   2.263  19.709
34675W        W38743   9.929   3.329  20.460
34676W        W38744   7.907   3.058  20.330
34677W        W38745   8.928   1.110  21.540
34678W        W38746   9.379   3.276  19.051
34679W        W38747   8.687   2.531  21.689
34680W        W38748   8.813   2.769  19.066
34681W        W38749   8.034   1.509  18.325
34682W        W38750  10.454   2.218  22.518
34683W        W38751   8.502   3.294  22.071
34684W        W38752   8.585   1.446  23.054
34685W        W38753   8.100   1.294  23.218
34686W        W38754   9.091   2.109  22.652
34687W        W38755   9.520   1.301  22.229
34688W        W38756   9.077   2.536  22.198
34689W        W38757   7.773   0.375  23.033
34690W        W38758  10.461   0.769  21.984
34691W        W38759  10.667   2.743  22.481
34692W        W38760   7.796   3.529  22.235
34693W        W38761   8.189   3.575  22.911
34694W        W38762  10.014   1.769  23.071
34695W        W38763   9.980   1.457  22.098
34696W        W38764  10.465   1.809  22.853
34697W        W38765   9.367   0.467  22.869
34698W        W38766   8.024   3.161  22.552
34699W        W38767   8.980   3.234  22.410
34700W        W38768  10.372   1.260  21.874
34701W        W38769   8.559   1.950  23.137
34702W        W38770   8.029   1.989  21.995
34703W        W38771   7.684   1.022  22.174
34704W        W38772   7.746   2.978  22.968
34705W        W38773   8.877   2.461  23.216
34706W        W38774   9.135   0.962  22.614
34707W        W38775   7.301   1.712  22.808
34708W        W38776   9.616   1.391  22.759
34709W        W38777   9.493   1.881  22.863
34710W        W38778   9.482   0.775  22.320
34711W        W38779   9.881   0.655  23.101
34712W        W38780   8.672   1.082  22.477
34713W        W38781  10.293   0.850  22.822
34714W        W38782  10.660   1.332  22.767
34715W        W38783   8.329   0.085  22.473
34716W        W38784  10.800   2.868  21.953
34717W        W38785   9.624   0.658  21.885
34718W        W38786   9.335   2.735  22.612
34719W        W38787   9.434   3.302  23.204
34720W        W38788  10.608   2.305  22.048
34721W        W38789   9.043   1.788  23.109
34722W        W38790  10.113   1.318  22.727
34723W        W38791  10.400   1.051  22.369
34724W        W38792  10.209   3.091  22.758
34725W        W38793   9.939   1.773  22.532
34726W        W38794  10.592   0.425  22.999
34727W        W38795   8.778   3.301  22.964
34728W        W38796   7.893   0.481  22.222
34729W        W38797   8.025   3.255  21.880
34730W        W38798   8.399   1.721  22.631
34731W        W38799   8.883   0.708  22.934
34732W        W38800   8.231   0.498  22.886
34733W        W38801   8.236   0.726  21.911
34734W        W38802   9.009   1.862  22.218
34735W        W38803   8.277   0.177  21.988
34736W        W38804   9.015   1.258  23.039
34737W        W38805   7.926   0.770  23.253
34738W        W38806   7.712   3.482  22.929
34739W        W38807   8.079   2.297  22.413
34740W        W38808   9.714   2.529  22.099
34741W        W38809  10.865   0.828  22.695
34742W        W38810   7.343   3.489  22.490
34743W        W38811   8.605   2.782  22.145
34744W        W38812  10.510   3.164  22.331
34745W        W38813   9.485   1.817  22.345
34746W        W38814   8.328   1.008  22.862
34747W        W38815   9.160   0.918  21.914
34748W        W38816  10.097   0.389  22.709
34749W        W38817   7.427   0.237  22.157
34750W        W38818   8.254   2.424  21.937
34751W        W38819   7.495   2.665  22.705
34752W        W38820   8.607   0.205  22.970
34753W        W38821   9.666   0.282  22.475
34754W        W38822   7.770   0.783  22.642
34755W        W38823  10.737   1.674  21.943
34756W        W38824   7.291   0.694  22.180
34757W        W38825   9.302   3.560  22.216
34758W        W38826   7.448   2.067  21.913
34759W        W38827  10.849   1.919  22.403
34760W        W38828   9.712   2.251  22.502
34761W        W38829  10.186   3.551  22.197
34762W        W38830   8.780   0.117  22.156
34763W        W38831  10.319   2.716  22.099
34764W        W38832   9.859   3.453  22.613
34765W        W38833   8.320   2.736  22.598
34766W        W38834  10.075   2.234  22.862
34767W        W38835   9.172   2.922  23.050
34768W        W38836  10.922   1.482  23.231
34769W        W38837   9.446   2.966  22.165
34770W        W38838   8.588   2.211  22.247
34771W        W38839  10.300   3.593  22.966
34772W        W38840   7.556   1.599  22.131
34773W        W38841  10.690   3.257  22.828
34774W        W38842  10.527   0.581  22.447
34775W        W38843  10.401   1.458  23.213
34776W        W38844   7.932   2.786  22.108
34777W        W38845  10.449   2.544  22.918
34778W        W38846  10.826   1.266  22.285
34779W        W38847   8.571   2.323  22.756
34780W        W38848   8.494   1.214  21.995
34781W        W38849   8.705   0.707  22.088
34782W        W38850   7.840   1.523  22.869
34783W        W38851  10.406   1.601  22.414
34784W        W38852   9.937   2.726  23.063
34785W        W38853  10.501   0.114  22.536
34786W        W38854  10.021   2.589  22.547
34787W        W38855   8.923   1.647  22.632
34788W        W38856  10.110   0.451  22.155
34789W        W38857   8.178   2.590  23.197
34790W        W38858   9.941   1.210  23.162
34791W        W38859   7.383   3.317  23.306
34792W        W38860   7.892   2.504  22.842
34793W        W38861  10.681   1.942  23.287
34794W        W38862  10.035   2.119  22.167
34795W        W38863   9.002   0.072  22.696
34796W        W38864   8.654   0.490  22.528
34797W        W38865   9.452   0.955  23.091
34798W        W38866   8.253   0.750  22.385
34799W        W38867   9.770   0.892  22.710
34800W        W38868  10.813   3.407  22.012
34801W        W38869   7.467   2.400  22.304
34802W        W38870   8.986   1.351  22.174
34803W        W38871   7.632   1.900  23.193
34804W        W38872  10.594   0.251  22.084
34805W        W38873  10.905   2.224  22.820
34806W        W38874   9.202   0.103  23.223
34807W        W38875   8.261   3.087  23.060
34808W        W38876   7.523   3.019  22.302
34809W        W38877   9.339   2.383  23.020
34810W        W38878   7.691   2.001  22.595
34811W        W38879   7.376   0.363  22.671
34812W        W38880   9.917   0.955  22.170
34813W        W38881   8.507   3.215  22.560
34814W        W38882   9.789   0.118  21.990
34815W        W38883   7.500   1.266  22.698
34816W        W38884   8.191   1.255  22.423
34817W        W38885   9.719   2.171  23.214
34818W        W38886   9.181   0.396  22.285
34819W        W38887  10.862   0.024  23.007
34820W        W38888   8.550   1.659  22.170
34821W        W38889  10.716   0.996  23.160
34822W        W38890   9.408   2.166  22.037
34823W        W38891   9.998   3.067  22.252
34824W        W38892   7.586   2.477  23.213
34825W        W38893   9.995   3.233  23.222
34826W        W38894   9.379   3.276  22.696
34827W        W38895   8.813   2.769  22.711
34828W        W38896   8.034   1.509  21.970
34829W        W38897   7.373   7.239   3.359
34830W        W38898   7.749   6.132   2.882
34831W        W38899  10.454   5.862   0.652
34832W        W38900  10.584   6.947   2.679
34833W        W38901   8.502   6.938   0.205
34834W        W38902   8.585   5.090   1.188
34835W        W38903   8.100   4.938   1.352
34836W        W38904   9.091   5.753   0.786
34837W        W38905   8.766   6.845   3.141
34838W        W38906   7.415   4.406   3.104
34839W        W38907   8.177   3.686   2.906
34840W        W38908   9.871   4.074   1.793
34841W        W38909   9.520   4.945   0.363
34842W        W38910  10.090   4.379   3.454
34843W        W38911   7.456   4.171   2.579
34844W        W38912   7.555   6.790   3.600
34845W        W38913   9.077   6.180   0.332
34846W        W38914   7.509   4.963   2.025
34847W        W38915   8.402   4.854   3.262
34848W        W38916  10.861   4.713   1.761
34849W        W38917  10.625   5.756   2.620
34850W        W38918   8.933   5.089   1.647
34851W        W38919   9.479   6.428   2.016
34852W        W38920   7.979   5.862   2.248
34853W        W38921   7.338   5.390   1.819
34854W        W38922   8.374   5.362   3.011
34855W        W38923  10.645   5.145   3.265
34856W        W38924   8.261   6.589   1.710
34857W        W38925   9.382   6.278   2.844
34858W        W38926   8.602   4.918   2.069
34859W        W38927   8.894   5.702   1.712
34860W        W38928   9.891   6.475   3.560
34861W        W38929   8.970   5.795   3.570
34862W        W38930   8.951   5.511   3.048
34863W        W38931   7.360   4.902   3.570
34864W        W38932  10.192   6.437   3.169
34865W        W38933   7.773   4.019   1.167
34866W        W38934   8.300   6.277   2.166
34867W        W38935  10.763   6.060   1.456
34868W        W38936  10.176   4.460   2.023
34869W        W38937  10.461   4.413   0.118
34870W        W38938  10.926   5.214   2.424
34871W        W38939   8.893   6.921   2.177
34872W        W38940  10.667   6.387   0.615
34873W        W38941   7.796   7.173   0.369
34874W        W38942   8.189   7.219   1.045
34875W        W38943   7.986   3.973   2.471
34876W        W38944  10.609   4.991   2.746
34877W        W38945  10.014   5.413   1.205
34878W        W38946   9.980   5.101   0.232
34879W        W38947   9.188   6.245   2.372
34880W        W38948   8.994   4.575   1.571
34881W        W38949   9.594   6.662   2.565
34882W        W38950  10.465   5.453   0.987
34883W        W38951   9.367   4.111   1.003
34884W        W38952   8.024   6.805   0.686
34885W        W38953   7.395   4.304   1.285
34886W        W38954  10.181   4.911   1.759
34887W        W38955   7.639   6.528   1.674
34888W        W38956   8.980   6.878   0.544
34889W        W38957  10.372   4.904   0.008
34890W        W38958   7.395   6.662   2.172
34891W        W38959   8.186   6.234   2.652
34892W        W38960   8.559   5.594   1.271
34893W        W38961   8.581   3.999   2.364
34894W        W38962  10.810   3.761   1.661
34895W        W38963   8.029   5.633   0.129
34896W        W38964   7.684   4.666   0.308
34897W        W38965   7.746   6.622   1.102
34898W        W38966   8.877   6.105   1.350
34899W        W38967  10.209   6.964   3.064
34900W        W38968   9.135   4.606   0.748
34901W        W38969  10.518   7.004   1.520
34902W        W38970  10.195   4.857   3.118
34903W        W38971  10.908   6.513   1.252
34904W        W38972   9.535   5.805   2.736
34905W        W38973   7.301   5.356   0.942
34906W        W38974   8.412   5.771   2.515
34907W        W38975   9.616   5.035   0.893
34908W        W38976   9.493   5.525   0.997
34909W        W38977   7.836   4.945   2.471
34910W        W38978   7.821   4.821   3.393
34911W        W38979   7.711   3.738   1.552
34912W        W38980   9.479   4.085   2.113
34913W        W38981   9.127   4.270   3.276
34914W        W38982   9.482   4.419   0.454
34915W        W38983  10.665   6.812   3.208
34916W        W38984   9.632   3.893   3.247
34917W        W38985  10.651   6.194   3.369
34918W        W38986  10.081   4.361   2.965
34919W        W38987   9.881   4.299   1.235
34920W        W38988  10.274   5.433   3.639
34921W        W38989   8.014   7.009   1.625
34922W        W38990   8.672   4.726   0.611
34923W        W38991   8.241   4.010   3.275
34924W        W38992  10.293   4.494   0.956
34925W        W38993  10.660   4.976   0.901
34926W        W38994   8.403   7.193   3.372
34927W        W38995   8.329   3.729   0.607
34928W        W38996  10.650   4.263   1.642
34929W        W38997  10.800   6.512   0.087
34930W        W38998   7.707   5.715   1.789
34931W        W38999   9.624   4.302   0.019
34932W        W39000  10.758   6.634   1.739
34933W        W39001   9.242   5.040   3.043
34934W        W39002   9.335   6.379   0.746
34935W        W39003   9.735   5.673   3.486
34936W        W39004   9.409   3.650   1.795
34937W        W39005   8.021   4.553   1.858
34938W        W39006   7.575   5.753   2.632
34939W        W39007   9.434   6.946   1.338
34940W        W39008  10.628   4.543   2.210
34941W        W39009   9.265   6.890   2.977
34942W        W39010  10.608   5.949   0.182
34943W        W39011   9.043   5.432   1.243
34944W        W39012  10.895   3.943   2.984
34945W        W39013   9.044   5.778   2.578
34946W        W39014   9.261   4.664   2.023
34947W        W39015  10.113   4.962   0.861
34948W        W39016  10.400   4.695   0.503
34949W        W39017  10.209   6.735   0.892
34950W        W39018  10.043   6.338   1.688
34951W        W39019   9.939   5.417   0.666
34952W        W39020   9.372   5.627   1.652
34953W        W39021  10.253   5.415   1.719
34954W        W39022   7.628   4.430   2.143
34955W        W39023  10.406   5.482   2.970
34956W        W39024  10.757   7.100   2.116
34957W        W39025   8.687   6.544   1.518
34958W        W39026   9.694   7.077   2.842
34959W        W39027   9.688   4.407   2.606
34960W        W39028   8.895   7.115   2.667
34961W        W39029  10.592   4.069   1.133
34962W        W39030  10.383   5.388   2.434
34963W        W39031   7.366   4.709   2.472
34964W        W39032  10.226   4.504   1.490
34965W        W39033  10.637   4.655   3.267
34966W        W39034   9.522   6.354   1.485
34967W        W39035   8.778   6.945   1.098
34968W        W39036   7.893   4.125   0.356
34969W        W39037   8.997   3.779   2.166
34970W        W39038   8.025   6.899   0.014
34971W        W39039   8.399   5.365   0.765
34972W        W39040   9.053   5.994   3.078
34973W        W39041   8.883   4.352   1.068
34974W        W39042  10.239   3.949   1.496
34975W        W39043   9.959   7.231   1.824
34976W        W39044   9.371   6.879   2.164
34977W        W39045   8.767   5.916   2.125
34978W        W39046  10.537   6.639   2.251
34979W        W39047   8.231   4.142   1.020
34980W        W39048   8.753   6.439   1.980
34981W        W39049   8.236   4.370   0.045
34982W        W39050   9.037   4.979   2.439
34983W        W39051   9.885   3.845   2.309
34984W        W39052   7.305   5.688   2.194
34985W        W39053   9.009   5.506   0.352
34986W        W39054   8.277   3.821   0.122
34987W        W39055   9.015   4.902   1.173
34988W        W39056   9.985   3.878   2.872
34989W        W39057   8.573   5.890   2.981
34990W        W39058   9.377   5.672   3.198
34991W        W39059   9.994   5.702   3.091
34992W        W39060   9.278   3.842   3.596
34993W        W39061   8.500   4.458   1.989
34994W        W39062   7.926   4.414   1.387
34995W        W39063   7.712   7.126   1.063
34996W        W39064   9.044   6.456   3.188
34997W        W39065   8.079   5.941   0.547
34998W        W39066   9.759   5.326   1.768
34999W        W39067  10.039   5.125   2.167
35000W        W39068   9.244   5.799   2.101
35001W        W39069   9.714   6.173   0.233
35002W        W39070   9.386   4.194   1.561
35003W        W39071  10.865   4.472   0.829
35004W        W39072   7.359   7.061   2.860
35005W        W39073   7.776   6.287   2.392
35006W        W39074   7.343   7.133   0.624
35007W        W39075   9.242   4.403   2.430
35008W        W39076   8.605   6.426   0.279
35009W        W39077  10.510   6.808   0.465
35010W        W39078   9.485   5.461   0.479
35011W        W39079   8.328   4.652   0.996
35012W        W39080   9.160   4.562   0.048
35013W        W39081   9.744   6.127   3.226
35014W        W39082  10.097   4.033   0.843
35015W        W39083   7.427   3.881   0.291
35016W        W39084   8.713   6.200   2.581
35017W        W39085   8.512   6.116   1.673
35018W        W39086   8.254   6.068   0.071
35019W        W39087   7.495   6.309   0.839
35020W        W39088   7.999   5.379   3.281
35021W        W39089   8.703   3.939   3.467
35022W        W39090   9.412   4.081   2.823
35023W        W39091   8.607   3.849   1.104
35024W        W39092   9.666   3.926   0.609
35025W        W39093   7.611   3.858   2.186
35026W        W39094   7.659   4.821   1.556
35027W        W39095  10.348   3.929   1.962
35028W        W39096   7.770   4.427   0.776
35029W        W39097  10.341   4.115   2.392
35030W        W39098  10.737   5.318   0.077
35031W        W39099   8.029   4.076   1.896
35032W        W39100   9.143   4.648   2.836
35033W        W39101   7.291   4.338   0.314
35034W        W39102   8.077   5.727   2.875
35035W        W39103   9.435   5.125   2.054
35036W        W39104   9.302   7.204   0.350
35037W        W39105   7.448   5.711   0.047
35038W        W39106   8.183   6.122   3.173
35039W        W39107   7.704   5.289   2.804
35040W        W39108   8.695   5.394   2.598
35041W        W39109  10.861   5.363   2.851
35042W        W39110  10.849   5.563   0.537
35043W        W39111   9.712   5.895   0.636
35044W        W39112  10.186   7.195   0.331
35045W        W39113   9.363   5.185   3.473
35046W        W39114   7.693   6.152   3.513
35047W        W39115  10.899   4.074   3.465
35048W        W39116  10.617   5.002   2.086
35049W        W39117   8.925   7.132   3.563
35050W        W39118   8.780   3.761   0.290
35051W        W39119  10.319   6.360   0.233
35052W        W39120   8.088   4.453   3.119
35053W        W39121   8.522   6.447   2.981
35054W        W39122  10.648   4.438   2.779
35055W        W39123   9.859   7.097   0.747
35056W        W39124  10.098   5.716   2.114
35057W        W39125   8.348   4.132   2.781
35058W        W39126   8.817   5.201   3.538
35059W        W39127   8.320   6.380   0.732
35060W        W39128  10.075   5.878   0.996
35061W        W39129   7.843   4.504   2.720
35062W        W39130   9.172   6.566   1.184
35063W        W39131  10.922   5.126   1.365
35064W        W39132   9.144   3.759   3.084
35065W        W39133   9.924   6.464   2.163
35066W        W39134  10.227   6.808   1.871
35067W        W39135   9.446   6.610   0.299
35068W        W39136   7.456   6.502   3.141
35069W        W39137   8.199   4.494   2.379
35070W        W39138   8.169   3.842   1.489
35071W        W39139   9.790   4.684   2.181
35072W        W39140   8.588   5.855   0.381
35073W        W39141  10.586   5.797   1.880
35074W        W39142   7.913   6.555   3.303
35075W        W39143  10.300   7.237   1.100
35076W        W39144   8.399   4.257   1.545
35077W        W39145   8.168   5.750   1.635
35078W        W39146   8.481   7.161   2.385
35079W        W39147  10.548   7.257   3.417
35080W        W39148   9.707   5.445   2.350
35081W        W39149   7.556   5.243   0.265
35082W        W39150  10.690   6.901   0.962
35083W        W39151  10.527   4.225   0.581
35084W        W39152   8.666   3.744   2.984
35085W        W39153  10.372   6.546   1.442
35086W        W39154  10.401   5.102   1.347
35087W        W39155   8.518   4.775   1.563
35088W        W39156   8.763   5.037   2.887
35089W        W39157   9.874   6.190   2.750
35090W        W39158   8.524   4.644   2.862
35091W        W39159   8.503   7.110   1.478
35092W        W39160   7.820   7.069   3.112
35093W        W39161   7.932   6.430   0.242
35094W        W39162  10.449   6.188   1.052
35095W        W39163   8.053   4.980   2.938
35096W        W39164  10.826   4.910   0.419
35097W        W39165   8.571   5.967   0.890
35098W        W39166   9.670   5.349   2.971
35099W        W39167   9.561   4.977   2.515
35100W        W39168   8.121   5.349   2.544
35101W        W39169  10.331   7.237   2.373
35102W        W39170  10.122   3.871   3.367
35103W        W39171   7.786   4.021   2.954
35104W        W39172   8.125   5.044   2.007
35105W        W39173   8.494   4.858   0.129
35106W        W39174   7.297   6.617   2.674
35107W        W39175   8.882   5.326   2.117
35108W        W39176   8.705   4.351   0.222
35109W        W39177   7.840   5.167   1.003
35110W        W39178   7.611   7.019   2.440
35111W        W39179  10.406   5.245   0.548
35112W        W39180  10.501   4.161   3.234
35113W        W39181   9.937   6.370   1.197
35114W        W39182   7.535   5.294   3.374
35115W        W39183  10.501   3.758   0.670
35116W        W39184  10.021   6.233   0.681
35117W        W39185   8.923   5.291   0.766
35118W        W39186  10.110   4.095   0.289
35119W        W39187  10.175   4.702   2.475
35120W        W39188   7.884   5.295   1.682
35121W        W39189   8.178   6.234   1.331
35122W        W39190   9.941   4.854   1.296
35123W        W39191   8.964   4.233   1.992
35124W        W39192  10.926   6.144   2.503
35125W        W39193  10.844   4.131   2.064
35126W        W39194   7.383   6.961   1.440
35127W        W39195   7.892   6.148   0.976
35128W        W39196   7.807   3.765   3.529
35129W        W39197   8.926   6.618   3.631
35130W        W39198  10.681   5.586   1.421
35131W        W39199  10.035   5.763   0.301
35132W        W39200   9.330   7.284   2.513
35133W        W39201  10.187   6.006   3.550
35134W        W39202   9.002   3.716   0.830
35135W        W39203   9.715   4.585   1.689
35136W        W39204   7.401   6.172   2.021
35137W        W39205   8.654   4.134   0.662
35138W        W39206   8.458   5.618   3.511
35139W        W39207   9.452   4.599   1.225
35140W        W39208   9.657   6.009   2.347
35141W        W39209   7.811   6.614   2.782
35142W        W39210   8.402   6.597   3.505
35143W        W39211   8.253   4.394   0.519
35144W        W39212   9.770   4.536   0.844
35145W        W39213   9.728   6.644   3.081
35146W        W39214   8.413   5.236   1.680
35147W        W39215   8.068   6.934   2.545
35148W        W39216  10.813   7.051   0.146
35149W        W39217   7.676   5.723   3.142
35150W        W39218   9.671   5.985   1.830
35151W        W39219   8.107   5.634   1.072
35152W        W39220   8.478   6.641   2.467
35153W        W39221   8.856   4.060   1.508
35154W        W39222   7.467   6.044   0.438
35155W        W39223   8.986   4.995   0.308
35156W        W39224   7.632   5.544   1.327
35157W        W39225   8.922   4.186   2.791
35158W        W39226  10.594   3.895   0.218
35159W        W39227  10.687   5.641   3.317
35160W        W39228   9.341   6.898   3.469
35161W        W39229  10.899   5.992   2.991
35162W        W39230  10.307   6.790   3.602
35163W        W39231   8.046   7.246   2.080
35164W        W39232  10.905   5.868   0.954
35165W        W39233   9.435   5.135   1.467
35166W        W39234   9.202   3.747   1.357
35167W        W39235   8.261   6.731   1.194
35168W        W39236   8.760   4.472   2.419
35169W        W39237   8.460   3.841   1.888
35170W        W39238   7.523   6.663   0.436
35171W        W39239   9.339   6.027   1.154
35172W        W39240   8.214   6.822   3.033
35173W        W39241   7.691   5.645   0.729
35174W        W39242   7.576   4.188   1.728
35175W        W39243   9.124   6.153   1.785
35176W        W39244   7.376   4.007   0.805
35177W        W39245  10.040   5.213   2.732
35178W        W39246   9.917   4.599   0.304
35179W        W39247  10.434   6.271   1.952
35180W        W39248   9.095   6.755   1.783
35181W        W39249   8.507   6.859   0.694
35182W        W39250   9.789   3.762   0.124
35183W        W39251   7.589   7.022   1.865
35184W        W39252   9.786   4.780   3.500
35185W        W39253   7.769   4.310   3.499
35186W        W39254   7.500   4.910   0.832
35187W        W39255   8.191   4.899   0.557
35188W        W39256   9.954   5.226   3.374
35189W        W39257   8.297   5.507   2.083
35190W        W39258   9.771   3.793   1.203
35191W        W39259   8.902   7.224   1.706
35192W        W39260  10.116   6.686   2.643
35193W        W39261   9.700   6.835   1.754
35194W        W39262   9.719   5.815   1.348
35195W        W39263   9.181   4.040   0.419
35196W        W39264  10.862   3.668   1.141
35197W        W39265   8.550   5.303   0.304
35198W        W39266  10.716   4.640   1.294
35199W        W39267   9.408   5.810   0.171
35200W        W39268  10.344   6.010   2.919
35201W        W39269   9.998   6.711   0.386
35202W        W39270   8.613   4.386   3.292
35203W        W39271   8.433   4.970   2.533
35204W        W39272  10.525   6.465   2.810
35205W        W39273   9.625   4.415   3.187
35206W        W39274   7.469   4.886   2.964
35207W        W39275   9.229   5.363   2.690
35208W        W39276   7.586   6.121   1.347
35209W        W39277   7.733   5.418   2.237
35210W        W39278  10.050   5.704   2.587
35211W        W39279   9.822   7.084   3.398
35212W        W39280   9.718   4.823   2.951
35213W        W39281   9.995   6.877   1.356
35214W        W39282   8.997   6.597   2.679
35215W        W39283   8.482   6.952   1.948
35216W        W39284  10.287   6.123   2.367
35217W        W39285   9.337   6.195   3.504
35218W        W39286   7.942   6.148   1.843
35219W        W39287  10.288   5.907   1.488
35220W        W39288   9.929   6.973   2.239
35221W        W39289   7.907   6.702   2.109
35222W        W39290   8.928   4.754   3.319
35223W        W39291   9.379   6.920   0.830
35224W        W39292   8.687   6.175   3.468
35225W        W39293   8.813   6.413   0.845
35226W        W39294   8.034   5.153   0.104
35227W        W39295   7.373   7.239   7.003
35228W        W39296   7.749   6.132   6.526
35229W        W39297  10.454   5.862   4.296
35230W        W39298  10.584   6.947   6.323
35231W        W39299   8.502   6.938   3.849
35232W        W39300   8.585   5.090   4.832
35233W        W39301   8.100   4.938   4.996
35234W        W39302   9.091   5.753   4.430
35235W        W39303   8.766   6.845   6.785
35236W        W39304   7.415   4.406   6.748
35237W        W39305   8.177   3.686   6.550
35238W        W39306   9.871   4.074   5.437
35239W        W39307   9.520   4.945   4.007
35240W        W39308  10.090   4.379   7.098
35241W        W39309   7.456   4.171   6.223
35242W        W39310   7.555   6.790   7.244
35243W        W39311   9.077   6.180   3.976
35244W        W39312   7.509   4.963   5.669
35245W        W39313   8.402   4.854   6.906
35246W        W39314  10.861   4.713   5.405
35247W        W39315  10.625   5.756   6.264
35248W        W39316   8.933   5.089   5.291
35249W        W39317   9.479   6.428   5.660
35250W        W39318   7.979   5.862   5.892
35251W        W39319   7.338   5.390   5.463
35252W        W39320   8.374   5.362   6.655
35253W        W39321  10.645   5.145   6.909
35254W        W39322   8.261   6.589   5.354
35255W        W39323   9.382   6.278   6.488
35256W        W39324   8.602   4.918   5.713
35257W        W39325   8.894   5.702   5.356
35258W        W39326   9.891   6.475   7.204
35259W        W39327   8.970   5.795   7.214
35260W        W39328   8.951   5.511   6.692
35261W        W39329   7.360   4.902   7.214
35262W        W39330  10.192   6.437   6.813
35263W        W39331   7.773   4.019   4.811
35264W        W39332   8.300   6.277   5.810
35265W        W39333  10.763   6.060   5.100
35266W        W39334  10.176   4.460   5.667
35267W        W39335  10.461   4.413   3.762
35268W        W39336  10.926   5.214   6.068
35269W        W39337   8.893   6.921   5.821
35270W        W39338  10.667   6.387   4.259
35271W        W39339   7.796   7.173   4.013
35272W        W39340   8.189   7.219   4.689
35273W        W39341   7.986   3.973   6.115
35274W        W39342  10.609   4.991   6.390
35275W        W39343  10.014   5.413   4.849
35276W        W39344   9.980   5.101   3.876
35277W        W39345   9.188   6.245   6.016
35278W        W39346   8.994   4.575   5.215
35279W        W39347   9.594   6.662   6.209
35280W        W39348  10.465   5.453   4.631
35281W        W39349   9.367   4.111   4.647
35282W        W39350   8.024   6.805   4.330
35283W        W39351   7.395   4.304   4.929
35284W        W39352  10.181   4.911   5.403
35285W        W39353   7.639   6.528   5.318
35286W        W39354   8.980   6.878   4.188
35287W        W39355  10.372   4.904   3.652
35288W        W39356   7.395   6.662   5.816
35289W        W39357   8.186   6.234   6.296
35290W        W39358   8.559   5.594   4.915
35291W        W39359   8.581   3.999   6.008
35292W        W39360  10.810   3.761   5.305
35293W        W39361   8.029   5.633   3.773
35294W        W39362   7.684   4.666   3.952
35295W        W39363   7.746   6.622   4.746
35296W        W39364   8.877   6.105   4.994
35297W        W39365  10.209   6.964   6.708
35298W        W39366   9.135   4.606   4.392
35299W        W39367  10.518   7.004   5.164
35300W        W39368  10.195   4.857   6.762
35301W        W39369  10.908   6.513   4.896
35302W        W39370   9.535   5.805   6.380
35303W        W39371   7.301   5.356   4.586
35304W        W39372   8.412   5.771   6.159
35305W        W39373   9.616   5.035   4.537
35306W        W39374   9.493   5.525   4.641
35307W        W39375   7.836   4.945   6.115
35308W        W39376   7.821   4.821   7.037
35309W        W39377   7.711   3.738   5.196
35310W        W39378   9.479   4.085   5.757
35311W        W39379   9.127   4.270   6.920
35312W        W39380   9.482   4.419   4.098
35313W        W39381  10.665   6.812   6.852
35314W        W39382   9.632   3.893   6.891
35315W        W39383  10.651   6.194   7.013
35316W        W39384  10.081   4.361   6.609
35317W        W39385   9.881   4.299   4.879
35318W        W39386  10.274   5.433   7.283
35319W        W39387   8.014   7.009   5.269
35320W        W39388   8.672   4.726   4.255
35321W        W39389   8.241   4.010   6.919
35322W        W39390  10.293   4.494   4.600
35323W        W39391  10.660   4.976   4.545
35324W        W39392   8.403   7.193   7.016
35325W        W39393   8.329   3.729   4.251
35326W        W39394  10.650   4.263   5.286
35327W        W39395  10.800   6.512   3.731
35328W        W39396   7.707   5.715   5.433
35329W        W39397   9.624   4.302   3.663
35330W        W39398  10.758   6.634   5.383
35331W        W39399  10.797   3.828   6.133
35332W        W39400   9.242   5.040   6.687
35333W        W39401   9.335   6.379   4.390
35334W        W39402   9.735   5.673   7.130
35335W        W39403   9.409   3.650   5.439
35336W        W39404   8.021   4.553   5.502
35337W        W39405   7.575   5.753   6.276
35338W        W39406   9.434   6.946   4.982
35339W        W39407  10.628   4.543   5.854
35340W        W39408   9.265   6.890   6.621
35341W        W39409  10.608   5.949   3.826
35342W        W39410   9.043   5.432   4.887
35343W        W39411  10.895   3.943   6.628
35344W        W39412   9.044   5.778   6.222
35345W        W39413   9.261   4.664   5.667
35346W        W39414  10.113   4.962   4.505
35347W        W39415  10.400   4.695   4.147
35348W        W39416  10.209   6.735   4.536
35349W        W39417  10.043   6.338   5.332
35350W        W39418   9.939   5.417   4.310
35351W        W39419   9.372   5.627   5.296
35352W        W39420  10.253   5.415   5.363
35353W        W39421   7.628   4.430   5.787
35354W        W39422  10.406   5.482   6.614
35355W        W39423  10.757   7.100   5.760
35356W        W39424   8.687   6.544   5.162
35357W        W39425   9.694   7.077   6.486
35358W        W39426   9.688   4.407   6.250
35359W        W39427   8.895   7.115   6.311
35360W        W39428  10.592   4.069   4.777
35361W        W39429  10.383   5.388   6.078
35362W        W39430   7.366   4.709   6.116
35363W        W39431  10.226   4.504   5.134
35364W        W39432  10.637   4.655   6.911
35365W        W39433   9.522   6.354   5.129
35366W        W39434   8.778   6.945   4.742
35367W        W39435   7.893   4.125   4.000
35368W        W39436   8.997   3.779   5.810
35369W        W39437   8.025   6.899   3.658
35370W        W39438   8.399   5.365   4.409
35371W        W39439   9.053   5.994   6.722
35372W        W39440   8.883   4.352   4.712
35373W        W39441  10.239   3.949   5.140
35374W        W39442   9.959   7.231   5.468
35375W        W39443   9.371   6.879   5.808
35376W        W39444   8.767   5.916   5.769
35377W        W39445  10.537   6.639   5.895
35378W        W39446   8.231   4.142   4.664
35379W        W39447   8.753   6.439   5.624
35380W        W39448   8.236   4.370   3.689
35381W        W39449   9.037   4.979   6.083
35382W        W39450   9.885   3.845   5.953
35383W        W39451   7.305   5.688   5.838
35384W        W39452   9.009   5.506   3.996
35385W        W39453   8.277   3.821   3.766
35386W        W39454   9.015   4.902   4.817
35387W        W39455   9.985   3.878   6.516
35388W        W39456   8.573   5.890   6.625
35389W        W39457   9.377   5.672   6.842
35390W        W39458   9.994   5.702   6.735
35391W        W39459   9.278   3.842   7.240
35392W        W39460   8.500   4.458   5.633
35393W        W39461   7.926   4.414   5.031
35394W        W39462   7.712   7.126   4.707
35395W        W39463   9.044   6.456   6.832
35396W        W39464   8.079   5.941   4.191
35397W        W39465   9.759   5.326   5.412
35398W        W39466  10.039   5.125   5.811
35399W        W39467   9.244   5.799   5.745
35400W        W39468   9.714   6.173   3.877
35401W        W39469   9.386   4.194   5.205
35402W        W39470  10.865   4.472   4.473
35403W        W39471   7.359   7.061   6.504
35404W        W39472   7.776   6.287   6.036
35405W        W39473   7.343   7.133   4.268
35406W        W39474   9.242   4.403   6.074
35407W        W39475   8.605   6.426   3.923
35408W        W39476  10.510   6.808   4.109
35409W        W39477   9.485   5.461   4.123
35410W        W39478   8.328   4.652   4.640
35411W        W39479   9.160   4.562   3.692
35412W        W39480   9.744   6.127   6.870
35413W        W39481  10.097   4.033   4.487
35414W        W39482   7.427   3.881   3.935
35415W        W39483   8.713   6.200   6.225
35416W        W39484   8.512   6.116   5.317
35417W        W39485   8.254   6.068   3.715
35418W        W39486   7.495   6.309   4.483
35419W        W39487   7.999   5.379   6.925
35420W        W39488   8.703   3.939   7.111
35421W        W39489   9.412   4.081   6.467
35422W        W39490   8.607   3.849   4.748
35423W        W39491   9.666   3.926   4.253
35424W        W39492   7.611   3.858   5.830
35425W        W39493   7.659   4.821   5.200
35426W        W39494  10.348   3.929   5.606
35427W        W39495   7.770   4.427   4.420
35428W        W39496  10.341   4.115   6.036
35429W        W39497  10.737   5.318   3.721
35430W        W39498   8.029   4.076   5.540
35431W        W39499   9.143   4.648   6.480
35432W        W39500   7.291   4.338   3.958
35433W        W39501   8.077   5.727   6.519
35434W        W39502   9.435   5.125   5.698
35435W        W39503   9.302   7.204   3.994
35436W        W39504   7.448   5.711   3.691
35437W        W39505   8.183   6.122   6.817
35438W        W39506   7.704   5.289   6.448
35439W        W39507   8.695   5.394   6.242
35440W        W39508  10.463   3.753   6.504
35441W        W39509  10.861   5.363   6.495
35442W        W39510  10.849   5.563   4.181
35443W        W39511   9.712   5.895   4.280
35444W        W39512  10.186   7.195   3.975
35445W        W39513   9.363   5.185   7.117
35446W        W39514   7.693   6.152   7.157
35447W        W39515  10.899   4.074   7.109
35448W        W39516  10.617   5.002   5.730
35449W        W39517   8.925   7.132   7.207
35450W        W39518   8.780   3.761   3.934
35451W        W39519  10.319   6.360   3.877
35452W        W39520   8.088   4.453   6.763
35453W        W39521   8.522   6.447   6.625
35454W        W39522  10.648   4.438   6.423
35455W        W39523   9.859   7.097   4.391
35456W        W39524  10.098   5.716   5.758
35457W        W39525   8.348   4.132   6.425
35458W        W39526   8.817   5.201   7.182
35459W        W39527   8.320   6.380   4.376
35460W        W39528  10.075   5.878   4.640
35461W        W39529   7.843   4.504   6.364
35462W        W39530   9.172   6.566   4.828
35463W        W39531  10.922   5.126   5.009
35464W        W39532   9.144   3.759   6.728
35465W        W39533   9.924   6.464   5.807
35466W        W39534  10.227   6.808   5.515
35467W        W39535   9.446   6.610   3.943
35468W        W39536   7.456   6.502   6.785
35469W        W39537   8.199   4.494   6.023
35470W        W39538   8.169   3.842   5.133
35471W        W39539   9.790   4.684   5.825
35472W        W39540   8.588   5.855   4.025
35473W        W39541  10.586   5.797   5.524
35474W        W39542   7.913   6.555   6.947
35475W        W39543  10.300   7.237   4.744
35476W        W39544   8.399   4.257   5.189
35477W        W39545   8.168   5.750   5.279
35478W        W39546   8.481   7.161   6.029
35479W        W39547  10.548   7.257   7.061
35480W        W39548   9.707   5.445   5.994
35481W        W39549   7.556   5.243   3.909
35482W        W39550  10.690   6.901   4.606
35483W        W39551  10.527   4.225   4.225
35484W        W39552   8.666   3.744   6.628
35485W        W39553  10.372   6.546   5.086
35486W        W39554  10.401   5.102   4.991
35487W        W39555   8.518   4.775   5.207
35488W        W39556   8.763   5.037   6.531
35489W        W39557   9.874   6.190   6.394
35490W        W39558   8.524   4.644   6.506
35491W        W39559   8.503   7.110   5.122
35492W        W39560   7.820   7.069   6.756
35493W        W39561   7.932   6.430   3.886
35494W        W39562  10.449   6.188   4.696
35495W        W39563   8.053   4.980   6.582
35496W        W39564  10.826   4.910   4.063
35497W        W39565   8.571   5.967   4.534
35498W        W39566   9.670   5.349   6.615
35499W        W39567   9.561   4.977   6.159
35500W        W39568   8.121   5.349   6.188
35501W        W39569  10.331   7.237   6.017
35502W        W39570  10.122   3.871   7.011
35503W        W39571   7.786   4.021   6.598
35504W        W39572   8.125   5.044   5.651
35505W        W39573   8.494   4.858   3.773
35506W        W39574   7.297   6.617   6.318
35507W        W39575   8.882   5.326   5.761
35508W        W39576   8.705   4.351   3.866
35509W        W39577   7.840   5.167   4.647
35510W        W39578   7.611   7.019   6.084
35511W        W39579  10.406   5.245   4.192
35512W        W39580  10.501   4.161   6.878
35513W        W39581   9.937   6.370   4.841
35514W        W39582   7.535   5.294   7.018
35515W        W39583  10.501   3.758   4.314
35516W        W39584  10.021   6.233   4.325
35517W        W39585   8.923   5.291   4.410
35518W        W39586  10.110   4.095   3.933
35519W        W39587  10.175   4.702   6.119
35520W        W39588   7.884   5.295   5.326
35521W        W39589   8.178   6.234   4.975
35522W        W39590   9.941   4.854   4.940
35523W        W39591   8.964   4.233   5.636
35524W        W39592  10.926   6.144   6.147
35525W        W39593  10.844   4.131   5.708
35526W        W39594   7.383   6.961   5.084
35527W        W39595   7.892   6.148   4.620
35528W        W39596   7.807   3.765   7.173
35529W        W39597   8.926   6.618   7.275
35530W        W39598  10.681   5.586   5.065
35531W        W39599  10.035   5.763   3.945
35532W        W39600   9.330   7.284   6.157
35533W        W39601  10.187   6.006   7.194
35534W        W39602   9.002   3.716   4.474
35535W        W39603   9.715   4.585   5.333
35536W        W39604   7.401   6.172   5.665
35537W        W39605   8.654   4.134   4.306
35538W        W39606   8.458   5.618   7.155
35539W        W39607   9.452   4.599   4.869
35540W        W39608   9.657   6.009   5.991
35541W        W39609   7.811   6.614   6.426
35542W        W39610   8.402   6.597   7.149
35543W        W39611   8.253   4.394   4.163
35544W        W39612   9.770   4.536   4.488
35545W        W39613   9.728   6.644   6.725
35546W        W39614   8.413   5.236   5.324
35547W        W39615   8.068   6.934   6.189
35548W        W39616  10.813   7.051   3.790
35549W        W39617   7.676   5.723   6.786
35550W        W39618   9.671   5.985   5.474
35551W        W39619   8.107   5.634   4.716
35552W        W39620   8.478   6.641   6.111
35553W        W39621   8.856   4.060   5.152
35554W        W39622   7.467   6.044   4.082
35555W        W39623   8.986   4.995   3.952
35556W        W39624   7.632   5.544   4.971
35557W        W39625   8.922   4.186   6.435
35558W        W39626  10.594   3.895   3.862
35559W        W39627  10.687   5.641   6.961
35560W        W39628   9.341   6.898   7.113
35561W        W39629  10.899   5.992   6.635
35562W        W39630  10.307   6.790   7.246
35563W        W39631   8.046   7.246   5.724
35564W        W39632  10.905   5.868   4.598
35565W        W39633   9.435   5.135   5.111
35566W        W39634   9.202   3.747   5.001
35567W        W39635   8.261   6.731   4.838
35568W        W39636   8.760   4.472   6.063
35569W        W39637   8.460   3.841   5.532
35570W        W39638   7.523   6.663   4.080
35571W        W39639   9.339   6.027   4.798
35572W        W39640   8.214   6.822   6.677
35573W        W39641   7.691   5.645   4.373
35574W        W39642   7.576   4.188   5.372
35575W        W39643   9.124   6.153   5.429
35576W        W39644   7.376   4.007   4.449
35577W        W39645  10.040   5.213   6.376
35578W        W39646   9.917   4.599   3.948
35579W        W39647  10.434   6.271   5.596
35580W        W39648   9.095   6.755   5.427
35581W        W39649   8.507   6.859   4.338
35582W        W39650   9.789   3.762   3.768
35583W        W39651   7.589   7.022   5.509
35584W        W39652   9.786   4.780   7.144
35585W        W39653   7.769   4.310   7.143
35586W        W39654   7.500   4.910   4.476
35587W        W39655   8.191   4.899   4.201
35588W        W39656   9.954   5.226   7.018
35589W        W39657   8.297   5.507   5.727
35590W        W39658   9.771   3.793   4.847
35591W        W39659   8.902   7.224   5.350
35592W        W39660  10.116   6.686   6.287
35593W        W39661   9.700   6.835   5.398
35594W        W39662   9.719   5.815   4.992
35595W        W39663   9.181   4.040   4.063
35596W        W39664  10.862   3.668   4.785
35597W        W39665   8.550   5.303   3.948
35598W        W39666  10.716   4.640   4.938
35599W        W39667   9.408   5.810   3.815
35600W        W39668  10.344   6.010   6.563
35601W        W39669   9.998   6.711   4.030
35602W        W39670   8.613   4.386   6.936
35603W        W39671   8.433   4.970   6.177
35604W        W39672  10.525   6.465   6.454
35605W        W39673   9.625   4.415   6.831
35606W        W39674   7.469   4.886   6.608
35607W        W39675   9.229   5.363   6.334
35608W        W39676   7.586   6.121   4.991
35609W        W39677   7.733   5.418   5.881
35610W        W39678  10.050   5.704   6.231
35611W        W39679   9.822   7.084   7.042
35612W        W39680   9.718   4.823   6.595
35613W        W39681   9.995   6.877   5.000
35614W        W39682   8.997   6.597   6.323
35615W        W39683   8.482   6.952   5.592
35616W        W39684  10.287   6.123   6.011
35617W        W39685   9.337   6.195   7.148
35618W        W39686   7.942   6.148   5.487
35619W        W39687  10.288   5.907   5.132
35620W        W39688   9.929   6.973   5.883
35621W        W39689   7.907   6.702   5.753
35622W        W39690   8.928   4.754   6.963
35623W        W39691   9.379   6.920   4.474
35624W        W39692   8.687   6.175   7.112
35625W        W39693   8.813   6.413   4.489
35626W        W39694   8.034   5.153   3.748
35627W        W39695   7.373   7.239  10.648
35628W        W39696   7.749   6.132  10.171
35629W        W39697  10.454   5.862   7.941
35630W        W39698  10.584   6.947   9.968
35631W        W39699   8.502   6.938   7.494
35632W        W39700   8.585   5.090   8.477
35633W        W39701   8.100   4.938   8.641
35634W        W39702   9.091   5.753   8.075
35635W        W39703   8.766   6.845  10.430
35636W        W39704   7.415   4.406  10.393
35637W        W39705   8.177   3.686  10.195
35638W        W39706   9.871   4.074   9.082
35639W        W39707   9.520   4.945   7.652
35640W        W39708  10.090   4.379  10.743
35641W        W39709   7.456   4.171   9.868
35642W        W39710   7.555   6.790  10.889
35643W        W39711   9.077   6.180   7.621
35644W        W39712   7.509   4.963   9.314
35645W        W39713   8.402   4.854  10.551
35646W        W39714  10.861   4.713   9.050
35647W        W39715  10.625   5.756   9.909
35648W        W39716   8.933   5.089   8.936
35649W        W39717   9.479   6.428   9.305
35650W        W39718   7.979   5.862   9.537
35651W        W39719   7.338   5.390   9.108
35652W        W39720   8.374   5.362  10.300
35653W        W39721  10.645   5.145  10.554
35654W        W39722   8.261   6.589   8.999
35655W        W39723   9.382   6.278  10.133
35656W        W39724   8.602   4.918   9.358
35657W        W39725   8.894   5.702   9.001
35658W        W39726   9.891   6.475  10.849
35659W        W39727   8.970   5.795  10.859
35660W        W39728   8.951   5.511  10.337
35661W        W39729   7.360   4.902  10.859
35662W        W39730  10.192   6.437  10.458
35663W        W39731   7.773   4.019   8.456
35664W        W39732   8.300   6.277   9.455
35665W        W39733  10.763   6.060   8.745
35666W        W39734  10.176   4.460   9.312
35667W        W39735  10.461   4.413   7.407
35668W        W39736  10.926   5.214   9.713
35669W        W39737   8.893   6.921   9.466
35670W        W39738  10.667   6.387   7.904
35671W        W39739   7.796   7.173   7.658
35672W        W39740   8.189   7.219   8.334
35673W        W39741   7.986   3.973   9.760
35674W        W39742  10.609   4.991  10.035
35675W        W39743  10.014   5.413   8.494
35676W        W39744   9.980   5.101   7.521
35677W        W39745   9.188   6.245   9.661
35678W        W39746   8.994   4.575   8.860
35679W        W39747   9.594   6.662   9.854
35680W        W39748  10.465   5.453   8.276
35681W        W39749   9.367   4.111   8.292
35682W        W39750   8.024   6.805   7.975
35683W        W39751   7.395   4.304   8.574
35684W        W39752  10.181   4.911   9.048
35685W        W39753   7.639   6.528   8.963
35686W        W39754   8.980   6.878   7.833
35687W        W39755  10.372   4.904   7.297
35688W        W39756   7.395   6.662   9.461
35689W        W39757   8.186   6.234   9.941
35690W        W39758   8.559   5.594   8.560
35691W        W39759   8.581   3.999   9.653
35692W        W39760  10.810   3.761   8.950
35693W        W39761   8.029   5.633   7.418
35694W        W39762   7.684   4.666   7.597
35695W        W39763   7.746   6.622   8.391
35696W        W39764   8.877   6.105   8.639
35697W        W39765  10.209   6.964  10.353
35698W        W39766   9.135   4.606   8.037
35699W        W39767  10.518   7.004   8.809
35700W        W39768  10.195   4.857  10.407
35701W        W39769  10.908   6.513   8.541
35702W        W39770   9.535   5.805  10.025
35703W        W39771   7.301   5.356   8.231
35704W        W39772   8.412   5.771   9.804
35705W        W39773   9.616   5.035   8.182
35706W        W39774   9.493   5.525   8.286
35707W        W39775   7.836   4.945   9.760
35708W        W39776   7.821   4.821  10.682
35709W        W39777   7.711   3.738   8.841
35710W        W39778   9.479   4.085   9.402
35711W        W39779   9.127   4.270  10.565
35712W        W39780   9.482   4.419   7.743
35713W        W39781  10.665   6.812  10.497
35714W        W39782   9.632   3.893  10.536
35715W        W39783  10.651   6.194  10.658
35716W        W39784  10.081   4.361  10.254
35717W        W39785   9.881   4.299   8.524
35718W        W39786  10.274   5.433  10.928
35719W        W39787   8.014   7.009   8.914
35720W        W39788   8.672   4.726   7.900
35721W        W39789   8.241   4.010  10.564
35722W        W39790  10.293   4.494   8.245
35723W        W39791  10.660   4.976   8.190
35724W        W39792   8.403   7.193  10.661
35725W        W39793   8.329   3.729   7.896
35726W        W39794  10.650   4.263   8.931
35727W        W39795  10.800   6.512   7.376
35728W        W39796   7.707   5.715   9.078
35729W        W39797   9.624   4.302   7.308
35730W        W39798  10.758   6.634   9.028
35731W        W39799  10.797   3.828   9.778
35732W        W39800   9.242   5.040  10.332
35733W        W39801   9.335   6.379   8.035
35734W        W39802   9.735   5.673  10.775
35735W        W39803   9.409   3.650   9.084
35736W        W39804   8.021   4.553   9.147
35737W        W39805   7.575   5.753   9.921
35738W        W39806   9.434   6.946   8.627
35739W        W39807  10.628   4.543   9.499
35740W        W39808   9.265   6.890  10.266
35741W        W39809  10.608   5.949   7.471
35742W        W39810   9.043   5.432   8.532
35743W        W39811  10.895   3.943  10.273
35744W        W39812   9.044   5.778   9.867
35745W        W39813   9.261   4.664   9.312
35746W        W39814  10.113   4.962   8.150
35747W        W39815  10.400   4.695   7.792
35748W        W39816  10.209   6.735   8.181
35749W        W39817  10.043   6.338   8.977
35750W        W39818   9.939   5.417   7.955
35751W        W39819   9.372   5.627   8.941
35752W        W39820  10.253   5.415   9.008
35753W        W39821   7.628   4.430   9.432
35754W        W39822  10.406   5.482  10.259
35755W        W39823  10.757   7.100   9.405
35756W        W39824   8.687   6.544   8.807
35757W        W39825   9.694   7.077  10.131
35758W        W39826   9.688   4.407   9.895
35759W        W39827   8.895   7.115   9.956
35760W        W39828  10.592   4.069   8.422
35761W        W39829  10.383   5.388   9.723
35762W        W39830   7.366   4.709   9.761
35763W        W39831  10.226   4.504   8.779
35764W        W39832  10.637   4.655  10.556
35765W        W39833   9.522   6.354   8.774
35766W        W39834   8.778   6.945   8.387
35767W        W39835   7.893   4.125   7.645
35768W        W39836   8.997   3.779   9.455
35769W        W39837   8.025   6.899   7.303
35770W        W39838   8.399   5.365   8.054
35771W        W39839   9.053   5.994  10.367
35772W        W39840   8.883   4.352   8.357
35773W        W39841  10.239   3.949   8.785
35774W        W39842   9.959   7.231   9.113
35775W        W39843   9.371   6.879   9.453
35776W        W39844   8.767   5.916   9.414
35777W        W39845  10.537   6.639   9.540
35778W        W39846   8.231   4.142   8.309
35779W        W39847   8.753   6.439   9.269
35780W        W39848   8.236   4.370   7.334
35781W        W39849   9.037   4.979   9.728
35782W        W39850   9.885   3.845   9.598
35783W        W39851   7.305   5.688   9.483
35784W        W39852   9.009   5.506   7.641
35785W        W39853   8.277   3.821   7.411
35786W        W39854   9.015   4.902   8.462
35787W        W39855   9.985   3.878  10.161
35788W        W39856   8.573   5.890  10.270
35789W        W39857   9.377   5.672  10.487
35790W        W39858   9.994   5.702  10.380
35791W        W39859   9.278   3.842  10.885
35792W        W39860   8.500   4.458   9.278
35793W        W39861   7.926   4.414   8.676
35794W        W39862   7.712   7.126   8.352
35795W        W39863   9.044   6.456  10.477
35796W        W39864   8.079   5.941   7.836
35797W        W39865   9.759   5.326   9.057
35798W        W39866  10.039   5.125   9.456
35799W        W39867   9.244   5.799   9.390
35800W        W39868   9.714   6.173   7.522
35801W        W39869   9.386   4.194   8.850
35802W        W39870  10.865   4.472   8.118
35803W        W39871   7.359   7.061  10.149
35804W        W39872   7.776   6.287   9.681
35805W        W39873   7.343   7.133   7.913
35806W        W39874   9.242   4.403   9.719
35807W        W39875   8.605   6.426   7.568
35808W        W39876  10.510   6.808   7.754
35809W        W39877   9.485   5.461   7.768
35810W        W39878   8.328   4.652   8.285
35811W        W39879   9.160   4.562   7.337
35812W        W39880   9.744   6.127  10.515
35813W        W39881  10.097   4.033   8.132
35814W        W39882   7.427   3.881   7.580
35815W        W39883   8.713   6.200   9.870
35816W        W39884   8.512   6.116   8.962
35817W        W39885   8.254   6.068   7.360
35818W        W39886   7.495   6.309   8.128
35819W        W39887   7.999   5.379  10.570
35820W        W39888   8.703   3.939  10.756
35821W        W39889   9.412   4.081  10.112
35822W        W39890   8.607   3.849   8.393
35823W        W39891   9.666   3.926   7.898
35824W        W39892   7.611   3.858   9.475
35825W        W39893   7.659   4.821   8.845
35826W        W39894  10.348   3.929   9.251
35827W        W39895   7.770   4.427   8.065
35828W        W39896  10.341   4.115   9.681
35829W        W39897  10.737   5.318   7.366
35830W        W39898   8.029   4.076   9.185
35831W        W39899   9.143   4.648  10.125
35832W        W39900   7.291   4.338   7.603
35833W        W39901   8.077   5.727  10.164
35834W        W39902   9.435   5.125   9.343
35835W        W39903   9.302   7.204   7.639
35836W        W39904   7.448   5.711   7.336
35837W        W39905   8.183   6.122  10.462
35838W        W39906   7.704   5.289  10.093
35839W        W39907   8.695   5.394   9.887
35840W        W39908  10.463   3.753  10.149
35841W        W39909  10.861   5.363  10.140
35842W        W39910  10.849   5.563   7.826
35843W        W39911   9.712   5.895   7.925
35844W        W39912  10.186   7.195   7.620
35845W        W39913   9.363   5.185  10.762
35846W        W39914   7.693   6.152  10.802
35847W        W39915  10.899   4.074  10.754
35848W        W39916  10.617   5.002   9.375
35849W        W39917   8.925   7.132  10.852
35850W        W39918   8.780   3.761   7.579
35851W        W39919  10.319   6.360   7.522
35852W        W39920   8.088   4.453  10.408
35853W        W39921   8.522   6.447  10.270
35854W        W39922  10.648   4.438  10.068
35855W        W39923   9.859   7.097   8.036
35856W        W39924  10.098   5.716   9.403
35857W        W39925   8.348   4.132  10.070
35858W        W39926   8.817   5.201  10.827
35859W        W39927   8.320   6.380   8.021
35860W        W39928  10.075   5.878   8.285
35861W        W39929   7.843   4.504  10.009
35862W        W39930   9.172   6.566   8.473
35863W        W39931  10.922   5.126   8.654
35864W        W39932   9.144   3.759  10.373
35865W        W39933   9.924   6.464   9.452
35866W        W39934  10.227   6.808   9.160
35867W        W39935   9.446   6.610   7.588
35868W        W39936   7.456   6.502  10.430
35869W        W39937   8.199   4.494   9.668
35870W        W39938   8.169   3.842   8.778
35871W        W39939   9.790   4.684   9.470
35872W        W39940   8.588   5.855   7.670
35873W        W39941  10.586   5.797   9.169
35874W        W39942   7.913   6.555  10.592
35875W        W39943  10.300   7.237   8.389
35876W        W39944   8.399   4.257   8.834
35877W        W39945   8.168   5.750   8.924
35878W        W39946   8.481   7.161   9.674
35879W        W39947  10.548   7.257  10.706
35880W        W39948   9.707   5.445   9.639
35881W        W39949   7.556   5.243   7.554
35882W        W39950  10.690   6.901   8.251
35883W        W39951  10.527   4.225   7.870
35884W        W39952   8.666   3.744  10.273
35885W        W39953  10.372   6.546   8.731
35886W        W39954  10.401   5.102   8.636
35887W        W39955   8.518   4.775   8.852
35888W        W39956   8.763   5.037  10.176
35889W        W39957   9.874   6.190  10.039
35890W        W39958   8.524   4.644  10.151
35891W        W39959   8.503   7.110   8.767
35892W        W39960   7.820   7.069  10.401
35893W        W39961   7.932   6.430   7.531
35894W        W39962  10.449   6.188   8.341
35895W        W39963   8.053   4.980  10.227
35896W        W39964  10.826   4.910   7.708
35897W        W39965   8.571   5.967   8.179
35898W        W39966   9.670   5.349  10.260
35899W        W39967   9.561   4.977   9.804
35900W        W39968   8.121   5.349   9.833
35901W        W39969  10.331   7.237   9.662
35902W        W39970  10.122   3.871  10.656
35903W        W39971   7.786   4.021  10.243
35904W        W39972   8.125   5.044   9.296
35905W        W39973   8.494   4.858   7.418
35906W        W39974   7.297   6.617   9.963
35907W        W39975   8.882   5.326   9.406
35908W        W39976   8.705   4.351   7.511
35909W        W39977   7.840   5.167   8.292
35910W        W39978   7.611   7.019   9.729
35911W        W39979  10.406   5.245   7.837
35912W        W39980  10.501   4.161  10.523
35913W        W39981   9.937   6.370   8.486
35914W        W39982   7.535   5.294  10.663
35915W        W39983  10.501   3.758   7.959
35916W        W39984  10.021   6.233   7.970
35917W        W39985   8.923   5.291   8.055
35918W        W39986  10.110   4.095   7.578
35919W        W39987  10.175   4.702   9.764
35920W        W39988   7.884   5.295   8.971
35921W        W39989   8.178   6.234   8.620
35922W        W39990   9.941   4.854   8.585
35923W        W39991   8.964   4.233   9.281
35924W        W39992  10.926   6.144   9.792
35925W        W39993  10.844   4.131   9.353
35926W        W39994   7.383   6.961   8.729
35927W        W39995   7.892   6.148   8.265
35928W        W39996   7.807   3.765  10.818
35929W        W39997   8.926   6.618  10.920
35930W        W39998  10.681   5.586   8.710
35931W        W39999  10.035   5.763   7.590
35932W        W40000   9.330   7.284   9.802
35933W        W40001  10.187   6.006  10.839
35934W        W40002   9.002   3.716   8.119
35935W        W40003   9.715   4.585   8.978
35936W        W40004   7.401   6.172   9.310
35937W        W40005   8.654   4.134   7.951
35938W        W40006   8.458   5.618  10.800
35939W        W40007   9.452   4.599   8.514
35940W        W40008   9.657   6.009   9.636
35941W        W40009   7.811   6.614  10.071
35942W        W40010   8.402   6.597  10.794
35943W        W40011   8.253   4.394   7.808
35944W        W40012   9.770   4.536   8.133
35945W        W40013   9.728   6.644  10.370
35946W        W40014   8.413   5.236   8.969
35947W        W40015   8.068   6.934   9.834
35948W        W40016  10.813   7.051   7.435
35949W        W40017   7.676   5.723  10.431
35950W        W40018   9.671   5.985   9.119
35951W        W40019   8.107   5.634   8.361
35952W        W40020   8.478   6.641   9.756
35953W        W40021   8.856   4.060   8.797
35954W        W40022   7.467   6.044   7.727
35955W        W40023   8.986   4.995   7.597
35956W        W40024   7.632   5.544   8.616
35957W        W40025   8.922   4.186  10.080
35958W        W40026  10.594   3.895   7.507
35959W        W40027  10.687   5.641  10.606
35960W        W40028   9.341   6.898  10.758
35961W        W40029  10.899   5.992  10.280
35962W        W40030  10.307   6.790  10.891
35963W        W40031   8.046   7.246   9.369
35964W        W40032  10.905   5.868   8.243
35965W        W40033   9.435   5.135   8.756
35966W        W40034   9.202   3.747   8.646
35967W        W40035   8.261   6.731   8.483
35968W        W40036   8.760   4.472   9.708
35969W        W40037   8.460   3.841   9.177
35970W        W40038   7.523   6.663   7.725
35971W        W40039   9.339   6.027   8.443
35972W        W40040   8.214   6.822  10.322
35973W        W40041   7.691   5.645   8.018
35974W        W40042   7.576   4.188   9.017
35975W        W40043   9.124   6.153   9.074
35976W        W40044   7.376   4.007   8.094
35977W        W40045  10.040   5.213  10.021
35978W        W40046   9.917   4.599   7.593
35979W        W40047  10.434   6.271   9.241
35980W        W40048   9.095   6.755   9.072
35981W        W40049   8.507   6.859   7.983
35982W        W40050   9.789   3.762   7.413
35983W        W40051   7.589   7.022   9.154
35984W        W40052   9.786   4.780  10.789
35985W        W40053   7.769   4.310  10.788
35986W        W40054   7.500   4.910   8.121
35987W        W40055   8.191   4.899   7.846
35988W        W40056   9.954   5.226  10.663
35989W        W40057   8.297   5.507   9.372
35990W        W40058   9.771   3.793   8.492
35991W        W40059   8.902   7.224   8.995
35992W        W40060  10.116   6.686   9.932
35993W        W40061   9.700   6.835   9.043
35994W        W40062   9.719   5.815   8.637
35995W        W40063   9.181   4.040   7.708
35996W        W40064  10.862   3.668   8.430
35997W        W40065   8.550   5.303   7.593
35998W        W40066  10.716   4.640   8.583
35999W        W40067   9.408   5.810   7.460
36000W        W40068  10.344   6.010  10.208
36001W        W40069   9.998   6.711   7.675
36002W        W40070   8.613   4.386  10.581
36003W        W40071   8.433   4.970   9.822
36004W        W40072  10.525   6.465  10.099
36005W        W40073   9.625   4.415  10.476
36006W        W40074   7.469   4.886  10.253
36007W        W40075   9.229   5.363   9.979
36008W        W40076   7.586   6.121   8.636
36009W        W40077   7.733   5.418   9.526
36010W        W40078  10.050   5.704   9.876
36011W        W40079   9.822   7.084  10.687
36012W        W40080   9.718   4.823  10.240
36013W        W40081   9.995   6.877   8.645
36014W        W40082   8.997   6.597   9.968
36015W        W40083   8.482   6.952   9.237
36016W        W40084  10.287   6.123   9.656
36017W        W40085   9.337   6.195  10.793
36018W        W40086   7.942   6.148   9.132
36019W        W40087  10.288   5.907   8.777
36020W        W40088   9.929   6.973   9.528
36021W        W40089   7.907   6.702   9.398
36022W        W40090   8.928   4.754  10.608
36023W        W40091   9.379   6.920   8.119
36024W        W40092   8.687   6.175  10.757
36025W        W40093   8.813   6.413   8.134
36026W        W40094   8.034   5.153   7.393
36027W        W40095   7.373   7.239  14.292
36028W        W40096   7.749   6.132  13.815
36029W        W40097  10.454   5.862  11.585
36030W        W40098  10.584   6.947  13.612
36031W        W40099   8.502   6.938  11.138
36032W        W40100   8.585   5.090  12.121
36033W        W40101   8.100   4.938  12.285
36034W        W40102   9.091   5.753  11.719
36035W        W40103   8.766   6.845  14.074
36036W        W40104   7.415   4.406  14.037
36037W        W40105   8.177   3.686  13.839
36038W        W40106   9.871   4.074  12.726
36039W        W40107   9.520   4.945  11.296
36040W        W40108  10.090   4.379  14.387
36041W        W40109   7.456   4.171  13.512
36042W        W40110   7.555   6.790  14.533
36043W        W40111   9.077   6.180  11.265
36044W        W40112   7.509   4.963  12.958
36045W        W40113   8.402   4.854  14.195
36046W        W40114  10.861   4.713  12.694
36047W        W40115  10.625   5.756  13.553
36048W        W40116   8.933   5.089  12.580
36049W        W40117   9.479   6.428  12.949
36050W        W40118   7.979   5.862  13.181
36051W        W40119   7.338   5.390  12.752
36052W        W40120   8.374   5.362  13.944
36053W        W40121  10.645   5.145  14.198
36054W        W40122   8.261   6.589  12.643
36055W        W40123   9.382   6.278  13.777
36056W        W40124   8.602   4.918  13.002
36057W        W40125   8.894   5.702  12.645
36058W        W40126   9.891   6.475  14.493
36059W        W40127   8.970   5.795  14.503
36060W        W40128   8.951   5.511  13.981
36061W        W40129   7.360   4.902  14.503
36062W        W40130  10.192   6.437  14.102
36063W        W40131   7.773   4.019  12.100
36064W        W40132   8.300   6.277  13.099
36065W        W40133  10.763   6.060  12.389
36066W        W40134  10.176   4.460  12.956
36067W        W40135  10.461   4.413  11.051
36068W        W40136  10.926   5.214  13.357
36069W        W40137   8.893   6.921  13.110
36070W        W40138  10.667   6.387  11.548
36071W        W40139   7.796   7.173  11.302
36072W        W40140   8.189   7.219  11.978
36073W        W40141   7.986   3.973  13.404
36074W        W40142  10.609   4.991  13.679
36075W        W40143  10.014   5.413  12.138
36076W        W40144   9.980   5.101  11.165
36077W        W40145   9.188   6.245  13.305
36078W        W40146   8.994   4.575  12.504
36079W        W40147   9.594   6.662  13.498
36080W        W40148  10.465   5.453  11.920
36081W        W40149   9.367   4.111  11.936
36082W        W40150   8.024   6.805  11.619
36083W        W40151   7.395   4.304  12.218
36084W        W40152  10.181   4.911  12.692
36085W        W40153   7.639   6.528  12.607
36086W        W40154   8.980   6.878  11.477
36087W        W40155  10.372   4.904  10.941
36088W        W40156   7.395   6.662  13.105
36089W        W40157   8.186   6.234  13.585
36090W        W40158   8.559   5.594  12.204
36091W        W40159   8.581   3.999  13.297
36092W        W40160  10.810   3.761  12.594
36093W        W40161   8.029   5.633  11.062
36094W        W40162   7.684   4.666  11.241
36095W        W40163   7.746   6.622  12.035
36096W        W40164   8.877   6.105  12.283
36097W        W40165  10.209   6.964  13.997
36098W        W40166   9.135   4.606  11.681
36099W        W40167  10.518   7.004  12.453
36100W        W40168  10.195   4.857  14.051
36101W        W40169  10.908   6.513  12.185
36102W        W40170   9.535   5.805  13.669
36103W        W40171   7.301   5.356  11.875
36104W        W40172   8.412   5.771  13.448
36105W        W40173   9.616   5.035  11.826
36106W        W40174   9.493   5.525  11.930
36107W        W40175   7.836   4.945  13.404
36108W        W40176   7.821   4.821  14.326
36109W        W40177   7.711   3.738  12.485
36110W        W40178   9.479   4.085  13.046
36111W        W40179   9.127   4.270  14.209
36112W        W40180   9.482   4.419  11.387
36113W        W40181  10.665   6.812  14.141
36114W        W40182   9.632   3.893  14.180
36115W        W40183  10.651   6.194  14.302
36116W        W40184  10.081   4.361  13.898
36117W        W40185   9.881   4.299  12.168
36118W        W40186  10.274   5.433  14.572
36119W        W40187   8.014   7.009  12.558
36120W        W40188   8.672   4.726  11.544
36121W        W40189   8.241   4.010  14.208
36122W        W40190  10.293   4.494  11.889
36123W        W40191  10.660   4.976  11.834
36124W        W40192   8.403   7.193  14.305
36125W        W40193   8.329   3.729  11.540
36126W        W40194  10.650   4.263  12.575
36127W        W40195  10.800   6.512  11.020
36128W        W40196   7.707   5.715  12.722
36129W        W40197   9.624   4.302  10.952
36130W        W40198  10.758   6.634  12.672
36131W        W40199  10.797   3.828  13.422
36132W        W40200   9.242   5.040  13.976
36133W        W40201   9.335   6.379  11.679
36134W        W40202   9.735   5.673  14.419
36135W        W40203   9.409   3.650  12.728
36136W        W40204   8.021   4.553  12.791
36137W        W40205   7.575   5.753  13.565
36138W        W40206   9.434   6.946  12.271
36139W        W40207  10.628   4.543  13.143
36140W        W40208   9.265   6.890  13.910
36141W        W40209  10.608   5.949  11.115
36142W        W40210   9.043   5.432  12.176
36143W        W40211  10.895   3.943  13.917
36144W        W40212   9.044   5.778  13.511
36145W        W40213   9.261   4.664  12.956
36146W        W40214  10.113   4.962  11.794
36147W        W40215  10.400   4.695  11.436
36148W        W40216  10.209   6.735  11.825
36149W        W40217  10.043   6.338  12.621
36150W        W40218   9.939   5.417  11.599
36151W        W40219   9.372   5.627  12.585
36152W        W40220  10.253   5.415  12.652
36153W        W40221   7.628   4.430  13.076
36154W        W40222  10.406   5.482  13.903
36155W        W40223  10.757   7.100  13.049
36156W        W40224   8.687   6.544  12.451
36157W        W40225   9.694   7.077  13.775
36158W        W40226   9.688   4.407  13.539
36159W        W40227   8.895   7.115  13.600
36160W        W40228  10.592   4.069  12.066
36161W        W40229  10.383   5.388  13.367
36162W        W40230   7.366   4.709  13.405
36163W        W40231  10.226   4.504  12.423
36164W        W40232  10.637   4.655  14.200
36165W        W40233   9.522   6.354  12.418
36166W        W40234   8.778   6.945  12.031
36167W        W40235   7.893   4.125  11.289
36168W        W40236   8.997   3.779  13.099
36169W        W40237   8.025   6.899  10.947
36170W        W40238   8.399   5.365  11.698
36171W        W40239   9.053   5.994  14.011
36172W        W40240   8.883   4.352  12.001
36173W        W40241  10.239   3.949  12.429
36174W        W40242   9.959   7.231  12.757
36175W        W40243   9.371   6.879  13.097
36176W        W40244   8.767   5.916  13.058
36177W        W40245  10.537   6.639  13.184
36178W        W40246   8.231   4.142  11.953
36179W        W40247   8.753   6.439  12.913
36180W        W40248   8.236   4.370  10.978
36181W        W40249   9.037   4.979  13.372
36182W        W40250   9.885   3.845  13.242
36183W        W40251   7.305   5.688  13.127
36184W        W40252   9.009   5.506  11.285
36185W        W40253   8.277   3.821  11.055
36186W        W40254   9.015   4.902  12.106
36187W        W40255   9.985   3.878  13.805
36188W        W40256   8.573   5.890  13.914
36189W        W40257   9.377   5.672  14.131
36190W        W40258   9.994   5.702  14.024
36191W        W40259   9.278   3.842  14.529
36192W        W40260   8.500   4.458  12.922
36193W        W40261   7.926   4.414  12.320
36194W        W40262   7.712   7.126  11.996
36195W        W40263   9.044   6.456  14.121
36196W        W40264   8.079   5.941  11.480
36197W        W40265   9.759   5.326  12.701
36198W        W40266  10.039   5.125  13.100
36199W        W40267   9.244   5.799  13.034
36200W        W40268   9.714   6.173  11.166
36201W        W40269   9.386   4.194  12.494
36202W        W40270  10.865   4.472  11.762
36203W        W40271   7.359   7.061  13.793
36204W        W40272   7.776   6.287  13.325
36205W        W40273   7.343   7.133  11.557
36206W        W40274   9.242   4.403  13.363
36207W        W40275   8.605   6.426  11.212
36208W        W40276  10.510   6.808  11.398
36209W        W40277   9.485   5.461  11.412
36210W        W40278   8.328   4.652  11.929
36211W        W40279   9.160   4.562  10.981
36212W        W40280   9.744   6.127  14.159
36213W        W40281  10.097   4.033  11.776
36214W        W40282   7.427   3.881  11.224
36215W        W40283   8.713   6.200  13.514
36216W        W40284   8.512   6.116  12.606
36217W        W40285   8.254   6.068  11.004
36218W        W40286   7.495   6.309  11.772
36219W        W40287   7.999   5.379  14.214
36220W        W40288   8.703   3.939  14.400
36221W        W40289   9.412   4.081  13.756
36222W        W40290   8.607   3.849  12.037
36223W        W40291   9.666   3.926  11.542
36224W        W40292   7.611   3.858  13.119
36225W        W40293   7.659   4.821  12.489
36226W        W40294  10.348   3.929  12.895
36227W        W40295   7.770   4.427  11.709
36228W        W40296  10.341   4.115  13.325
36229W        W40297  10.737   5.318  11.010
36230W        W40298   8.029   4.076  12.829
36231W        W40299   9.143   4.648  13.769
36232W        W40300   7.291   4.338  11.247
36233W        W40301   8.077   5.727  13.808
36234W        W40302   9.435   5.125  12.987
36235W        W40303   9.302   7.204  11.283
36236W        W40304   7.448   5.711  10.980
36237W        W40305   8.183   6.122  14.106
36238W        W40306   7.704   5.289  13.737
36239W        W40307   8.695   5.394  13.531
36240W        W40308  10.463   3.753  13.793
36241W        W40309  10.861   5.363  13.784
36242W        W40310  10.849   5.563  11.470
36243W        W40311   9.712   5.895  11.569
36244W        W40312  10.186   7.195  11.264
36245W        W40313   9.363   5.185  14.406
36246W        W40314   7.693   6.152  14.446
36247W        W40315  10.899   4.074  14.398
36248W        W40316  10.617   5.002  13.019
36249W        W40317   8.925   7.132  14.496
36250W        W40318   8.780   3.761  11.223
36251W        W40319  10.319   6.360  11.166
36252W        W40320   8.088   4.453  14.052
36253W        W40321   8.522   6.447  13.914
36254W        W40322  10.648   4.438  13.712
36255W        W40323   9.859   7.097  11.680
36256W        W40324  10.098   5.716  13.047
36257W        W40325   8.348   4.132  13.714
36258W        W40326   8.817   5.201  14.471
36259W        W40327   8.320   6.380  11.665
36260W        W40328  10.075   5.878  11.929
36261W        W40329   7.843   4.504  13.653
36262W        W40330   9.172   6.566  12.117
36263W        W40331  10.922   5.126  12.298
36264W        W40332   9.144   3.759  14.017
36265W        W40333   9.924   6.464  13.096
36266W        W40334  10.227   6.808  12.804
36267W        W40335   9.446   6.610  11.232
36268W        W40336   7.456   6.502  14.074
36269W        W40337   8.199   4.494  13.312
36270W        W40338   8.169   3.842  12.422
36271W        W40339   9.790   4.684  13.114
36272W        W40340   8.588   5.855  11.314
36273W        W40341  10.586   5.797  12.813
36274W        W40342   7.913   6.555  14.236
36275W        W40343  10.300   7.237  12.033
36276W        W40344   8.399   4.257  12.478
36277W        W40345   8.168   5.750  12.568
36278W        W40346   8.481   7.161  13.318
36279W        W40347  10.548   7.257  14.350
36280W        W40348   9.707   5.445  13.283
36281W        W40349   7.556   5.243  11.198
36282W        W40350  10.690   6.901  11.895
36283W        W40351  10.527   4.225  11.514
36284W        W40352   8.666   3.744  13.917
36285W        W40353  10.372   6.546  12.375
36286W        W40354  10.401   5.102  12.280
36287W        W40355   8.518   4.775  12.496
36288W        W40356   8.763   5.037  13.820
36289W        W40357   9.874   6.190  13.683
36290W        W40358   8.524   4.644  13.795
36291W        W40359   8.503   7.110  12.411
36292W        W40360   7.820   7.069  14.045
36293W        W40361   7.932   6.430  11.175
36294W        W40362  10.449   6.188  11.985
36295W        W40363   8.053   4.980  13.871
36296W        W40364  10.826   4.910  11.352
36297W        W40365   8.571   5.967  11.823
36298W        W40366   9.670   5.349  13.904
36299W        W40367   9.561   4.977  13.448
36300W        W40368   8.121   5.349  13.477
36301W        W40369  10.331   7.237  13.306
36302W        W40370  10.122   3.871  14.300
36303W        W40371   7.786   4.021  13.887
36304W        W40372   8.125   5.044  12.940
36305W        W40373   8.494   4.858  11.062
36306W        W40374   7.297   6.617  13.607
36307W        W40375   8.882   5.326  13.050
36308W        W40376   8.705   4.351  11.155
36309W        W40377   7.840   5.167  11.936
36310W        W40378   7.611   7.019  13.373
36311W        W40379  10.406   5.245  11.481
36312W        W40380  10.501   4.161  14.167
36313W        W40381   9.937   6.370  12.130
36314W        W40382   7.535   5.294  14.307
36315W        W40383  10.501   3.758  11.603
36316W        W40384  10.021   6.233  11.614
36317W        W40385   8.923   5.291  11.699
36318W        W40386  10.110   4.095  11.222
36319W        W40387  10.175   4.702  13.408
36320W        W40388   7.884   5.295  12.615
36321W        W40389   8.178   6.234  12.264
36322W        W40390   9.941   4.854  12.229
36323W        W40391   8.964   4.233  12.925
36324W        W40392  10.926   6.144  13.436
36325W        W40393  10.844   4.131  12.997
36326W        W40394   7.383   6.961  12.373
36327W        W40395   7.892   6.148  11.909
36328W        W40396   7.807   3.765  14.462
36329W        W40397   8.926   6.618  14.564
36330W        W40398  10.681   5.586  12.354
36331W        W40399  10.035   5.763  11.234
36332W        W40400   9.330   7.284  13.446
36333W        W40401  10.187   6.006  14.483
36334W        W40402   9.002   3.716  11.763
36335W        W40403   9.715   4.585  12.622
36336W        W40404   7.401   6.172  12.954
36337W        W40405   8.654   4.134  11.595
36338W        W40406   8.458   5.618  14.444
36339W        W40407   9.452   4.599  12.158
36340W        W40408   9.657   6.009  13.280
36341W        W40409   7.811   6.614  13.715
36342W        W40410   8.402   6.597  14.438
36343W        W40411   8.253   4.394  11.452
36344W        W40412   9.770   4.536  11.777
36345W        W40413   9.728   6.644  14.014
36346W        W40414   8.413   5.236  12.613
36347W        W40415   8.068   6.934  13.478
36348W        W40416  10.813   7.051  11.079
36349W        W40417   7.676   5.723  14.075
36350W        W40418   9.671   5.985  12.763
36351W        W40419   8.107   5.634  12.005
36352W        W40420   8.478   6.641  13.400
36353W        W40421   8.856   4.060  12.441
36354W        W40422   7.467   6.044  11.371
36355W        W40423   8.986   4.995  11.241
36356W        W40424   7.632   5.544  12.260
36357W        W40425   8.922   4.186  13.724
36358W        W40426  10.594   3.895  11.151
36359W        W40427  10.687   5.641  14.250
36360W        W40428   9.341   6.898  14.402
36361W        W40429  10.899   5.992  13.924
36362W        W40430  10.307   6.790  14.535
36363W        W40431   8.046   7.246  13.013
36364W        W40432  10.905   5.868  11.887
36365W        W40433   9.435   5.135  12.400
36366W        W40434   9.202   3.747  12.290
36367W        W40435   8.261   6.731  12.127
36368W        W40436   8.760   4.472  13.352
36369W        W40437   8.460   3.841  12.821
36370W        W40438   7.523   6.663  11.369
36371W        W40439   9.339   6.027  12.087
36372W        W40440   8.214   6.822  13.966
36373W        W40441   7.691   5.645  11.662
36374W        W40442   7.576   4.188  12.661
36375W        W40443   9.124   6.153  12.718
36376W        W40444   7.376   4.007  11.738
36377W        W40445  10.040   5.213  13.665
36378W        W40446   9.917   4.599  11.237
36379W        W40447  10.434   6.271  12.885
36380W        W40448   9.095   6.755  12.716
36381W        W40449   8.507   6.859  11.627
36382W        W40450   9.789   3.762  11.057
36383W        W40451   7.589   7.022  12.798
36384W        W40452   9.786   4.780  14.433
36385W        W40453   7.769   4.310  14.432
36386W        W40454   7.500   4.910  11.765
36387W        W40455   8.191   4.899  11.490
36388W        W40456   9.954   5.226  14.307
36389W        W40457   8.297   5.507  13.016
36390W        W40458   9.771   3.793  12.136
36391W        W40459   8.902   7.224  12.639
36392W        W40460  10.116   6.686  13.576
36393W        W40461   9.700   6.835  12.687
36394W        W40462   9.719   5.815  12.281
36395W        W40463   9.181   4.040  11.352
36396W        W40464  10.862   3.668  12.074
36397W        W40465   8.550   5.303  11.237
36398W        W40466  10.716   4.640  12.227
36399W        W40467   9.408   5.810  11.104
36400W        W40468  10.344   6.010  13.852
36401W        W40469   9.998   6.711  11.319
36402W        W40470   8.613   4.386  14.225
36403W        W40471   8.433   4.970  13.466
36404W        W40472  10.525   6.465  13.743
36405W        W40473   9.625   4.415  14.120
36406W        W40474   7.469   4.886  13.897
36407W        W40475   9.229   5.363  13.623
36408W        W40476   7.586   6.121  12.280
36409W        W40477   7.733   5.418  13.170
36410W        W40478  10.050   5.704  13.520
36411W        W40479   9.822   7.084  14.331
36412W        W40480   9.718   4.823  13.884
36413W        W40481   9.995   6.877  12.289
36414W        W40482   8.997   6.597  13.612
36415W        W40483   8.482   6.952  12.881
36416W        W40484  10.287   6.123  13.300
36417W        W40485   9.337   6.195  14.437
36418W        W40486   7.942   6.148  12.776
36419W        W40487  10.288   5.907  12.421
36420W        W40488   9.929   6.973  13.172
36421W        W40489   7.907   6.702  13.042
36422W        W40490   8.928   4.754  14.252
36423W        W40491   9.379   6.920  11.763
36424W        W40492   8.687   6.175  14.401
36425W        W40493   8.813   6.413  11.778
36426W        W40494   8.034   5.153  11.037
36427W        W40495   7.373   7.239  17.936
36428W        W40496   7.749   6.132  17.459
36429W        W40497  10.454   5.862  15.229
36430W        W40498  10.584   6.947  17.256
36431W        W40499   8.502   6.938  14.782
36432W        W40500   8.585   5.090  15.765
36433W        W40501   8.100   4.938  15.929
36434W        W40502   9.091   5.753  15.363
36435W        W40503   8.766   6.845  17.718
36436W        W40504   7.415   4.406  17.681
36437W        W40505   8.177   3.686  17.483
36438W        W40506   9.871   4.074  16.370
36439W        W40507   9.520   4.945  14.940
36440W        W40508  10.090   4.379  18.031
36441W        W40509   7.456   4.171  17.156
36442W        W40510   7.555   6.790  18.177
36443W        W40511   9.077   6.180  14.909
36444W        W40512   7.509   4.963  16.602
36445W        W40513   8.402   4.854  17.839
36446W        W40514  10.861   4.713  16.338
36447W        W40515  10.625   5.756  17.197
36448W        W40516   8.933   5.089  16.224
36449W        W40517   9.479   6.428  16.593
36450W        W40518   7.979   5.862  16.825
36451W        W40519   7.338   5.390  16.396
36452W        W40520   8.374   5.362  17.588
36453W        W40521  10.645   5.145  17.842
36454W        W40522   8.261   6.589  16.287
36455W        W40523   9.382   6.278  17.421
36456W        W40524   8.602   4.918  16.646
36457W        W40525   8.894   5.702  16.289
36458W        W40526   9.891   6.475  18.137
36459W        W40527   8.970   5.795  18.147
36460W        W40528   8.951   5.511  17.625
36461W        W40529   7.360   4.902  18.147
36462W        W40530  10.192   6.437  17.746
36463W        W40531   7.773   4.019  15.744
36464W        W40532   8.300   6.277  16.743
36465W        W40533  10.763   6.060  16.033
36466W        W40534  10.176   4.460  16.600
36467W        W40535  10.461   4.413  14.695
36468W        W40536  10.926   5.214  17.001
36469W        W40537   8.893   6.921  16.754
36470W        W40538  10.667   6.387  15.192
36471W        W40539   7.796   7.173  14.946
36472W        W40540   8.189   7.219  15.622
36473W        W40541   7.986   3.973  17.048
36474W        W40542  10.609   4.991  17.323
36475W        W40543  10.014   5.413  15.782
36476W        W40544   9.980   5.101  14.809
36477W        W40545   9.188   6.245  16.949
36478W        W40546   8.994   4.575  16.148
36479W        W40547   9.594   6.662  17.142
36480W        W40548  10.465   5.453  15.564
36481W        W40549   9.367   4.111  15.580
36482W        W40550   8.024   6.805  15.263
36483W        W40551   7.395   4.304  15.862
36484W        W40552  10.181   4.911  16.336
36485W        W40553   7.639   6.528  16.251
36486W        W40554   8.980   6.878  15.121
36487W        W40555  10.372   4.904  14.585
36488W        W40556   7.395   6.662  16.749
36489W        W40557   8.186   6.234  17.229
36490W        W40558   8.559   5.594  15.848
36491W        W40559   8.581   3.999  16.941
36492W        W40560  10.810   3.761  16.238
36493W        W40561   8.029   5.633  14.706
36494W        W40562   7.684   4.666  14.885
36495W        W40563   7.746   6.622  15.679
36496W        W40564   8.877   6.105  15.927
36497W        W40565  10.209   6.964  17.641
36498W        W40566   9.135   4.606  15.325
36499W        W40567  10.518   7.004  16.097
36500W        W40568  10.195   4.857  17.695
36501W        W40569  10.908   6.513  15.829
36502W        W40570   9.535   5.805  17.313
36503W        W40571   7.301   5.356  15.519
36504W        W40572   8.412   5.771  17.092
36505W        W40573   9.616   5.035  15.470
36506W        W40574   9.493   5.525  15.574
36507W        W40575   7.836   4.945  17.048
36508W        W40576   7.821   4.821  17.970
36509W        W40577   7.711   3.738  16.129
36510W        W40578   9.479   4.085  16.690
36511W        W40579   9.127   4.270  17.853
36512W        W40580   9.482   4.419  15.031
36513W        W40581  10.665   6.812  17.785
36514W        W40582   9.632   3.893  17.824
36515W        W40583  10.651   6.194  17.946
36516W        W40584  10.081   4.361  17.542
36517W        W40585   9.881   4.299  15.812
36518W        W40586  10.274   5.433  18.216
36519W        W40587   8.014   7.009  16.202
36520W        W40588   8.672   4.726  15.188
36521W        W40589   8.241   4.010  17.852
36522W        W40590  10.293   4.494  15.533
36523W        W40591  10.660   4.976  15.478
36524W        W40592   8.403   7.193  17.949
36525W        W40593   8.329   3.729  15.184
36526W        W40594  10.650   4.263  16.219
36527W        W40595  10.800   6.512  14.664
36528W        W40596   7.707   5.715  16.366
36529W        W40597   9.624   4.302  14.596
36530W        W40598  10.758   6.634  16.316
36531W        W40599  10.797   3.828  17.066
36532W        W40600   9.242   5.040  17.620
36533W        W40601   9.335   6.379  15.323
36534W        W40602   9.735   5.673  18.063
36535W        W40603   9.409   3.650  16.372
36536W        W40604   8.021   4.553  16.435
36537W        W40605   7.575   5.753  17.209
36538W        W40606   9.434   6.946  15.915
36539W        W40607  10.628   4.543  16.787
36540W        W40608   9.265   6.890  17.554
36541W        W40609  10.608   5.949  14.759
36542W        W40610   9.043   5.432  15.820
36543W        W40611  10.895   3.943  17.561
36544W        W40612   9.044   5.778  17.155
36545W        W40613   9.261   4.664  16.600
36546W        W40614  10.113   4.962  15.438
36547W        W40615  10.400   4.695  15.080
36548W        W40616  10.209   6.735  15.469
36549W        W40617  10.043   6.338  16.265
36550W        W40618   9.939   5.417  15.243
36551W        W40619   9.372   5.627  16.229
36552W        W40620  10.253   5.415  16.296
36553W        W40621   7.628   4.430  16.720
36554W        W40622  10.406   5.482  17.547
36555W        W40623  10.757   7.100  16.693
36556W        W40624   8.687   6.544  16.095
36557W        W40625   9.694   7.077  17.419
36558W        W40626   9.688   4.407  17.183
36559W        W40627   8.895   7.115  17.244
36560W        W40628  10.592   4.069  15.710
36561W        W40629  10.383   5.388  17.011
36562W        W40630   7.366   4.709  17.049
36563W        W40631  10.226   4.504  16.067
36564W        W40632  10.637   4.655  17.844
36565W        W40633   9.522   6.354  16.062
36566W        W40634   8.778   6.945  15.675
36567W        W40635   7.893   4.125  14.933
36568W        W40636   8.997   3.779  16.743
36569W        W40637   8.025   6.899  14.591
36570W        W40638   8.399   5.365  15.342
36571W        W40639   9.053   5.994  17.655
36572W        W40640   8.883   4.352  15.645
36573W        W40641  10.239   3.949  16.073
36574W        W40642   9.959   7.231  16.401
36575W        W40643   9.371   6.879  16.741
36576W        W40644   8.767   5.916  16.702
36577W        W40645  10.537   6.639  16.828
36578W        W40646   8.231   4.142  15.597
36579W        W40647   8.753   6.439  16.557
36580W        W40648   8.236   4.370  14.622
36581W        W40649   9.037   4.979  17.016
36582W        W40650   9.885   3.845  16.886
36583W        W40651   7.305   5.688  16.771
36584W        W40652   9.009   5.506  14.929
36585W        W40653   8.277   3.821  14.699
36586W        W40654   9.015   4.902  15.750
36587W        W40655   9.985   3.878  17.449
36588W        W40656   8.573   5.890  17.558
36589W        W40657   9.377   5.672  17.775
36590W        W40658   9.994   5.702  17.668
36591W        W40659   9.278   3.842  18.173
36592W        W40660   8.500   4.458  16.566
36593W        W40661   7.926   4.414  15.964
36594W        W40662   7.712   7.126  15.640
36595W        W40663   9.044   6.456  17.765
36596W        W40664   8.079   5.941  15.124
36597W        W40665   9.759   5.326  16.345
36598W        W40666  10.039   5.125  16.744
36599W        W40667   9.244   5.799  16.678
36600W        W40668   9.714   6.173  14.810
36601W        W40669   9.386   4.194  16.138
36602W        W40670  10.865   4.472  15.406
36603W        W40671   7.359   7.061  17.437
36604W        W40672   7.776   6.287  16.969
36605W        W40673   7.343   7.133  15.201
36606W        W40674   9.242   4.403  17.007
36607W        W40675   8.605   6.426  14.856
36608W        W40676  10.510   6.808  15.042
36609W        W40677   9.485   5.461  15.056
36610W        W40678   8.328   4.652  15.573
36611W        W40679   9.160   4.562  14.625
36612W        W40680   9.744   6.127  17.803
36613W        W40681  10.097   4.033  15.420
36614W        W40682   7.427   3.881  14.868
36615W        W40683   8.713   6.200  17.158
36616W        W40684   8.512   6.116  16.250
36617W        W40685   8.254   6.068  14.648
36618W        W40686   7.495   6.309  15.416
36619W        W40687   7.999   5.379  17.858
36620W        W40688   8.703   3.939  18.044
36621W        W40689   9.412   4.081  17.400
36622W        W40690   8.607   3.849  15.681
36623W        W40691   9.666   3.926  15.186
36624W        W40692   7.611   3.858  16.763
36625W        W40693   7.659   4.821  16.133
36626W        W40694  10.348   3.929  16.539
36627W        W40695   7.770   4.427  15.353
36628W        W40696  10.341   4.115  16.969
36629W        W40697  10.737   5.318  14.654
36630W        W40698   8.029   4.076  16.473
36631W        W40699   9.143   4.648  17.413
36632W        W40700   7.291   4.338  14.891
36633W        W40701   8.077   5.727  17.452
36634W        W40702   9.435   5.125  16.631
36635W        W40703   9.302   7.204  14.927
36636W        W40704   7.448   5.711  14.624
36637W        W40705   8.183   6.122  17.750
36638W        W40706   7.704   5.289  17.381
36639W        W40707   8.695   5.394  17.175
36640W        W40708  10.463   3.753  17.437
36641W        W40709  10.861   5.363  17.428
36642W        W40710  10.849   5.563  15.114
36643W        W40711   9.712   5.895  15.213
36644W        W40712  10.186   7.195  14.908
36645W        W40713   9.363   5.185  18.050
36646W        W40714   7.693   6.152  18.090
36647W        W40715  10.899   4.074  18.042
36648W        W40716  10.617   5.002  16.663
36649W        W40717   8.925   7.132  18.140
36650W        W40718   8.780   3.761  14.867
36651W        W40719  10.319   6.360  14.810
36652W        W40720   8.088   4.453  17.696
36653W        W40721   8.522   6.447  17.558
36654W        W40722  10.648   4.438  17.356
36655W        W40723   9.859   7.097  15.324
36656W        W40724  10.098   5.716  16.691
36657W        W40725   8.348   4.132  17.358
36658W        W40726   8.817   5.201  18.115
36659W        W40727   8.320   6.380  15.309
36660W        W40728  10.075   5.878  15.573
36661W        W40729   7.843   4.504  17.297
36662W        W40730   9.172   6.566  15.761
36663W        W40731  10.922   5.126  15.942
36664W        W40732   9.144   3.759  17.661
36665W        W40733   9.924   6.464  16.740
36666W        W40734  10.227   6.808  16.448
36667W        W40735   9.446   6.610  14.876
36668W        W40736   7.456   6.502  17.718
36669W        W40737   8.199   4.494  16.956
36670W        W40738   8.169   3.842  16.066
36671W        W40739   9.790   4.684  16.758
36672W        W40740   8.588   5.855  14.958
36673W        W40741  10.586   5.797  16.457
36674W        W40742   7.913   6.555  17.880
36675W        W40743  10.300   7.237  15.677
36676W        W40744   8.399   4.257  16.122
36677W        W40745   8.168   5.750  16.212
36678W        W40746   8.481   7.161  16.962
36679W        W40747  10.548   7.257  17.994
36680W        W40748   9.707   5.445  16.927
36681W        W40749   7.556   5.243  14.842
36682W        W40750  10.690   6.901  15.539
36683W        W40751  10.527   4.225  15.158
36684W        W40752   8.666   3.744  17.561
36685W        W40753  10.372   6.546  16.019
36686W        W40754  10.401   5.102  15.924
36687W        W40755   8.518   4.775  16.140
36688W        W40756   8.763   5.037  17.464
36689W        W40757   9.874   6.190  17.327
36690W        W40758   8.524   4.644  17.439
36691W        W40759   8.503   7.110  16.055
36692W        W40760   7.820   7.069  17.689
36693W        W40761   7.932   6.430  14.819
36694W        W40762  10.449   6.188  15.629
36695W        W40763   8.053   4.980  17.515
36696W        W40764  10.826   4.910  14.996
36697W        W40765   8.571   5.967  15.467
36698W        W40766   9.670   5.349  17.548
36699W        W40767   9.561   4.977  17.092
36700W        W40768   8.121   5.349  17.121
36701W        W40769  10.331   7.237  16.950
36702W        W40770  10.122   3.871  17.944
36703W        W40771   7.786   4.021  17.531
36704W        W40772   8.125   5.044  16.584
36705W        W40773   8.494   4.858  14.706
36706W        W40774   7.297   6.617  17.251
36707W        W40775   8.882   5.326  16.694
36708W        W40776   8.705   4.351  14.799
36709W        W40777   7.840   5.167  15.580
36710W        W40778   7.611   7.019  17.017
36711W        W40779  10.406   5.245  15.125
36712W        W40780  10.501   4.161  17.811
36713W        W40781   9.937   6.370  15.774
36714W        W40782   7.535   5.294  17.951
36715W        W40783  10.501   3.758  15.247
36716W        W40784  10.021   6.233  15.258
36717W        W40785   8.923   5.291  15.343
36718W        W40786  10.110   4.095  14.866
36719W        W40787  10.175   4.702  17.052
36720W        W40788   7.884   5.295  16.259
36721W        W40789   8.178   6.234  15.908
36722W        W40790   9.941   4.854  15.873
36723W        W40791   8.964   4.233  16.569
36724W        W40792  10.926   6.144  17.080
36725W        W40793  10.844   4.131  16.641
36726W        W40794   7.383   6.961  16.017
36727W        W40795   7.892   6.148  15.553
36728W        W40796   7.807   3.765  18.106
36729W        W40797   8.926   6.618  18.208
36730W        W40798  10.681   5.586  15.998
36731W        W40799  10.035   5.763  14.878
36732W        W40800   9.330   7.284  17.090
36733W        W40801  10.187   6.006  18.127
36734W        W40802   9.002   3.716  15.407
36735W        W40803   9.715   4.585  16.266
36736W        W40804   7.401   6.172  16.598
36737W        W40805   8.654   4.134  15.239
36738W        W40806   8.458   5.618  18.088
36739W        W40807   9.452   4.599  15.802
36740W        W40808   9.657   6.009  16.924
36741W        W40809   7.811   6.614  17.359
36742W        W40810   8.402   6.597  18.082
36743W        W40811   8.253   4.394  15.096
36744W        W40812   9.770   4.536  15.421
36745W        W40813   9.728   6.644  17.658
36746W        W40814   8.413   5.236  16.257
36747W        W40815   8.068   6.934  17.122
36748W        W40816  10.813   7.051  14.723
36749W        W40817   7.676   5.723  17.719
36750W        W40818   9.671   5.985  16.407
36751W        W40819   8.107   5.634  15.649
36752W        W40820   8.478   6.641  17.044
36753W        W40821   8.856   4.060  16.085
36754W        W40822   7.467   6.044  15.015
36755W        W40823   8.986   4.995  14.885
36756W        W40824   7.632   5.544  15.904
36757W        W40825   8.922   4.186  17.368
36758W        W40826  10.594   3.895  14.795
36759W        W40827  10.687   5.641  17.894
36760W        W40828   9.341   6.898  18.046
36761W        W40829  10.899   5.992  17.568
36762W        W40830  10.307   6.790  18.179
36763W        W40831   8.046   7.246  16.657
36764W        W40832  10.905   5.868  15.531
36765W        W40833   9.435   5.135  16.044
36766W        W40834   9.202   3.747  15.934
36767W        W40835   8.261   6.731  15.771
36768W        W40836   8.760   4.472  16.996
36769W        W40837   8.460   3.841  16.465
36770W        W40838   7.523   6.663  15.013
36771W        W40839   9.339   6.027  15.731
36772W        W40840   8.214   6.822  17.610
36773W        W40841   7.691   5.645  15.306
36774W        W40842   7.576   4.188  16.305
36775W        W40843   9.124   6.153  16.362
36776W        W40844   7.376   4.007  15.382
36777W        W40845  10.040   5.213  17.309
36778W        W40846   9.917   4.599  14.881
36779W        W40847  10.434   6.271  16.529
36780W        W40848   9.095   6.755  16.360
36781W        W40849   8.507   6.859  15.271
36782W        W40850   9.789   3.762  14.701
36783W        W40851   7.589   7.022  16.442
36784W        W40852   9.786   4.780  18.077
36785W        W40853   7.769   4.310  18.076
36786W        W40854   7.500   4.910  15.409
36787W        W40855   8.191   4.899  15.134
36788W        W40856   9.954   5.226  17.951
36789W        W40857   8.297   5.507  16.660
36790W        W40858   9.771   3.793  15.780
36791W        W40859   8.902   7.224  16.283
36792W        W40860  10.116   6.686  17.220
36793W        W40861   9.700   6.835  16.331
36794W        W40862   9.719   5.815  15.925
36795W        W40863   9.181   4.040  14.996
36796W        W40864  10.862   3.668  15.718
36797W        W40865   8.550   5.303  14.881
36798W        W40866  10.716   4.640  15.871
36799W        W40867   9.408   5.810  14.748
36800W        W40868  10.344   6.010  17.496
36801W        W40869   9.998   6.711  14.963
36802W        W40870   8.613   4.386  17.869
36803W        W40871   8.433   4.970  17.110
36804W        W40872  10.525   6.465  17.387
36805W        W40873   9.625   4.415  17.764
36806W        W40874   7.469   4.886  17.541
36807W        W40875   9.229   5.363  17.267
36808W        W40876   7.586   6.121  15.924
36809W        W40877   7.733   5.418  16.814
36810W        W40878  10.050   5.704  17.164
36811W        W40879   9.822   7.084  17.975
36812W        W40880   9.718   4.823  17.528
36813W        W40881   9.995   6.877  15.933
36814W        W40882   8.997   6.597  17.256
36815W        W40883   8.482   6.952  16.525
36816W        W40884  10.287   6.123  16.944
36817W        W40885   9.337   6.195  18.081
36818W        W40886   7.942   6.148  16.420
36819W        W40887  10.288   5.907  16.065
36820W        W40888   9.929   6.973  16.816
36821W        W40889   7.907   6.702  16.686
36822W        W40890   8.928   4.754  17.896
36823W        W40891   9.379   6.920  15.407
36824W        W40892   8.687   6.175  18.045
36825W        W40893   8.813   6.413  15.422
36826W        W40894   8.034   5.153  14.681
36827W        W40895   7.373   7.239  21.580
36828W        W40896   7.749   6.132  21.103
36829W        W40897  10.454   5.862  18.873
36830W        W40898  10.584   6.947  20.900
36831W        W40899   8.502   6.938  18.426
36832W        W40900   8.585   5.090  19.409
36833W        W40901   8.100   4.938  19.573
36834W        W40902   9.091   5.753  19.007
36835W        W40903   8.766   6.845  21.362
36836W        W40904   7.415   4.406  21.325
36837W        W40905   8.177   3.686  21.127
36838W        W40906   9.871   4.074  20.014
36839W        W40907   9.520   4.945  18.584
36840W        W40908  10.090   4.379  21.675
36841W        W40909   7.456   4.171  20.800
36842W        W40910   7.555   6.790  21.821
36843W        W40911   9.077   6.180  18.553
36844W        W40912   7.509   4.963  20.246
36845W        W40913   8.402   4.854  21.483
36846W        W40914  10.861   4.713  19.982
36847W        W40915   8.933   5.089  19.868
36848W        W40916   9.479   6.428  20.237
36849W        W40917   7.979   5.862  20.469
36850W        W40918   7.338   5.390  20.040
36851W        W40919   8.374   5.362  21.232
36852W        W40920  10.645   5.145  21.486
36853W        W40921   8.261   6.589  19.931
36854W        W40922   9.382   6.278  21.065
36855W        W40923   8.602   4.918  20.290
36856W        W40924   8.894   5.702  19.933
36857W        W40925   9.891   6.475  21.781
36858W        W40926   8.970   5.795  21.791
36859W        W40927   8.951   5.511  21.269
36860W        W40928   7.360   4.902  21.791
36861W        W40929  10.192   6.437  21.390
36862W        W40930   7.773   4.019  19.388
36863W        W40931   8.300   6.277  20.387
36864W        W40932  10.763   6.060  19.677
36865W        W40933  10.176   4.460  20.244
36866W        W40934  10.461   4.413  18.339
36867W        W40935  10.926   5.214  20.645
36868W        W40936   8.893   6.921  20.398
36869W        W40937  10.667   6.387  18.836
36870W        W40938   7.796   7.173  18.590
36871W        W40939   8.189   7.219  19.266
36872W        W40940   7.986   3.973  20.692
36873W        W40941  10.609   4.991  20.967
36874W        W40942  10.014   5.413  19.426
36875W        W40943   9.980   5.101  18.453
36876W        W40944   9.188   6.245  20.593
36877W        W40945   8.994   4.575  19.792
36878W        W40946   9.594   6.662  20.786
36879W        W40947  10.465   5.453  19.208
36880W        W40948   9.367   4.111  19.224
36881W        W40949   8.024   6.805  18.907
36882W        W40950   7.395   4.304  19.506
36883W        W40951  10.181   4.911  19.980
36884W        W40952   7.639   6.528  19.895
36885W        W40953   8.980   6.878  18.765
36886W        W40954  10.372   4.904  18.229
36887W        W40955   7.395   6.662  20.393
36888W        W40956   8.186   6.234  20.873
36889W        W40957   8.559   5.594  19.492
36890W        W40958   8.581   3.999  20.585
36891W        W40959  10.810   3.761  19.882
36892W        W40960   8.029   5.633  18.350
36893W        W40961   7.684   4.666  18.529
36894W        W40962   7.746   6.622  19.323
36895W        W40963   8.877   6.105  19.571
36896W        W40964  10.209   6.964  21.285
36897W        W40965   9.135   4.606  18.969
36898W        W40966  10.518   7.004  19.741
36899W        W40967  10.195   4.857  21.339
36900W        W40968  10.908   6.513  19.473
36901W        W40969   9.535   5.805  20.957
36902W        W40970   7.301   5.356  19.163
36903W        W40971   8.412   5.771  20.736
36904W        W40972   9.616   5.035  19.114
36905W        W40973   9.493   5.525  19.218
36906W        W40974   7.836   4.945  20.692
36907W        W40975   7.821   4.821  21.614
36908W        W40976   7.711   3.738  19.773
36909W        W40977   9.479   4.085  20.334
36910W        W40978   9.127   4.270  21.497
36911W        W40979   9.482   4.419  18.675
36912W        W40980  10.665   6.812  21.429
36913W        W40981   9.632   3.893  21.468
36914W        W40982  10.651   6.194  21.590
36915W        W40983  10.081   4.361  21.186
36916W        W40984   9.881   4.299  19.456
36917W        W40985  10.274   5.433  21.860
36918W        W40986   8.014   7.009  19.846
36919W        W40987   8.672   4.726  18.832
36920W        W40988   8.241   4.010  21.496
36921W        W40989  10.293   4.494  19.177
36922W        W40990  10.660   4.976  19.122
36923W        W40991   8.403   7.193  21.593
36924W        W40992   8.329   3.729  18.828
36925W        W40993  10.650   4.263  19.863
36926W        W40994  10.800   6.512  18.308
36927W        W40995   7.707   5.715  20.010
36928W        W40996   9.624   4.302  18.240
36929W        W40997  10.758   6.634  19.960
36930W        W40998  10.797   3.828  20.710
36931W        W40999   9.242   5.040  21.264
36932W        W41000   9.335   6.379  18.967
36933W        W41001   9.735   5.673  21.707
36934W        W41002   9.409   3.650  20.016
36935W        W41003   8.021   4.553  20.079
36936W        W41004   7.575   5.753  20.853
36937W        W41005   9.434   6.946  19.559
36938W        W41006  10.628   4.543  20.431
36939W        W41007   9.265   6.890  21.198
36940W        W41008  10.608   5.949  18.403
36941W        W41009   9.043   5.432  19.464
36942W        W41010  10.895   3.943  21.205
36943W        W41011   9.044   5.778  20.799
36944W        W41012   9.261   4.664  20.244
36945W        W41013  10.113   4.962  19.082
36946W        W41014  10.400   4.695  18.724
36947W        W41015  10.209   6.735  19.113
36948W        W41016  10.043   6.338  19.909
36949W        W41017   9.939   5.417  18.887
36950W        W41018   9.372   5.627  19.873
36951W        W41019  10.253   5.415  19.940
36952W        W41020   7.628   4.430  20.364
36953W        W41021  10.406   5.482  21.191
36954W        W41022  10.757   7.100  20.337
36955W        W41023   8.687   6.544  19.739
36956W        W41024   9.694   7.077  21.063
36957W        W41025   9.688   4.407  20.827
36958W        W41026   8.895   7.115  20.888
36959W        W41027  10.592   4.069  19.354
36960W        W41028  10.383   5.388  20.655
36961W        W41029   7.366   4.709  20.693
36962W        W41030  10.226   4.504  19.711
36963W        W41031  10.637   4.655  21.488
36964W        W41032   9.522   6.354  19.706
36965W        W41033   8.778   6.945  19.319
36966W        W41034   7.893   4.125  18.577
36967W        W41035   8.997   3.779  20.387
36968W        W41036   8.025   6.899  18.235
36969W        W41037   8.399   5.365  18.986
36970W        W41038   9.053   5.994  21.299
36971W        W41039   8.883   4.352  19.289
36972W        W41040  10.239   3.949  19.717
36973W        W41041   9.959   7.231  20.045
36974W        W41042   9.371   6.879  20.385
36975W        W41043   8.767   5.916  20.346
36976W        W41044  10.537   6.639  20.472
36977W        W41045   8.231   4.142  19.241
36978W        W41046   8.753   6.439  20.201
36979W        W41047   8.236   4.370  18.266
36980W        W41048   9.037   4.979  20.660
36981W        W41049   9.885   3.845  20.530
36982W        W41050   7.305   5.688  20.415
36983W        W41051   9.009   5.506  18.573
36984W        W41052   8.277   3.821  18.343
36985W        W41053   9.015   4.902  19.394
36986W        W41054   9.985   3.878  21.093
36987W        W41055   8.573   5.890  21.202
36988W        W41056   9.377   5.672  21.419
36989W        W41057   9.994   5.702  21.312
36990W        W41058   9.278   3.842  21.817
36991W        W41059   8.500   4.458  20.210
36992W        W41060   7.926   4.414  19.608
36993W        W41061   7.712   7.126  19.284
36994W        W41062   9.044   6.456  21.409
36995W        W41063   8.079   5.941  18.768
36996W        W41064   9.759   5.326  19.989
36997W        W41065  10.039   5.125  20.388
36998W        W41066   9.244   5.799  20.322
36999W        W41067   9.714   6.173  18.454
37000W        W41068   9.386   4.194  19.782
37001W        W41069  10.865   4.472  19.050
37002W        W41070   7.359   7.061  21.081
37003W        W41071   7.776   6.287  20.613
37004W        W41072   7.343   7.133  18.845
37005W        W41073   9.242   4.403  20.651
37006W        W41074   8.605   6.426  18.500
37007W        W41075  10.510   6.808  18.686
37008W        W41076   9.485   5.461  18.700
37009W        W41077   8.328   4.652  19.217
37010W        W41078   9.160   4.562  18.269
37011W        W41079   9.744   6.127  21.447
37012W        W41080  10.097   4.033  19.064
37013W        W41081   7.427   3.881  18.512
37014W        W41082   8.713   6.200  20.802
37015W        W41083   8.512   6.116  19.894
37016W        W41084   8.254   6.068  18.292
37017W        W41085   7.495   6.309  19.060
37018W        W41086   7.999   5.379  21.502
37019W        W41087   8.703   3.939  21.688
37020W        W41088   9.412   4.081  21.044
37021W        W41089   8.607   3.849  19.325
37022W        W41090   9.666   3.926  18.830
37023W        W41091   7.611   3.858  20.407
37024W        W41092   7.659   4.821  19.777
37025W        W41093  10.348   3.929  20.183
37026W        W41094   7.770   4.427  18.997
37027W        W41095  10.341   4.115  20.613
37028W        W41096  10.737   5.318  18.298
37029W        W41097   8.029   4.076  20.117
37030W        W41098   9.143   4.648  21.057
37031W        W41099   7.291   4.338  18.535
37032W        W41100   8.077   5.727  21.096
37033W        W41101   9.435   5.125  20.275
37034W        W41102   9.302   7.204  18.571
37035W        W41103   7.448   5.711  18.268
37036W        W41104   8.183   6.122  21.394
37037W        W41105   7.704   5.289  21.025
37038W        W41106   8.695   5.394  20.819
37039W        W41107  10.463   3.753  21.081
37040W        W41108  10.861   5.363  21.072
37041W        W41109  10.849   5.563  18.758
37042W        W41110   9.712   5.895  18.857
37043W        W41111  10.186   7.195  18.552
37044W        W41112   9.363   5.185  21.694
37045W        W41113   7.693   6.152  21.734
37046W        W41114  10.899   4.074  21.686
37047W        W41115  10.617   5.002  20.307
37048W        W41116   8.925   7.132  21.784
37049W        W41117   8.780   3.761  18.511
37050W        W41118  10.319   6.360  18.454
37051W        W41119   8.088   4.453  21.340
37052W        W41120   8.522   6.447  21.202
37053W        W41121  10.648   4.438  21.000
37054W        W41122   9.859   7.097  18.968
37055W        W41123  10.098   5.716  20.335
37056W        W41124   8.348   4.132  21.002
37057W        W41125   8.817   5.201  21.759
37058W        W41126   8.320   6.380  18.953
37059W        W41127  10.075   5.878  19.217
37060W        W41128   7.843   4.504  20.941
37061W        W41129   9.172   6.566  19.405
37062W        W41130  10.922   5.126  19.586
37063W        W41131   9.144   3.759  21.305
37064W        W41132   9.924   6.464  20.384
37065W        W41133  10.227   6.808  20.092
37066W        W41134   9.446   6.610  18.520
37067W        W41135   7.456   6.502  21.362
37068W        W41136   8.199   4.494  20.600
37069W        W41137   8.169   3.842  19.710
37070W        W41138   9.790   4.684  20.402
37071W        W41139   8.588   5.855  18.602
37072W        W41140  10.586   5.797  20.101
37073W        W41141   7.913   6.555  21.524
37074W        W41142  10.300   7.237  19.321
37075W        W41143   8.399   4.257  19.766
37076W        W41144   8.168   5.750  19.856
37077W        W41145   8.481   7.161  20.606
37078W        W41146  10.548   7.257  21.638
37079W        W41147   9.707   5.445  20.571
37080W        W41148   7.556   5.243  18.486
37081W        W41149  10.690   6.901  19.183
37082W        W41150  10.527   4.225  18.802
37083W        W41151   8.666   3.744  21.205
37084W        W41152  10.372   6.546  19.663
37085W        W41153  10.401   5.102  19.568
37086W        W41154   8.518   4.775  19.784
37087W        W41155   8.763   5.037  21.108
37088W        W41156   9.874   6.190  20.971
37089W        W41157   8.524   4.644  21.083
37090W        W41158   8.503   7.110  19.699
37091W        W41159   7.820   7.069  21.333
37092W        W41160   7.932   6.430  18.463
37093W        W41161  10.449   6.188  19.273
37094W        W41162   8.053   4.980  21.159
37095W        W41163  10.826   4.910  18.640
37096W        W41164   8.571   5.967  19.111
37097W        W41165   9.670   5.349  21.192
37098W        W41166   9.561   4.977  20.736
37099W        W41167   8.121   5.349  20.765
37100W        W41168  10.331   7.237  20.594
37101W        W41169  10.122   3.871  21.588
37102W        W41170   7.786   4.021  21.175
37103W        W41171   8.125   5.044  20.228
37104W        W41172   8.494   4.858  18.350
37105W        W41173   7.297   6.617  20.895
37106W        W41174   8.882   5.326  20.338
37107W        W41175   8.705   4.351  18.443
37108W        W41176   7.840   5.167  19.224
37109W        W41177   7.611   7.019  20.661
37110W        W41178  10.406   5.245  18.769
37111W        W41179  10.501   4.161  21.455
37112W        W41180   9.937   6.370  19.418
37113W        W41181   7.535   5.294  21.595
37114W        W41182  10.501   3.758  18.891
37115W        W41183  10.021   6.233  18.902
37116W        W41184   8.923   5.291  18.987
37117W        W41185  10.110   4.095  18.510
37118W        W41186  10.175   4.702  20.696
37119W        W41187   7.884   5.295  19.903
37120W        W41188   8.178   6.234  19.552
37121W        W41189   9.941   4.854  19.517
37122W        W41190   8.964   4.233  20.213
37123W        W41191  10.844   4.131  20.285
37124W        W41192   7.383   6.961  19.661
37125W        W41193   7.892   6.148  19.197
37126W        W41194   7.807   3.765  21.750
37127W        W41195   8.926   6.618  21.852
37128W        W41196  10.681   5.586  19.642
37129W        W41197  10.035   5.763  18.522
37130W        W41198   9.330   7.284  20.734
37131W        W41199  10.187   6.006  21.771
37132W        W41200   9.002   3.716  19.051
37133W        W41201   9.715   4.585  19.910
37134W        W41202   7.401   6.172  20.242
37135W        W41203   8.654   4.134  18.883
37136W        W41204   8.458   5.618  21.732
37137W        W41205   9.452   4.599  19.446
37138W        W41206   9.657   6.009  20.568
37139W        W41207   7.811   6.614  21.003
37140W        W41208   8.402   6.597  21.726
37141W        W41209   8.253   4.394  18.740
37142W        W41210   9.770   4.536  19.065
37143W        W41211   9.728   6.644  21.302
37144W        W41212   8.413   5.236  19.901
37145W        W41213   8.068   6.934  20.766
37146W        W41214  10.813   7.051  18.367
37147W        W41215   7.676   5.723  21.363
37148W        W41216   9.671   5.985  20.051
37149W        W41217   8.107   5.634  19.293
37150W        W41218   8.478   6.641  20.688
37151W        W41219   8.856   4.060  19.729
37152W        W41220   7.467   6.044  18.659
37153W        W41221   8.986   4.995  18.529
37154W        W41222   7.632   5.544  19.548
37155W        W41223   8.922   4.186  21.012
37156W        W41224  10.594   3.895  18.439
37157W        W41225  10.687   5.641  21.538
37158W        W41226   9.341   6.898  21.690
37159W        W41227  10.899   5.992  21.212
37160W        W41228  10.307   6.790  21.823
37161W        W41229   8.046   7.246  20.301
37162W        W41230  10.905   5.868  19.175
37163W        W41231   9.435   5.135  19.688
37164W        W41232   9.202   3.747  19.578
37165W        W41233   8.261   6.731  19.415
37166W        W41234   8.760   4.472  20.640
37167W        W41235   8.460   3.841  20.109
37168W        W41236   7.523   6.663  18.657
37169W        W41237   9.339   6.027  19.375
37170W        W41238   8.214   6.822  21.254
37171W        W41239   7.691   5.645  18.950
37172W        W41240   7.576   4.188  19.949
37173W        W41241   9.124   6.153  20.006
37174W        W41242   7.376   4.007  19.026
37175W        W41243  10.040   5.213  20.953
37176W        W41244   9.917   4.599  18.525
37177W        W41245  10.434   6.271  20.173
37178W        W41246   9.095   6.755  20.004
37179W        W41247   8.507   6.859  18.915
37180W        W41248   9.789   3.762  18.345
37181W        W41249   7.589   7.022  20.086
37182W        W41250   9.786   4.780  21.721
37183W        W41251   7.769   4.310  21.720
37184W        W41252   7.500   4.910  19.053
37185W        W41253   8.191   4.899  18.778
37186W        W41254   9.954   5.226  21.595
37187W        W41255   8.297   5.507  20.304
37188W        W41256   9.771   3.793  19.424
37189W        W41257   8.902   7.224  19.927
37190W        W41258  10.116   6.686  20.864
37191W        W41259   9.700   6.835  19.975
37192W        W41260   9.719   5.815  19.569
37193W        W41261   9.181   4.040  18.640
37194W        W41262  10.862   3.668  19.362
37195W        W41263   8.550   5.303  18.525
37196W        W41264  10.716   4.640  19.515
37197W        W41265   9.408   5.810  18.392
37198W        W41266  10.344   6.010  21.140
37199W        W41267   9.998   6.711  18.607
37200W        W41268   8.613   4.386  21.513
37201W        W41269   8.433   4.970  20.754
37202W        W41270  10.525   6.465  21.031
37203W        W41271   9.625   4.415  21.408
37204W        W41272   7.469   4.886  21.185
37205W        W41273   9.229   5.363  20.911
37206W        W41274   7.586   6.121  19.568
37207W        W41275   7.733   5.418  20.458
37208W        W41276  10.050   5.704  20.808
37209W        W41277   9.822   7.084  21.619
37210W        W41278   9.718   4.823  21.172
37211W        W41279   9.995   6.877  19.577
37212W        W41280   8.997   6.597  20.900
37213W        W41281   8.482   6.952  20.169
37214W        W41282  10.287   6.123  20.588
37215W        W41283   9.337   6.195  21.725
37216W        W41284   7.942   6.148  20.064
37217W        W41285  10.288   5.907  19.709
37218W        W41286   9.929   6.973  20.460
37219W        W41287   7.907   6.702  20.330
37220W        W41288   8.928   4.754  21.540
37221W        W41289   9.379   6.920  19.051
37222W        W41290   8.687   6.175  21.689
37223W        W41291   8.813   6.413  19.066
37224W        W41292   8.034   5.153  18.325
37225W        W41293  10.454   5.862  22.518
37226W        W41294   8.502   6.938  22.071
37227W        W41295   8.585   5.090  23.054
37228W        W41296   8.100   4.938  23.218
37229W        W41297   9.091   5.753  22.652
37230W        W41298   9.520   4.945  22.229
37231W        W41299   9.077   6.180  22.198
37232W        W41300   7.773   4.019  23.033
37233W        W41301  10.461   4.413  21.984
37234W        W41302  10.667   6.387  22.481
37235W        W41303   7.796   7.173  22.235
37236W        W41304   8.189   7.219  22.911
37237W        W41305  10.014   5.413  23.071
37238W        W41306   9.980   5.101  22.098
37239W        W41307  10.465   5.453  22.853
37240W        W41308   9.367   4.111  22.869
37241W        W41309   8.024   6.805  22.552
37242W        W41310   8.980   6.878  22.410
37243W        W41311  10.372   4.904  21.874
37244W        W41312   8.559   5.594  23.137
37245W        W41313   8.029   5.633  21.995
37246W        W41314   7.684   4.666  22.174
37247W        W41315   7.746   6.622  22.968
37248W        W41316   8.877   6.105  23.216
37249W        W41317   9.135   4.606  22.614
37250W        W41318   7.301   5.356  22.808
37251W        W41319   9.616   5.035  22.759
37252W        W41320   9.493   5.525  22.863
37253W        W41321   9.482   4.419  22.320
37254W        W41322   9.881   4.299  23.101
37255W        W41323   8.672   4.726  22.477
37256W        W41324  10.293   4.494  22.822
37257W        W41325  10.660   4.976  22.767
37258W        W41326   8.329   3.729  22.473
37259W        W41327  10.800   6.512  21.953
37260W        W41328   9.624   4.302  21.885
37261W        W41329   9.335   6.379  22.612
37262W        W41330   9.434   6.946  23.204
37263W        W41331  10.608   5.949  22.048
37264W        W41332   9.043   5.432  23.109
37265W        W41333  10.113   4.962  22.727
37266W        W41334  10.400   4.695  22.369
37267W        W41335  10.209   6.735  22.758
37268W        W41336   9.939   5.417  22.532
37269W        W41337  10.592   4.069  22.999
37270W        W41338   8.778   6.945  22.964
37271W        W41339   7.893   4.125  22.222
37272W        W41340   8.025   6.899  21.880
37273W        W41341   8.399   5.365  22.631
37274W        W41342   8.883   4.352  22.934
37275W        W41343   8.231   4.142  22.886
37276W        W41344   8.236   4.370  21.911
37277W        W41345   9.009   5.506  22.218
37278W        W41346   8.277   3.821  21.988
37279W        W41347   9.015   4.902  23.039
37280W        W41348   7.926   4.414  23.253
37281W        W41349   7.712   7.126  22.929
37282W        W41350   8.079   5.941  22.413
37283W        W41351   9.714   6.173  22.099
37284W        W41352  10.865   4.472  22.695
37285W        W41353   7.343   7.133  22.490
37286W        W41354   8.605   6.426  22.145
37287W        W41355  10.510   6.808  22.331
37288W        W41356   9.485   5.461  22.345
37289W        W41357   8.328   4.652  22.862
37290W        W41358   9.160   4.562  21.914
37291W        W41359  10.097   4.033  22.709
37292W        W41360   7.427   3.881  22.157
37293W        W41361   8.254   6.068  21.937
37294W        W41362   7.495   6.309  22.705
37295W        W41363   8.607   3.849  22.970
37296W        W41364   9.666   3.926  22.475
37297W        W41365   7.770   4.427  22.642
37298W        W41366  10.737   5.318  21.943
37299W        W41367   7.291   4.338  22.180
37300W        W41368   9.302   7.204  22.216
37301W        W41369   7.448   5.711  21.913
37302W        W41370  10.849   5.563  22.403
37303W        W41371   9.712   5.895  22.502
37304W        W41372  10.186   7.195  22.197
37305W        W41373   8.780   3.761  22.156
37306W        W41374  10.319   6.360  22.099
37307W        W41375   9.859   7.097  22.613
37308W        W41376   8.320   6.380  22.598
37309W        W41377  10.075   5.878  22.862
37310W        W41378   9.172   6.566  23.050
37311W        W41379  10.922   5.126  23.231
37312W        W41380   9.446   6.610  22.165
37313W        W41381   8.588   5.855  22.247
37314W        W41382  10.300   7.237  22.966
37315W        W41383   7.556   5.243  22.131
37316W        W41384  10.690   6.901  22.828
37317W        W41385  10.527   4.225  22.447
37318W        W41386  10.401   5.102  23.213
37319W        W41387   7.932   6.430  22.108
37320W        W41388  10.449   6.188  22.918
37321W        W41389  10.826   4.910  22.285
37322W        W41390   8.571   5.967  22.756
37323W        W41391   8.494   4.858  21.995
37324W        W41392   8.705   4.351  22.088
37325W        W41393   7.840   5.167  22.869
37326W        W41394  10.406   5.245  22.414
37327W        W41395   9.937   6.370  23.063
37328W        W41396  10.501   3.758  22.536
37329W        W41397  10.021   6.233  22.547
37330W        W41398   8.923   5.291  22.632
37331W        W41399  10.110   4.095  22.155
37332W        W41400   8.178   6.234  23.197
37333W        W41401   9.941   4.854  23.162
37334W        W41402   7.383   6.961  23.306
37335W        W41403   7.892   6.148  22.842
37336W        W41404  10.681   5.586  23.287
37337W        W41405  10.035   5.763  22.167
37338W        W41406   9.002   3.716  22.696
37339W        W41407   8.654   4.134  22.528
37340W        W41408   9.452   4.599  23.091
37341W        W41409   8.253   4.394  22.385
37342W        W41410   9.770   4.536  22.710
37343W        W41411  10.813   7.051  22.012
37344W        W41412   7.467   6.044  22.304
37345W        W41413   8.986   4.995  22.174
37346W        W41414   7.632   5.544  23.193
37347W        W41415  10.594   3.895  22.084
37348W        W41416  10.905   5.868  22.820
37349W        W41417   9.202   3.747  23.223
37350W        W41418   8.261   6.731  23.060
37351W        W41419   7.523   6.663  22.302
37352W        W41420   9.339   6.027  23.020
37353W        W41421   7.691   5.645  22.595
37354W        W41422   7.376   4.007  22.671
37355W        W41423   9.917   4.599  22.170
37356W        W41424   8.507   6.859  22.560
37357W        W41425   9.789   3.762  21.990
37358W        W41426   7.500   4.910  22.698
37359W        W41427   8.191   4.899  22.423
37360W        W41428   9.719   5.815  23.214
37361W        W41429   9.181   4.040  22.285
37362W        W41430  10.862   3.668  23.007
37363W        W41431   8.550   5.303  22.170
37364W        W41432  10.716   4.640  23.160
37365W        W41433   9.408   5.810  22.037
37366W        W41434   9.998   6.711  22.252
37367W        W41435   7.586   6.121  23.213
37368W        W41436   9.995   6.877  23.222
37369W        W41437   9.379   6.920  22.696
37370W        W41438   8.813   6.413  22.711
37371W        W41439   8.034   5.153  21.970
37372W        W41440   7.373  10.884   3.359
37373W        W41441   7.749   9.777   2.882
37374W        W41442  10.454   9.507   0.652
37375W        W41443  10.584  10.592   2.679
37376W        W41444   8.502  10.583   0.205
37377W        W41445   8.585   8.735   1.188
37378W        W41446   8.100   8.583   1.352
37379W        W41447   9.091   9.398   0.786
37380W        W41448   8.766  10.490   3.141
37381W        W41449   7.415   8.051   3.104
37382W        W41450   8.177   7.331   2.906
37383W        W41451   9.871   7.719   1.793
37384W        W41452   9.520   8.590   0.363
37385W        W41453  10.090   8.024   3.454
37386W        W41454   7.456   7.816   2.579
37387W        W41455   7.555  10.435   3.600
37388W        W41456   9.077   9.825   0.332
37389W        W41457   7.509   8.608   2.025
37390W        W41458   8.402   8.499   3.262
37391W        W41459  10.861   8.358   1.761
37392W        W41460  10.625   9.401   2.620
37393W        W41461   8.933   8.734   1.647
37394W        W41462   9.479  10.073   2.016
37395W        W41463   7.979   9.507   2.248
37396W        W41464   7.338   9.035   1.819
37397W        W41465   8.374   9.007   3.011
37398W        W41466  10.645   8.790   3.265
37399W        W41467   8.261  10.234   1.710
37400W        W41468   9.382   9.923   2.844
37401W        W41469   8.602   8.563   2.069
37402W        W41470   8.894   9.347   1.712
37403W        W41471   9.891  10.120   3.560
37404W        W41472   8.970   9.440   3.570
37405W        W41473   8.951   9.156   3.048
37406W        W41474   7.360   8.547   3.570
37407W        W41475  10.192  10.082   3.169
37408W        W41476   7.773   7.664   1.167
37409W        W41477   8.300   9.922   2.166
37410W        W41478  10.763   9.705   1.456
37411W        W41479  10.176   8.105   2.023
37412W        W41480  10.461   8.058   0.118
37413W        W41481  10.926   8.859   2.424
37414W        W41482   8.893  10.566   2.177
37415W        W41483  10.667  10.032   0.615
37416W        W41484   7.796  10.818   0.369
37417W        W41485   8.189  10.864   1.045
37418W        W41486   7.986   7.618   2.471
37419W        W41487  10.609   8.636   2.746
37420W        W41488  10.014   9.058   1.205
37421W        W41489   9.980   8.746   0.232
37422W        W41490   9.188   9.890   2.372
37423W        W41491   8.994   8.220   1.571
37424W        W41492   9.594  10.307   2.565
37425W        W41493  10.465   9.098   0.987
37426W        W41494   9.367   7.756   1.003
37427W        W41495   8.024  10.450   0.686
37428W        W41496   7.395   7.949   1.285
37429W        W41497  10.181   8.556   1.759
37430W        W41498   7.639  10.173   1.674
37431W        W41499   8.980  10.523   0.544
37432W        W41500  10.372   8.549   0.008
37433W        W41501   7.395  10.307   2.172
37434W        W41502   8.186   9.879   2.652
37435W        W41503   8.559   9.239   1.271
37436W        W41504   8.581   7.644   2.364
37437W        W41505  10.810   7.406   1.661
37438W        W41506   8.029   9.278   0.129
37439W        W41507   7.684   8.311   0.308
37440W        W41508   7.746  10.267   1.102
37441W        W41509   8.877   9.750   1.350
37442W        W41510  10.209  10.609   3.064
37443W        W41511   9.135   8.251   0.748
37444W        W41512  10.518  10.649   1.520
37445W        W41513  10.195   8.502   3.118
37446W        W41514  10.908  10.158   1.252
37447W        W41515   9.535   9.450   2.736
37448W        W41516   7.301   9.001   0.942
37449W        W41517   8.412   9.416   2.515
37450W        W41518   9.616   8.680   0.893
37451W        W41519   9.493   9.170   0.997
37452W        W41520   7.836   8.590   2.471
37453W        W41521   7.821   8.466   3.393
37454W        W41522   7.711   7.383   1.552
37455W        W41523   9.479   7.730   2.113
37456W        W41524   9.127   7.915   3.276
37457W        W41525   9.482   8.064   0.454
37458W        W41526  10.665  10.457   3.208
37459W        W41527   9.632   7.538   3.247
37460W        W41528  10.651   9.839   3.369
37461W        W41529  10.081   8.006   2.965
37462W        W41530   9.881   7.944   1.235
37463W        W41531  10.274   9.078   3.639
37464W        W41532   8.014  10.654   1.625
37465W        W41533   8.672   8.371   0.611
37466W        W41534   8.241   7.655   3.275
37467W        W41535  10.293   8.139   0.956
37468W        W41536  10.660   8.621   0.901
37469W        W41537   8.403  10.838   3.372
37470W        W41538   8.329   7.374   0.607
37471W        W41539  10.650   7.908   1.642
37472W        W41540  10.800  10.157   0.087
37473W        W41541   7.707   9.360   1.789
37474W        W41542   9.624   7.947   0.019
37475W        W41543  10.758  10.279   1.739
37476W        W41544  10.797   7.473   2.489
37477W        W41545   9.242   8.685   3.043
37478W        W41546   9.335  10.024   0.746
37479W        W41547   9.735   9.318   3.486
37480W        W41548   9.409   7.295   1.795
37481W        W41549   8.021   8.198   1.858
37482W        W41550   7.575   9.398   2.632
37483W        W41551   9.434  10.591   1.338
37484W        W41552  10.628   8.188   2.210
37485W        W41553   9.265  10.535   2.977
37486W        W41554  10.608   9.594   0.182
37487W        W41555   9.043   9.077   1.243
37488W        W41556  10.895   7.588   2.984
37489W        W41557   9.044   9.423   2.578
37490W        W41558   9.261   8.309   2.023
37491W        W41559  10.113   8.607   0.861
37492W        W41560  10.400   8.340   0.503
37493W        W41561  10.209  10.380   0.892
37494W        W41562  10.043   9.983   1.688
37495W        W41563   9.939   9.062   0.666
37496W        W41564   9.372   9.272   1.652
37497W        W41565  10.253   9.060   1.719
37498W        W41566   7.628   8.075   2.143
37499W        W41567  10.406   9.127   2.970
37500W        W41568  10.757  10.745   2.116
37501W        W41569   8.687  10.189   1.518
37502W        W41570   9.694  10.722   2.842
37503W        W41571   9.688   8.052   2.606
37504W        W41572   8.895  10.760   2.667
37505W        W41573  10.592   7.714   1.133
37506W        W41574  10.383   9.033   2.434
37507W        W41575   7.366   8.354   2.472
37508W        W41576  10.226   8.149   1.490
37509W        W41577  10.637   8.300   3.267
37510W        W41578   9.522   9.999   1.485
37511W        W41579   8.778  10.590   1.098
37512W        W41580   7.893   7.770   0.356
37513W        W41581   8.997   7.424   2.166
37514W        W41582   8.025  10.544   0.014
37515W        W41583   8.399   9.010   0.765
37516W        W41584   9.053   9.639   3.078
37517W        W41585   8.883   7.997   1.068
37518W        W41586  10.239   7.594   1.496
37519W        W41587   9.959  10.876   1.824
37520W        W41588   9.371  10.524   2.164
37521W        W41589   8.767   9.561   2.125
37522W        W41590  10.537  10.284   2.251
37523W        W41591   8.231   7.787   1.020
37524W        W41592   8.753  10.084   1.980
37525W        W41593   8.236   8.015   0.045
37526W        W41594   9.037   8.624   2.439
37527W        W41595   9.885   7.490   2.309
37528W        W41596   7.305   9.333   2.194
37529W        W41597   9.009   9.151   0.352
37530W        W41598   8.277   7.466   0.122
37531W        W41599   9.015   8.547   1.173
37532W        W41600   9.985   7.523   2.872
37533W        W41601   8.573   9.535   2.981
37534W        W41602   9.377   9.317   3.198
37535W        W41603   9.994   9.347   3.091
37536W        W41604   9.278   7.487   3.596
37537W        W41605   8.500   8.103   1.989
37538W        W41606   7.926   8.059   1.387
37539W        W41607   7.712  10.771   1.063
37540W        W41608   9.044  10.101   3.188
37541W        W41609   8.079   9.586   0.547
37542W        W41610   9.759   8.971   1.768
37543W        W41611  10.039   8.770   2.167
37544W        W41612   9.244   9.444   2.101
37545W        W41613   9.714   9.818   0.233
37546W        W41614   9.386   7.839   1.561
37547W        W41615  10.865   8.117   0.829
37548W        W41616   7.359  10.706   2.860
37549W        W41617   7.776   9.932   2.392
37550W        W41618   7.343  10.778   0.624
37551W        W41619   9.242   8.048   2.430
37552W        W41620   8.605  10.071   0.279
37553W        W41621  10.510  10.453   0.465
37554W        W41622   9.485   9.106   0.479
37555W        W41623   8.328   8.297   0.996
37556W        W41624   9.160   8.207   0.048
37557W        W41625   9.744   9.772   3.226
37558W        W41626  10.097   7.678   0.843
37559W        W41627   7.427   7.526   0.291
37560W        W41628   8.713   9.845   2.581
37561W        W41629   8.512   9.761   1.673
37562W        W41630   8.254   9.713   0.071
37563W        W41631   7.495   9.954   0.839
37564W        W41632   7.999   9.024   3.281
37565W        W41633   8.703   7.584   3.467
37566W        W41634   9.412   7.726   2.823
37567W        W41635   8.607   7.494   1.104
37568W        W41636   9.666   7.571   0.609
37569W        W41637   7.611   7.503   2.186
37570W        W41638   7.659   8.466   1.556
37571W        W41639  10.348   7.574   1.962
37572W        W41640   7.770   8.072   0.776
37573W        W41641  10.341   7.760   2.392
37574W        W41642  10.737   8.963   0.077
37575W        W41643   8.029   7.721   1.896
37576W        W41644   9.143   8.293   2.836
37577W        W41645   7.291   7.983   0.314
37578W        W41646   8.077   9.372   2.875
37579W        W41647   9.435   8.770   2.054
37580W        W41648   9.302  10.849   0.350
37581W        W41649   7.448   9.356   0.047
37582W        W41650   8.183   9.767   3.173
37583W        W41651   7.704   8.934   2.804
37584W        W41652   8.695   9.039   2.598
37585W        W41653  10.463   7.398   2.860
37586W        W41654  10.861   9.008   2.851
37587W        W41655  10.849   9.208   0.537
37588W        W41656   9.712   9.540   0.636
37589W        W41657  10.186  10.840   0.331
37590W        W41658   9.363   8.830   3.473
37591W        W41659   7.693   9.797   3.513
37592W        W41660  10.899   7.719   3.465
37593W        W41661  10.617   8.647   2.086
37594W        W41662   8.925  10.777   3.563
37595W        W41663   8.780   7.406   0.290
37596W        W41664  10.319  10.005   0.233
37597W        W41665   8.088   8.098   3.119
37598W        W41666   8.522  10.092   2.981
37599W        W41667  10.648   8.083   2.779
37600W        W41668   9.859  10.742   0.747
37601W        W41669  10.098   9.361   2.114
37602W        W41670   8.348   7.777   2.781
37603W        W41671   8.817   8.846   3.538
37604W        W41672   8.320  10.025   0.732
37605W        W41673  10.075   9.523   0.996
37606W        W41674   7.843   8.149   2.720
37607W        W41675   9.172  10.211   1.184
37608W        W41676  10.922   8.771   1.365
37609W        W41677   9.144   7.404   3.084
37610W        W41678   9.924  10.109   2.163
37611W        W41679  10.227  10.453   1.871
37612W        W41680   9.446  10.255   0.299
37613W        W41681   7.456  10.147   3.141
37614W        W41682   8.199   8.139   2.379
37615W        W41683   8.169   7.487   1.489
37616W        W41684   9.790   8.329   2.181
37617W        W41685   8.588   9.500   0.381
37618W        W41686  10.586   9.442   1.880
37619W        W41687   7.913  10.200   3.303
37620W        W41688  10.300  10.882   1.100
37621W        W41689   8.399   7.902   1.545
37622W        W41690   8.168   9.395   1.635
37623W        W41691   8.481  10.806   2.385
37624W        W41692  10.548  10.902   3.417
37625W        W41693   9.707   9.090   2.350
37626W        W41694   7.556   8.888   0.265
37627W        W41695  10.690  10.546   0.962
37628W        W41696  10.527   7.870   0.581
37629W        W41697   8.666   7.389   2.984
37630W        W41698  10.372  10.191   1.442
37631W        W41699  10.401   8.747   1.347
37632W        W41700   8.518   8.420   1.563
37633W        W41701   8.763   8.682   2.887
37634W        W41702   9.874   9.835   2.750
37635W        W41703   8.524   8.289   2.862
37636W        W41704   8.503  10.755   1.478
37637W        W41705   7.820  10.714   3.112
37638W        W41706   7.932  10.075   0.242
37639W        W41707  10.449   9.833   1.052
37640W        W41708   8.053   8.625   2.938
37641W        W41709  10.826   8.555   0.419
37642W        W41710   8.571   9.612   0.890
37643W        W41711   9.670   8.994   2.971
37644W        W41712   9.561   8.622   2.515
37645W        W41713   8.121   8.994   2.544
37646W        W41714  10.331  10.882   2.373
37647W        W41715  10.122   7.516   3.367
37648W        W41716   7.786   7.666   2.954
37649W        W41717   8.125   8.689   2.007
37650W        W41718   8.494   8.503   0.129
37651W        W41719   7.297  10.262   2.674
37652W        W41720   8.882   8.971   2.117
37653W        W41721   8.705   7.996   0.222
37654W        W41722   7.840   8.812   1.003
37655W        W41723   7.611  10.664   2.440
37656W        W41724  10.406   8.890   0.548
37657W        W41725  10.501   7.806   3.234
37658W        W41726   9.937  10.015   1.197
37659W        W41727   7.535   8.939   3.374
37660W        W41728  10.501   7.403   0.670
37661W        W41729  10.021   9.878   0.681
37662W        W41730   8.923   8.936   0.766
37663W        W41731  10.110   7.740   0.289
37664W        W41732  10.175   8.347   2.475
37665W        W41733   7.884   8.940   1.682
37666W        W41734   8.178   9.879   1.331
37667W        W41735   9.941   8.499   1.296
37668W        W41736   8.964   7.878   1.992
37669W        W41737  10.926   9.789   2.503
37670W        W41738  10.844   7.776   2.064
37671W        W41739   7.383  10.606   1.440
37672W        W41740   7.892   9.793   0.976
37673W        W41741   7.807   7.410   3.529
37674W        W41742   8.926  10.263   3.631
37675W        W41743  10.681   9.231   1.421
37676W        W41744  10.035   9.408   0.301
37677W        W41745   9.330  10.929   2.513
37678W        W41746  10.187   9.651   3.550
37679W        W41747   9.002   7.361   0.830
37680W        W41748   9.715   8.230   1.689
37681W        W41749   7.401   9.817   2.021
37682W        W41750   8.654   7.779   0.662
37683W        W41751   8.458   9.263   3.511
37684W        W41752   9.452   8.244   1.225
37685W        W41753   9.657   9.654   2.347
37686W        W41754   7.811  10.259   2.782
37687W        W41755   8.402  10.242   3.505
37688W        W41756   8.253   8.039   0.519
37689W        W41757   9.770   8.181   0.844
37690W        W41758   9.728  10.289   3.081
37691W        W41759   8.413   8.881   1.680
37692W        W41760   8.068  10.579   2.545
37693W        W41761  10.813  10.696   0.146
37694W        W41762   7.676   9.368   3.142
37695W        W41763   9.671   9.630   1.830
37696W        W41764   8.107   9.279   1.072
37697W        W41765   8.478  10.286   2.467
37698W        W41766   8.856   7.705   1.508
37699W        W41767   7.467   9.689   0.438
37700W        W41768   8.986   8.640   0.308
37701W        W41769   7.632   9.189   1.327
37702W        W41770   8.922   7.831   2.791
37703W        W41771  10.594   7.540   0.218
37704W        W41772  10.687   9.286   3.317
37705W        W41773   9.341  10.543   3.469
37706W        W41774  10.899   9.637   2.991
37707W        W41775  10.307  10.435   3.602
37708W        W41776   8.046  10.891   2.080
37709W        W41777  10.905   9.513   0.954
37710W        W41778   9.435   8.780   1.467
37711W        W41779   9.202   7.392   1.357
37712W        W41780   8.261  10.376   1.194
37713W        W41781   8.760   8.117   2.419
37714W        W41782   8.460   7.486   1.888
37715W        W41783   7.523  10.308   0.436
37716W        W41784   9.339   9.672   1.154
37717W        W41785   8.214  10.467   3.033
37718W        W41786   7.691   9.290   0.729
37719W        W41787   7.576   7.833   1.728
37720W        W41788   9.124   9.798   1.785
37721W        W41789   7.376   7.652   0.805
37722W        W41790  10.040   8.858   2.732
37723W        W41791   9.917   8.244   0.304
37724W        W41792  10.434   9.916   1.952
37725W        W41793   9.095  10.400   1.783
37726W        W41794   8.507  10.504   0.694
37727W        W41795   9.789   7.407   0.124
37728W        W41796   7.589  10.667   1.865
37729W        W41797   9.786   8.425   3.500
37730W        W41798   7.769   7.955   3.499
37731W        W41799   7.500   8.555   0.832
37732W        W41800   8.191   8.544   0.557
37733W        W41801   9.954   8.871   3.374
37734W        W41802   8.297   9.152   2.083
37735W        W41803   9.771   7.438   1.203
37736W        W41804   8.902  10.869   1.706
37737W        W41805  10.116  10.331   2.643
37738W        W41806   9.700  10.480   1.754
37739W        W41807   9.719   9.460   1.348
37740W        W41808   9.181   7.685   0.419
37741W        W41809  10.862   7.313   1.141
37742W        W41810   8.550   8.948   0.304
37743W        W41811  10.716   8.285   1.294
37744W        W41812   9.408   9.455   0.171
37745W        W41813  10.344   9.655   2.919
37746W        W41814   9.998  10.356   0.386
37747W        W41815   8.613   8.031   3.292
37748W        W41816   8.433   8.615   2.533
37749W        W41817  10.525  10.110   2.810
37750W        W41818   9.625   8.060   3.187
37751W        W41819   7.469   8.531   2.964
37752W        W41820   9.229   9.008   2.690
37753W        W41821   7.586   9.766   1.347
37754W        W41822   7.733   9.063   2.237
37755W        W41823  10.050   9.349   2.587
37756W        W41824   9.822  10.729   3.398
37757W        W41825   9.718   8.468   2.951
37758W        W41826   9.995  10.522   1.356
37759W        W41827   8.997  10.242   2.679
37760W        W41828   8.482  10.597   1.948
37761W        W41829  10.287   9.768   2.367
37762W        W41830   9.337   9.840   3.504
37763W        W41831   7.942   9.793   1.843
37764W        W41832  10.288   9.552   1.488
37765W        W41833   9.929  10.618   2.239
37766W        W41834   7.907  10.347   2.109
37767W        W41835   8.928   8.399   3.319
37768W        W41836   9.379  10.565   0.830
37769W        W41837   8.687   9.820   3.468
37770W        W41838   8.813  10.058   0.845
37771W        W41839   8.034   8.798   0.104
37772W        W41840   7.373  10.884   7.003
37773W        W41841   7.749   9.777   6.526
37774W        W41842  10.454   9.507   4.296
37775W        W41843  10.584  10.592   6.323
37776W        W41844   8.502  10.583   3.849
37777W        W41845   8.585   8.735   4.832
37778W        W41846   8.100   8.583   4.996
37779W        W41847   9.091   9.398   4.430
37780W        W41848   8.766  10.490   6.785
37781W        W41849   7.415   8.051   6.748
37782W        W41850   8.177   7.331   6.550
37783W        W41851   9.871   7.719   5.437
37784W        W41852   9.520   8.590   4.007
37785W        W41853  10.090   8.024   7.098
37786W        W41854   7.456   7.816   6.223
37787W        W41855   7.555  10.435   7.244
37788W        W41856   9.077   9.825   3.976
37789W        W41857   7.509   8.608   5.669
37790W        W41858   8.402   8.499   6.906
37791W        W41859  10.861   8.358   5.405
37792W        W41860  10.625   9.401   6.264
37793W        W41861   8.933   8.734   5.291
37794W        W41862   9.479  10.073   5.660
37795W        W41863   7.979   9.507   5.892
37796W        W41864   7.338   9.035   5.463
37797W        W41865   8.374   9.007   6.655
37798W        W41866  10.645   8.790   6.909
37799W        W41867   8.261  10.234   5.354
37800W        W41868   9.382   9.923   6.488
37801W        W41869   8.602   8.563   5.713
37802W        W41870   8.894   9.347   5.356
37803W        W41871   9.891  10.120   7.204
37804W        W41872   8.970   9.440   7.214
37805W        W41873   8.951   9.156   6.692
37806W        W41874   7.360   8.547   7.214
37807W        W41875  10.192  10.082   6.813
37808W        W41876   7.773   7.664   4.811
37809W        W41877   8.300   9.922   5.810
37810W        W41878  10.763   9.705   5.100
37811W        W41879  10.176   8.105   5.667
37812W        W41880  10.461   8.058   3.762
37813W        W41881  10.926   8.859   6.068
37814W        W41882   8.893  10.566   5.821
37815W        W41883  10.667  10.032   4.259
37816W        W41884   7.796  10.818   4.013
37817W        W41885   8.189  10.864   4.689
37818W        W41886   7.986   7.618   6.115
37819W        W41887  10.609   8.636   6.390
37820W        W41888  10.014   9.058   4.849
37821W        W41889   9.980   8.746   3.876
37822W        W41890   9.188   9.890   6.016
37823W        W41891   8.994   8.220   5.215
37824W        W41892   9.594  10.307   6.209
37825W        W41893  10.465   9.098   4.631
37826W        W41894   9.367   7.756   4.647
37827W        W41895   8.024  10.450   4.330
37828W        W41896   7.395   7.949   4.929
37829W        W41897  10.181   8.556   5.403
37830W        W41898   7.639  10.173   5.318
37831W        W41899   8.980  10.523   4.188
37832W        W41900  10.372   8.549   3.652
37833W        W41901   7.395  10.307   5.816
37834W        W41902   8.186   9.879   6.296
37835W        W41903   8.559   9.239   4.915
37836W        W41904   8.581   7.644   6.008
37837W        W41905  10.810   7.406   5.305
37838W        W41906   8.029   9.278   3.773
37839W        W41907   7.684   8.311   3.952
37840W        W41908   7.746  10.267   4.746
37841W        W41909   8.877   9.750   4.994
37842W        W41910  10.209  10.609   6.708
37843W        W41911   9.135   8.251   4.392
37844W        W41912  10.518  10.649   5.164
37845W        W41913  10.195   8.502   6.762
37846W        W41914  10.908  10.158   4.896
37847W        W41915   9.535   9.450   6.380
37848W        W41916   7.301   9.001   4.586
37849W        W41917   8.412   9.416   6.159
37850W        W41918   9.616   8.680   4.537
37851W        W41919   9.493   9.170   4.641
37852W        W41920   7.836   8.590   6.115
37853W        W41921   7.821   8.466   7.037
37854W        W41922   7.711   7.383   5.196
37855W        W41923   9.479   7.730   5.757
37856W        W41924   9.127   7.915   6.920
37857W        W41925   9.482   8.064   4.098
37858W        W41926  10.665  10.457   6.852
37859W        W41927   9.632   7.538   6.891
37860W        W41928  10.651   9.839   7.013
37861W        W41929  10.081   8.006   6.609
37862W        W41930   9.881   7.944   4.879
37863W        W41931  10.274   9.078   7.283
37864W        W41932   8.014  10.654   5.269
37865W        W41933   8.672   8.371   4.255
37866W        W41934   8.241   7.655   6.919
37867W        W41935  10.293   8.139   4.600
37868W        W41936  10.660   8.621   4.545
37869W        W41937   8.403  10.838   7.016
37870W        W41938   8.329   7.374   4.251
37871W        W41939  10.650   7.908   5.286
37872W        W41940   7.707   9.360   5.433
37873W        W41941   9.624   7.947   3.663
37874W        W41942  10.758  10.279   5.383
37875W        W41943  10.797   7.473   6.133
37876W        W41944   9.242   8.685   6.687
37877W        W41945   9.335  10.024   4.390
37878W        W41946   9.735   9.318   7.130
37879W        W41947   9.409   7.295   5.439
37880W        W41948   8.021   8.198   5.502
37881W        W41949   7.575   9.398   6.276
37882W        W41950   9.434  10.591   4.982
37883W        W41951  10.628   8.188   5.854
37884W        W41952   9.265  10.535   6.621
37885W        W41953  10.608   9.594   3.826
37886W        W41954   9.043   9.077   4.887
37887W        W41955  10.895   7.588   6.628
37888W        W41956   9.044   9.423   6.222
37889W        W41957   9.261   8.309   5.667
37890W        W41958  10.113   8.607   4.505
37891W        W41959  10.400   8.340   4.147
37892W        W41960  10.209  10.380   4.536
37893W        W41961  10.043   9.983   5.332
37894W        W41962   9.939   9.062   4.310
37895W        W41963   9.372   9.272   5.296
37896W        W41964  10.253   9.060   5.363
37897W        W41965   7.628   8.075   5.787
37898W        W41966  10.406   9.127   6.614
37899W        W41967  10.757  10.745   5.760
37900W        W41968   8.687  10.189   5.162
37901W        W41969   9.694  10.722   6.486
37902W        W41970   9.688   8.052   6.250
37903W        W41971   8.895  10.760   6.311
37904W        W41972  10.592   7.714   4.777
37905W        W41973  10.383   9.033   6.078
37906W        W41974   7.366   8.354   6.116
37907W        W41975  10.226   8.149   5.134
37908W        W41976  10.637   8.300   6.911
37909W        W41977   9.522   9.999   5.129
37910W        W41978   8.778  10.590   4.742
37911W        W41979   7.893   7.770   4.000
37912W        W41980   8.997   7.424   5.810
37913W        W41981   8.025  10.544   3.658
37914W        W41982   8.399   9.010   4.409
37915W        W41983   9.053   9.639   6.722
37916W        W41984   8.883   7.997   4.712
37917W        W41985  10.239   7.594   5.140
37918W        W41986   9.959  10.876   5.468
37919W        W41987   9.371  10.524   5.808
37920W        W41988   8.767   9.561   5.769
37921W        W41989  10.537  10.284   5.895
37922W        W41990   8.231   7.787   4.664
37923W        W41991   8.753  10.084   5.624
37924W        W41992   8.236   8.015   3.689
37925W        W41993   9.037   8.624   6.083
37926W        W41994   9.885   7.490   5.953
37927W        W41995   7.305   9.333   5.838
37928W        W41996   9.009   9.151   3.996
37929W        W41997   8.277   7.466   3.766
37930W        W41998   9.015   8.547   4.817
37931W        W41999   9.985   7.523   6.516
37932W        W42000   8.573   9.535   6.625
37933W        W42001   9.377   9.317   6.842
37934W        W42002   9.994   9.347   6.735
37935W        W42003   9.278   7.487   7.240
37936W        W42004   8.500   8.103   5.633
37937W        W42005   7.926   8.059   5.031
37938W        W42006   7.712  10.771   4.707
37939W        W42007   9.044  10.101   6.832
37940W        W42008   8.079   9.586   4.191
37941W        W42009   9.759   8.971   5.412
37942W        W42010  10.039   8.770   5.811
37943W        W42011   9.244   9.444   5.745
37944W        W42012   9.714   9.818   3.877
37945W        W42013   9.386   7.839   5.205
37946W        W42014  10.865   8.117   4.473
37947W        W42015   7.359  10.706   6.504
37948W        W42016   7.776   9.932   6.036
37949W        W42017   7.343  10.778   4.268
37950W        W42018   9.242   8.048   6.074
37951W        W42019   8.605  10.071   3.923
37952W        W42020  10.510  10.453   4.109
37953W        W42021   9.485   9.106   4.123
37954W        W42022   8.328   8.297   4.640
37955W        W42023   9.160   8.207   3.692
37956W        W42024   9.744   9.772   6.870
37957W        W42025  10.097   7.678   4.487
37958W        W42026   7.427   7.526   3.935
37959W        W42027   8.713   9.845   6.225
37960W        W42028   8.512   9.761   5.317
37961W        W42029   8.254   9.713   3.715
37962W        W42030   7.495   9.954   4.483
37963W        W42031   7.999   9.024   6.925
37964W        W42032   8.703   7.584   7.111
37965W        W42033   9.412   7.726   6.467
37966W        W42034   8.607   7.494   4.748
37967W        W42035   9.666   7.571   4.253
37968W        W42036   7.611   7.503   5.830
37969W        W42037   7.659   8.466   5.200
37970W        W42038  10.348   7.574   5.606
37971W        W42039   7.770   8.072   4.420
37972W        W42040  10.341   7.760   6.036
37973W        W42041  10.737   8.963   3.721
37974W        W42042   8.029   7.721   5.540
37975W        W42043   9.143   8.293   6.480
37976W        W42044   7.291   7.983   3.958
37977W        W42045   8.077   9.372   6.519
37978W        W42046   9.435   8.770   5.698
37979W        W42047   9.302  10.849   3.994
37980W        W42048   7.448   9.356   3.691
37981W        W42049   8.183   9.767   6.817
37982W        W42050   7.704   8.934   6.448
37983W        W42051   8.695   9.039   6.242
37984W        W42052  10.463   7.398   6.504
37985W        W42053  10.861   9.008   6.495
37986W        W42054  10.849   9.208   4.181
37987W        W42055   9.712   9.540   4.280
37988W        W42056  10.186  10.840   3.975
37989W        W42057   9.363   8.830   7.117
37990W        W42058   7.693   9.797   7.157
37991W        W42059  10.899   7.719   7.109
37992W        W42060  10.617   8.647   5.730
37993W        W42061   8.780   7.406   3.934
37994W        W42062  10.319  10.005   3.877
37995W        W42063   8.088   8.098   6.763
37996W        W42064   8.522  10.092   6.625
37997W        W42065  10.648   8.083   6.423
37998W        W42066   9.859  10.742   4.391
37999W        W42067  10.098   9.361   5.758
38000W        W42068   8.348   7.777   6.425
38001W        W42069   8.817   8.846   7.182
38002W        W42070   8.320  10.025   4.376
38003W        W42071  10.075   9.523   4.640
38004W        W42072   7.843   8.149   6.364
38005W        W42073   9.172  10.211   4.828
38006W        W42074  10.922   8.771   5.009
38007W        W42075   9.144   7.404   6.728
38008W        W42076   9.924  10.109   5.807
38009W        W42077  10.227  10.453   5.515
38010W        W42078   9.446  10.255   3.943
38011W        W42079   7.456  10.147   6.785
38012W        W42080   8.199   8.139   6.023
38013W        W42081   8.169   7.487   5.133
38014W        W42082   9.790   8.329   5.825
38015W        W42083   8.588   9.500   4.025
38016W        W42084  10.586   9.442   5.524
38017W        W42085   7.913  10.200   6.947
38018W        W42086  10.300  10.882   4.744
38019W        W42087   8.399   7.902   5.189
38020W        W42088   8.168   9.395   5.279
38021W        W42089   8.481  10.806   6.029
38022W        W42090  10.548  10.902   7.061
38023W        W42091   9.707   9.090   5.994
38024W        W42092   7.556   8.888   3.909
38025W        W42093  10.690  10.546   4.606
38026W        W42094  10.527   7.870   4.225
38027W        W42095   8.666   7.389   6.628
38028W        W42096  10.372  10.191   5.086
38029W        W42097  10.401   8.747   4.991
38030W        W42098   8.518   8.420   5.207
38031W        W42099   8.763   8.682   6.531
38032W        W42100   9.874   9.835   6.394
38033W        W42101   8.524   8.289   6.506
38034W        W42102   8.503  10.755   5.122
38035W        W42103   7.820  10.714   6.756
38036W        W42104   7.932  10.075   3.886
38037W        W42105  10.449   9.833   4.696
38038W        W42106   8.053   8.625   6.582
38039W        W42107  10.826   8.555   4.063
38040W        W42108   8.571   9.612   4.534
38041W        W42109   9.670   8.994   6.615
38042W        W42110   9.561   8.622   6.159
38043W        W42111   8.121   8.994   6.188
38044W        W42112  10.331  10.882   6.017
38045W        W42113  10.122   7.516   7.011
38046W        W42114   7.786   7.666   6.598
38047W        W42115   8.125   8.689   5.651
38048W        W42116   8.494   8.503   3.773
38049W        W42117   7.297  10.262   6.318
38050W        W42118   8.882   8.971   5.761
38051W        W42119   8.705   7.996   3.866
38052W        W42120   7.840   8.812   4.647
38053W        W42121   7.611  10.664   6.084
38054W        W42122  10.406   8.890   4.192
38055W        W42123  10.501   7.806   6.878
38056W        W42124   9.937  10.015   4.841
38057W        W42125   7.535   8.939   7.018
38058W        W42126  10.501   7.403   4.314
38059W        W42127  10.021   9.878   4.325
38060W        W42128   8.923   8.936   4.410
38061W        W42129  10.110   7.740   3.933
38062W        W42130  10.175   8.347   6.119
38063W        W42131   7.884   8.940   5.326
38064W        W42132   8.178   9.879   4.975
38065W        W42133   9.941   8.499   4.940
38066W        W42134   8.964   7.878   5.636
38067W        W42135  10.926   9.789   6.147
38068W        W42136  10.844   7.776   5.708
38069W        W42137   7.383  10.606   5.084
38070W        W42138   7.892   9.793   4.620
38071W        W42139   7.807   7.410   7.173
38072W        W42140  10.681   9.231   5.065
38073W        W42141  10.035   9.408   3.945
38074W        W42142   9.330  10.929   6.157
38075W        W42143  10.187   9.651   7.194
38076W        W42144   9.002   7.361   4.474
38077W        W42145   9.715   8.230   5.333
38078W        W42146   7.401   9.817   5.665
38079W        W42147   8.654   7.779   4.306
38080W        W42148   8.458   9.263   7.155
38081W        W42149   9.452   8.244   4.869
38082W        W42150   9.657   9.654   5.991
38083W        W42151   7.811  10.259   6.426
38084W        W42152   8.402  10.242   7.149
38085W        W42153   8.253   8.039   4.163
38086W        W42154   9.770   8.181   4.488
38087W        W42155   9.728  10.289   6.725
38088W        W42156   8.413   8.881   5.324
38089W        W42157   8.068  10.579   6.189
38090W        W42158  10.813  10.696   3.790
38091W        W42159   7.676   9.368   6.786
38092W        W42160   9.671   9.630   5.474
38093W        W42161   8.107   9.279   4.716
38094W        W42162   8.478  10.286   6.111
38095W        W42163   8.856   7.705   5.152
38096W        W42164   7.467   9.689   4.082
38097W        W42165   8.986   8.640   3.952
38098W        W42166   7.632   9.189   4.971
38099W        W42167   8.922   7.831   6.435
38100W        W42168  10.594   7.540   3.862
38101W        W42169  10.687   9.286   6.961
38102W        W42170  10.899   9.637   6.635
38103W        W42171  10.307  10.435   7.246
38104W        W42172   8.046  10.891   5.724
38105W        W42173  10.905   9.513   4.598
38106W        W42174   9.435   8.780   5.111
38107W        W42175   9.202   7.392   5.001
38108W        W42176   8.261  10.376   4.838
38109W        W42177   8.760   8.117   6.063
38110W        W42178   8.460   7.486   5.532
38111W        W42179   7.523  10.308   4.080
38112W        W42180   9.339   9.672   4.798
38113W        W42181   8.214  10.467   6.677
38114W        W42182   7.691   9.290   4.373
38115W        W42183   7.576   7.833   5.372
38116W        W42184   9.124   9.798   5.429
38117W        W42185   7.376   7.652   4.449
38118W        W42186  10.040   8.858   6.376
38119W        W42187   9.917   8.244   3.948
38120W        W42188  10.434   9.916   5.596
38121W        W42189   9.095  10.400   5.427
38122W        W42190   8.507  10.504   4.338
38123W        W42191   9.789   7.407   3.768
38124W        W42192   7.589  10.667   5.509
38125W        W42193   9.786   8.425   7.144
38126W        W42194   7.769   7.955   7.143
38127W        W42195   7.500   8.555   4.476
38128W        W42196   8.191   8.544   4.201
38129W        W42197   9.954   8.871   7.018
38130W        W42198   8.297   9.152   5.727
38131W        W42199   9.771   7.438   4.847
38132W        W42200   8.902  10.869   5.350
38133W        W42201  10.116  10.331   6.287
38134W        W42202   9.700  10.480   5.398
38135W        W42203   9.719   9.460   4.992
38136W        W42204   9.181   7.685   4.063
38137W        W42205  10.862   7.313   4.785
38138W        W42206   8.550   8.948   3.948
38139W        W42207  10.716   8.285   4.938
38140W        W42208   9.408   9.455   3.815
38141W        W42209  10.344   9.655   6.563
38142W        W42210   9.998  10.356   4.030
38143W        W42211   8.613   8.031   6.936
38144W        W42212   8.433   8.615   6.177
38145W        W42213  10.525  10.110   6.454
38146W        W42214   9.625   8.060   6.831
38147W        W42215   7.469   8.531   6.608
38148W        W42216   9.229   9.008   6.334
38149W        W42217   7.586   9.766   4.991
38150W        W42218   7.733   9.063   5.881
38151W        W42219  10.050   9.349   6.231
38152W        W42220   9.822  10.729   7.042
38153W        W42221   9.718   8.468   6.595
38154W        W42222   9.995  10.522   5.000
38155W        W42223   8.997  10.242   6.323
38156W        W42224   8.482  10.597   5.592
38157W        W42225  10.287   9.768   6.011
38158W        W42226   9.337   9.840   7.148
38159W        W42227   7.942   9.793   5.487
38160W        W42228  10.288   9.552   5.132
38161W        W42229   9.929  10.618   5.883
38162W        W42230   7.907  10.347   5.753
38163W        W42231   8.928   8.399   6.963
38164W        W42232   9.379  10.565   4.474
38165W        W42233   8.687   9.820   7.112
38166W        W42234   8.813  10.058   4.489
38167W        W42235   8.034   8.798   3.748
38168W        W42236   7.373  10.884  10.648
38169W        W42237   7.749   9.777  10.171
38170W        W42238  10.454   9.507   7.941
38171W        W42239  10.584  10.592   9.968
38172W        W42240   8.502  10.583   7.494
38173W        W42241   8.585   8.735   8.477
38174W        W42242   8.100   8.583   8.641
38175W        W42243   9.091   9.398   8.075
38176W        W42244   8.766  10.490  10.430
38177W        W42245   7.415   8.051  10.393
38178W        W42246   8.177   7.331  10.195
38179W        W42247   9.871   7.719   9.082
38180W        W42248   9.520   8.590   7.652
38181W        W42249  10.090   8.024  10.743
38182W        W42250   7.456   7.816   9.868
38183W        W42251   7.555  10.435  10.889
38184W        W42252   9.077   9.825   7.621
38185W        W42253   7.509   8.608   9.314
38186W        W42254   8.402   8.499  10.551
38187W        W42255  10.861   8.358   9.050
38188W        W42256  10.625   9.401   9.909
38189W        W42257   8.933   8.734   8.936
38190W        W42258   9.479  10.073   9.305
38191W        W42259   7.979   9.507   9.537
38192W        W42260   7.338   9.035   9.108
38193W        W42261   8.374   9.007  10.300
38194W        W42262  10.645   8.790  10.554
38195W        W42263   8.261  10.234   8.999
38196W        W42264   9.382   9.923  10.133
38197W        W42265   8.602   8.563   9.358
38198W        W42266   8.894   9.347   9.001
38199W        W42267   9.891  10.120  10.849
38200W        W42268   8.970   9.440  10.859
38201W        W42269   8.951   9.156  10.337
38202W        W42270   7.360   8.547  10.859
38203W        W42271  10.192  10.082  10.458
38204W        W42272   7.773   7.664   8.456
38205W        W42273   8.300   9.922   9.455
38206W        W42274  10.763   9.705   8.745
38207W        W42275  10.176   8.105   9.312
38208W        W42276  10.461   8.058   7.407
38209W        W42277  10.926   8.859   9.713
38210W        W42278   8.893  10.566   9.466
38211W        W42279  10.667  10.032   7.904
38212W        W42280   7.796  10.818   7.658
38213W        W42281   8.189  10.864   8.334
38214W        W42282   7.986   7.618   9.760
38215W        W42283  10.609   8.636  10.035
38216W        W42284  10.014   9.058   8.494
38217W        W42285   9.980   8.746   7.521
38218W        W42286   9.188   9.890   9.661
38219W        W42287   8.994   8.220   8.860
38220W        W42288   9.594  10.307   9.854
38221W        W42289  10.465   9.098   8.276
38222W        W42290   9.367   7.756   8.292
38223W        W42291   8.024  10.450   7.975
38224W        W42292   7.395   7.949   8.574
38225W        W42293  10.181   8.556   9.048
38226W        W42294   7.639  10.173   8.963
38227W        W42295   8.980  10.523   7.833
38228W        W42296  10.372   8.549   7.297
38229W        W42297   7.395  10.307   9.461
38230W        W42298   8.186   9.879   9.941
38231W        W42299   8.559   9.239   8.560
38232W        W42300   8.581   7.644   9.653
38233W        W42301  10.810   7.406   8.950
38234W        W42302   8.029   9.278   7.418
38235W        W42303   7.684   8.311   7.597
38236W        W42304   7.746  10.267   8.391
38237W        W42305   8.877   9.750   8.639
38238W        W42306  10.209  10.609  10.353
38239W        W42307   9.135   8.251   8.037
38240W        W42308  10.518  10.649   8.809
38241W        W42309  10.195   8.502  10.407
38242W        W42310  10.908  10.158   8.541
38243W        W42311   9.535   9.450  10.025
38244W        W42312   7.301   9.001   8.231
38245W        W42313   8.412   9.416   9.804
38246W        W42314   9.616   8.680   8.182
38247W        W42315   9.493   9.170   8.286
38248W        W42316   7.836   8.590   9.760
38249W        W42317   7.821   8.466  10.682
38250W        W42318   7.711   7.383   8.841
38251W        W42319   9.479   7.730   9.402
38252W        W42320   9.127   7.915  10.565
38253W        W42321   9.482   8.064   7.743
38254W        W42322  10.665  10.457  10.497
38255W        W42323   9.632   7.538  10.536
38256W        W42324  10.651   9.839  10.658
38257W        W42325  10.081   8.006  10.254
38258W        W42326   9.881   7.944   8.524
38259W        W42327  10.274   9.078  10.928
38260W        W42328   8.014  10.654   8.914
38261W        W42329   8.672   8.371   7.900
38262W        W42330   8.241   7.655  10.564
38263W        W42331  10.293   8.139   8.245
38264W        W42332  10.660   8.621   8.190
38265W        W42333   8.403  10.838  10.661
38266W        W42334   8.329   7.374   7.896
38267W        W42335  10.650   7.908   8.931
38268W        W42336  10.800  10.157   7.376
38269W        W42337   7.707   9.360   9.078
38270W        W42338   9.624   7.947   7.308
38271W        W42339  10.758  10.279   9.028
38272W        W42340  10.797   7.473   9.778
38273W        W42341   9.242   8.685  10.332
38274W        W42342   9.335  10.024   8.035
38275W        W42343   9.735   9.318  10.775
38276W        W42344   9.409   7.295   9.084
38277W        W42345   8.021   8.198   9.147
38278W        W42346   7.575   9.398   9.921
38279W        W42347   9.434  10.591   8.627
38280W        W42348  10.628   8.188   9.499
38281W        W42349   9.265  10.535  10.266
38282W        W42350  10.608   9.594   7.471
38283W        W42351   9.043   9.077   8.532
38284W        W42352  10.895   7.588  10.273
38285W        W42353   9.044   9.423   9.867
38286W        W42354   9.261   8.309   9.312
38287W        W42355  10.113   8.607   8.150
38288W        W42356  10.400   8.340   7.792
38289W        W42357  10.209  10.380   8.181
38290W        W42358  10.043   9.983   8.977
38291W        W42359   9.939   9.062   7.955
38292W        W42360   9.372   9.272   8.941
38293W        W42361  10.253   9.060   9.008
38294W        W42362   7.628   8.075   9.432
38295W        W42363  10.406   9.127  10.259
38296W        W42364  10.757  10.745   9.405
38297W        W42365   8.687  10.189   8.807
38298W        W42366   9.694  10.722  10.131
38299W        W42367   9.688   8.052   9.895
38300W        W42368   8.895  10.760   9.956
38301W        W42369  10.592   7.714   8.422
38302W        W42370  10.383   9.033   9.723
38303W        W42371   7.366   8.354   9.761
38304W        W42372  10.226   8.149   8.779
38305W        W42373  10.637   8.300  10.556
38306W        W42374   9.522   9.999   8.774
38307W        W42375   8.778  10.590   8.387
38308W        W42376   7.893   7.770   7.645
38309W        W42377   8.997   7.424   9.455
38310W        W42378   8.025  10.544   7.303
38311W        W42379   8.399   9.010   8.054
38312W        W42380   9.053   9.639  10.367
38313W        W42381   8.883   7.997   8.357
38314W        W42382  10.239   7.594   8.785
38315W        W42383   9.959  10.876   9.113
38316W        W42384   9.371  10.524   9.453
38317W        W42385   8.767   9.561   9.414
38318W        W42386  10.537  10.284   9.540
38319W        W42387   8.231   7.787   8.309
38320W        W42388   8.753  10.084   9.269
38321W        W42389   8.236   8.015   7.334
38322W        W42390   9.037   8.624   9.728
38323W        W42391   9.885   7.490   9.598
38324W        W42392   7.305   9.333   9.483
38325W        W42393   9.009   9.151   7.641
38326W        W42394   8.277   7.466   7.411
38327W        W42395   9.015   8.547   8.462
38328W        W42396   9.985   7.523  10.161
38329W        W42397   8.573   9.535  10.270
38330W        W42398   9.377   9.317  10.487
38331W        W42399   9.994   9.347  10.380
38332W        W42400   9.278   7.487  10.885
38333W        W42401   8.500   8.103   9.278
38334W        W42402   7.926   8.059   8.676
38335W        W42403   7.712  10.771   8.352
38336W        W42404   9.044  10.101  10.477
38337W        W42405   8.079   9.586   7.836
38338W        W42406   9.759   8.971   9.057
38339W        W42407  10.039   8.770   9.456
38340W        W42408   9.244   9.444   9.390
38341W        W42409   9.714   9.818   7.522
38342W        W42410   9.386   7.839   8.850
38343W        W42411  10.865   8.117   8.118
38344W        W42412   7.359  10.706  10.149
38345W        W42413   7.776   9.932   9.681
38346W        W42414   7.343  10.778   7.913
38347W        W42415   9.242   8.048   9.719
38348W        W42416   8.605  10.071   7.568
38349W        W42417  10.510  10.453   7.754
38350W        W42418   9.485   9.106   7.768
38351W        W42419   8.328   8.297   8.285
38352W        W42420   9.160   8.207   7.337
38353W        W42421   9.744   9.772  10.515
38354W        W42422  10.097   7.678   8.132
38355W        W42423   7.427   7.526   7.580
38356W        W42424   8.713   9.845   9.870
38357W        W42425   8.512   9.761   8.962
38358W        W42426   8.254   9.713   7.360
38359W        W42427   7.495   9.954   8.128
38360W        W42428   7.999   9.024  10.570
38361W        W42429   8.703   7.584  10.756
38362W        W42430   9.412   7.726  10.112
38363W        W42431   8.607   7.494   8.393
38364W        W42432   9.666   7.571   7.898
38365W        W42433   7.611   7.503   9.475
38366W        W42434   7.659   8.466   8.845
38367W        W42435  10.348   7.574   9.251
38368W        W42436   7.770   8.072   8.065
38369W        W42437  10.341   7.760   9.681
38370W        W42438  10.737   8.963   7.366
38371W        W42439   8.029   7.721   9.185
38372W        W42440   9.143   8.293  10.125
38373W        W42441   7.291   7.983   7.603
38374W        W42442   8.077   9.372  10.164
38375W        W42443   9.435   8.770   9.343
38376W        W42444   9.302  10.849   7.639
38377W        W42445   7.448   9.356   7.336
38378W        W42446   8.183   9.767  10.462
38379W        W42447   7.704   8.934  10.093
38380W        W42448   8.695   9.039   9.887
38381W        W42449  10.463   7.398  10.149
38382W        W42450  10.861   9.008  10.140
38383W        W42451  10.849   9.208   7.826
38384W        W42452   9.712   9.540   7.925
38385W        W42453  10.186  10.840   7.620
38386W        W42454   9.363   8.830  10.762
38387W        W42455   7.693   9.797  10.802
38388W        W42456  10.899   7.719  10.754
38389W        W42457  10.617   8.647   9.375
38390W        W42458   8.925  10.777  10.852
38391W        W42459   8.780   7.406   7.579
38392W        W42460  10.319  10.005   7.522
38393W        W42461   8.088   8.098  10.408
38394W        W42462   8.522  10.092  10.270
38395W        W42463  10.648   8.083  10.068
38396W        W42464   9.859  10.742   8.036
38397W        W42465  10.098   9.361   9.403
38398W        W42466   8.348   7.777  10.070
38399W        W42467   8.817   8.846  10.827
38400W        W42468   8.320  10.025   8.021
38401W        W42469  10.075   9.523   8.285
38402W        W42470   7.843   8.149  10.009
38403W        W42471   9.172  10.211   8.473
38404W        W42472  10.922   8.771   8.654
38405W        W42473   9.144   7.404  10.373
38406W        W42474   9.924  10.109   9.452
38407W        W42475  10.227  10.453   9.160
38408W        W42476   9.446  10.255   7.588
38409W        W42477   7.456  10.147  10.430
38410W        W42478   8.199   8.139   9.668
38411W        W42479   8.169   7.487   8.778
38412W        W42480   9.790   8.329   9.470
38413W        W42481   8.588   9.500   7.670
38414W        W42482  10.586   9.442   9.169
38415W        W42483   7.913  10.200  10.592
38416W        W42484  10.300  10.882   8.389
38417W        W42485   8.399   7.902   8.834
38418W        W42486   8.168   9.395   8.924
38419W        W42487   8.481  10.806   9.674
38420W        W42488  10.548  10.902  10.706
38421W        W42489   9.707   9.090   9.639
38422W        W42490   7.556   8.888   7.554
38423W        W42491  10.690  10.546   8.251
38424W        W42492  10.527   7.870   7.870
38425W        W42493   8.666   7.389  10.273
38426W        W42494  10.372  10.191   8.731
38427W        W42495  10.401   8.747   8.636
38428W        W42496   8.518   8.420   8.852
38429W        W42497   8.763   8.682  10.176
38430W        W42498   9.874   9.835  10.039
38431W        W42499   8.524   8.289  10.151
38432W        W42500   8.503  10.755   8.767
38433W        W42501   7.820  10.714  10.401
38434W        W42502   7.932  10.075   7.531
38435W        W42503  10.449   9.833   8.341
38436W        W42504   8.053   8.625  10.227
38437W        W42505  10.826   8.555   7.708
38438W        W42506   8.571   9.612   8.179
38439W        W42507   9.670   8.994  10.260
38440W        W42508   9.561   8.622   9.804
38441W        W42509   8.121   8.994   9.833
38442W        W42510  10.331  10.882   9.662
38443W        W42511  10.122   7.516  10.656
38444W        W42512   7.786   7.666  10.243
38445W        W42513   8.125   8.689   9.296
38446W        W42514   8.494   8.503   7.418
38447W        W42515   7.297  10.262   9.963
38448W        W42516   8.882   8.971   9.406
38449W        W42517   8.705   7.996   7.511
38450W        W42518   7.840   8.812   8.292
38451W        W42519   7.611  10.664   9.729
38452W        W42520  10.406   8.890   7.837
38453W        W42521  10.501   7.806  10.523
38454W        W42522   9.937  10.015   8.486
38455W        W42523   7.535   8.939  10.663
38456W        W42524  10.501   7.403   7.959
38457W        W42525  10.021   9.878   7.970
38458W        W42526   8.923   8.936   8.055
38459W        W42527  10.110   7.740   7.578
38460W        W42528  10.175   8.347   9.764
38461W        W42529   7.884   8.940   8.971
38462W        W42530   8.178   9.879   8.620
38463W        W42531   9.941   8.499   8.585
38464W        W42532   8.964   7.878   9.281
38465W        W42533  10.926   9.789   9.792
38466W        W42534  10.844   7.776   9.353
38467W        W42535   7.383  10.606   8.729
38468W        W42536   7.892   9.793   8.265
38469W        W42537   7.807   7.410  10.818
38470W        W42538   8.926  10.263  10.920
38471W        W42539  10.681   9.231   8.710
38472W        W42540  10.035   9.408   7.590
38473W        W42541   9.330  10.929   9.802
38474W        W42542  10.187   9.651  10.839
38475W        W42543   9.002   7.361   8.119
38476W        W42544   9.715   8.230   8.978
38477W        W42545   7.401   9.817   9.310
38478W        W42546   8.654   7.779   7.951
38479W        W42547   8.458   9.263  10.800
38480W        W42548   9.452   8.244   8.514
38481W        W42549   9.657   9.654   9.636
38482W        W42550   7.811  10.259  10.071
38483W        W42551   8.402  10.242  10.794
38484W        W42552   8.253   8.039   7.808
38485W        W42553   9.770   8.181   8.133
38486W        W42554   9.728  10.289  10.370
38487W        W42555   8.413   8.881   8.969
38488W        W42556   8.068  10.579   9.834
38489W        W42557  10.813  10.696   7.435
38490W        W42558   7.676   9.368  10.431
38491W        W42559   9.671   9.630   9.119
38492W        W42560   8.107   9.279   8.361
38493W        W42561   8.478  10.286   9.756
38494W        W42562   8.856   7.705   8.797
38495W        W42563   7.467   9.689   7.727
38496W        W42564   8.986   8.640   7.597
38497W        W42565   7.632   9.189   8.616
38498W        W42566   8.922   7.831  10.080
38499W        W42567  10.594   7.540   7.507
38500W        W42568  10.687   9.286  10.606
38501W        W42569   9.341  10.543  10.758
38502W        W42570  10.899   9.637  10.280
38503W        W42571  10.307  10.435  10.891
38504W        W42572   8.046  10.891   9.369
38505W        W42573  10.905   9.513   8.243
38506W        W42574   9.435   8.780   8.756
38507W        W42575   9.202   7.392   8.646
38508W        W42576   8.261  10.376   8.483
38509W        W42577   8.760   8.117   9.708
38510W        W42578   8.460   7.486   9.177
38511W        W42579   7.523  10.308   7.725
38512W        W42580   9.339   9.672   8.443
38513W        W42581   8.214  10.467  10.322
38514W        W42582   7.691   9.290   8.018
38515W        W42583   7.576   7.833   9.017
38516W        W42584   9.124   9.798   9.074
38517W        W42585   7.376   7.652   8.094
38518W        W42586  10.040   8.858  10.021
38519W        W42587   9.917   8.244   7.593
38520W        W42588  10.434   9.916   9.241
38521W        W42589   9.095  10.400   9.072
38522W        W42590   8.507  10.504   7.983
38523W        W42591   9.789   7.407   7.413
38524W        W42592   7.589  10.667   9.154
38525W        W42593   9.786   8.425  10.789
38526W        W42594   7.769   7.955  10.788
38527W        W42595   7.500   8.555   8.121
38528W        W42596   8.191   8.544   7.846
38529W        W42597   9.954   8.871  10.663
38530W        W42598   8.297   9.152   9.372
38531W        W42599   9.771   7.438   8.492
38532W        W42600   8.902  10.869   8.995
38533W        W42601  10.116  10.331   9.932
38534W        W42602   9.700  10.480   9.043
38535W        W42603   9.719   9.460   8.637
38536W        W42604   9.181   7.685   7.708
38537W        W42605  10.862   7.313   8.430
38538W        W42606   8.550   8.948   7.593
38539W        W42607  10.716   8.285   8.583
38540W        W42608   9.408   9.455   7.460
38541W        W42609  10.344   9.655  10.208
38542W        W42610   9.998  10.356   7.675
38543W        W42611   8.613   8.031  10.581
38544W        W42612   8.433   8.615   9.822
38545W        W42613  10.525  10.110  10.099
38546W        W42614   9.625   8.060  10.476
38547W        W42615   7.469   8.531  10.253
38548W        W42616   9.229   9.008   9.979
38549W        W42617   7.586   9.766   8.636
38550W        W42618   7.733   9.063   9.526
38551W        W42619  10.050   9.349   9.876
38552W        W42620   9.822  10.729  10.687
38553W        W42621   9.718   8.468  10.240
38554W        W42622   9.995  10.522   8.645
38555W        W42623   8.997  10.242   9.968
38556W        W42624   8.482  10.597   9.237
38557W        W42625  10.287   9.768   9.656
38558W        W42626   9.337   9.840  10.793
38559W        W42627   7.942   9.793   9.132
38560W        W42628  10.288   9.552   8.777
38561W        W42629   9.929  10.618   9.528
38562W        W42630   7.907  10.347   9.398
38563W        W42631   8.928   8.399  10.608
38564W        W42632   9.379  10.565   8.119
38565W        W42633   8.687   9.820  10.757
38566W        W42634   8.813  10.058   8.134
38567W        W42635   8.034   8.798   7.393
38568W        W42636   7.373  10.884  14.292
38569W        W42637   7.749   9.777  13.815
38570W        W42638  10.454   9.507  11.585
38571W        W42639  10.584  10.592  13.612
38572W        W42640   8.502  10.583  11.138
38573W        W42641   8.585   8.735  12.121
38574W        W42642   8.100   8.583  12.285
38575W        W42643   9.091   9.398  11.719
38576W        W42644   8.766  10.490  14.074
38577W        W42645   7.415   8.051  14.037
38578W        W42646   8.177   7.331  13.839
38579W        W42647   9.871   7.719  12.726
38580W        W42648   9.520   8.590  11.296
38581W        W42649  10.090   8.024  14.387
38582W        W42650   7.456   7.816  13.512
38583W        W42651   7.555  10.435  14.533
38584W        W42652   9.077   9.825  11.265
38585W        W42653   7.509   8.608  12.958
38586W        W42654   8.402   8.499  14.195
38587W        W42655  10.861   8.358  12.694
38588W        W42656  10.625   9.401  13.553
38589W        W42657   8.933   8.734  12.580
38590W        W42658   9.479  10.073  12.949
38591W        W42659   7.979   9.507  13.181
38592W        W42660   7.338   9.035  12.752
38593W        W42661   8.374   9.007  13.944
38594W        W42662  10.645   8.790  14.198
38595W        W42663   8.261  10.234  12.643
38596W        W42664   9.382   9.923  13.777
38597W        W42665   8.602   8.563  13.002
38598W        W42666   8.894   9.347  12.645
38599W        W42667   9.891  10.120  14.493
38600W        W42668   8.970   9.440  14.503
38601W        W42669   8.951   9.156  13.981
38602W        W42670   7.360   8.547  14.503
38603W        W42671  10.192  10.082  14.102
38604W        W42672   7.773   7.664  12.100
38605W        W42673   8.300   9.922  13.099
38606W        W42674  10.763   9.705  12.389
38607W        W42675  10.176   8.105  12.956
38608W        W42676  10.461   8.058  11.051
38609W        W42677  10.926   8.859  13.357
38610W        W42678   8.893  10.566  13.110
38611W        W42679  10.667  10.032  11.548
38612W        W42680   7.796  10.818  11.302
38613W        W42681   8.189  10.864  11.978
38614W        W42682   7.986   7.618  13.404
38615W        W42683  10.609   8.636  13.679
38616W        W42684  10.014   9.058  12.138
38617W        W42685   9.980   8.746  11.165
38618W        W42686   9.188   9.890  13.305
38619W        W42687   8.994   8.220  12.504
38620W        W42688   9.594  10.307  13.498
38621W        W42689  10.465   9.098  11.920
38622W        W42690   9.367   7.756  11.936
38623W        W42691   8.024  10.450  11.619
38624W        W42692   7.395   7.949  12.218
38625W        W42693  10.181   8.556  12.692
38626W        W42694   7.639  10.173  12.607
38627W        W42695   8.980  10.523  11.477
38628W        W42696  10.372   8.549  10.941
38629W        W42697   7.395  10.307  13.105
38630W        W42698   8.186   9.879  13.585
38631W        W42699   8.559   9.239  12.204
38632W        W42700   8.581   7.644  13.297
38633W        W42701  10.810   7.406  12.594
38634W        W42702   8.029   9.278  11.062
38635W        W42703   7.684   8.311  11.241
38636W        W42704   7.746  10.267  12.035
38637W        W42705   8.877   9.750  12.283
38638W        W42706  10.209  10.609  13.997
38639W        W42707   9.135   8.251  11.681
38640W        W42708  10.518  10.649  12.453
38641W        W42709  10.195   8.502  14.051
38642W        W42710  10.908  10.158  12.185
38643W        W42711   9.535   9.450  13.669
38644W        W42712   7.301   9.001  11.875
38645W        W42713   8.412   9.416  13.448
38646W        W42714   9.616   8.680  11.826
38647W        W42715   9.493   9.170  11.930
38648W        W42716   7.836   8.590  13.404
38649W        W42717   7.821   8.466  14.326
38650W        W42718   7.711   7.383  12.485
38651W        W42719   9.479   7.730  13.046
38652W        W42720   9.127   7.915  14.209
38653W        W42721   9.482   8.064  11.387
38654W        W42722  10.665  10.457  14.141
38655W        W42723   9.632   7.538  14.180
38656W        W42724  10.651   9.839  14.302
38657W        W42725  10.081   8.006  13.898
38658W        W42726   9.881   7.944  12.168
38659W        W42727  10.274   9.078  14.572
38660W        W42728   8.014  10.654  12.558
38661W        W42729   8.672   8.371  11.544
38662W        W42730   8.241   7.655  14.208
38663W        W42731  10.293   8.139  11.889
38664W        W42732  10.660   8.621  11.834
38665W        W42733   8.403  10.838  14.305
38666W        W42734   8.329   7.374  11.540
38667W        W42735  10.650   7.908  12.575
38668W        W42736  10.800  10.157  11.020
38669W        W42737   7.707   9.360  12.722
38670W        W42738   9.624   7.947  10.952
38671W        W42739  10.758  10.279  12.672
38672W        W42740  10.797   7.473  13.422
38673W        W42741   9.242   8.685  13.976
38674W        W42742   9.335  10.024  11.679
38675W        W42743   9.735   9.318  14.419
38676W        W42744   9.409   7.295  12.728
38677W        W42745   8.021   8.198  12.791
38678W        W42746   7.575   9.398  13.565
38679W        W42747   9.434  10.591  12.271
38680W        W42748  10.628   8.188  13.143
38681W        W42749   9.265  10.535  13.910
38682W        W42750  10.608   9.594  11.115
38683W        W42751   9.043   9.077  12.176
38684W        W42752  10.895   7.588  13.917
38685W        W42753   9.044   9.423  13.511
38686W        W42754   9.261   8.309  12.956
38687W        W42755  10.113   8.607  11.794
38688W        W42756  10.400   8.340  11.436
38689W        W42757  10.209  10.380  11.825
38690W        W42758  10.043   9.983  12.621
38691W        W42759   9.939   9.062  11.599
38692W        W42760   9.372   9.272  12.585
38693W        W42761  10.253   9.060  12.652
38694W        W42762   7.628   8.075  13.076
38695W        W42763  10.406   9.127  13.903
38696W        W42764  10.757  10.745  13.049
38697W        W42765   8.687  10.189  12.451
38698W        W42766   9.694  10.722  13.775
38699W        W42767   9.688   8.052  13.539
38700W        W42768   8.895  10.760  13.600
38701W        W42769  10.592   7.714  12.066
38702W        W42770  10.383   9.033  13.367
38703W        W42771   7.366   8.354  13.405
38704W        W42772  10.226   8.149  12.423
38705W        W42773  10.637   8.300  14.200
38706W        W42774   9.522   9.999  12.418
38707W        W42775   8.778  10.590  12.031
38708W        W42776   7.893   7.770  11.289
38709W        W42777   8.997   7.424  13.099
38710W        W42778   8.025  10.544  10.947
38711W        W42779   8.399   9.010  11.698
38712W        W42780   9.053   9.639  14.011
38713W        W42781   8.883   7.997  12.001
38714W        W42782  10.239   7.594  12.429
38715W        W42783   9.959  10.876  12.757
38716W        W42784   9.371  10.524  13.097
38717W        W42785   8.767   9.561  13.058
38718W        W42786  10.537  10.284  13.184
38719W        W42787   8.231   7.787  11.953
38720W        W42788   8.753  10.084  12.913
38721W        W42789   8.236   8.015  10.978
38722W        W42790   9.037   8.624  13.372
38723W        W42791   9.885   7.490  13.242
38724W        W42792   7.305   9.333  13.127
38725W        W42793   9.009   9.151  11.285
38726W        W42794   8.277   7.466  11.055
38727W        W42795   9.015   8.547  12.106
38728W        W42796   9.985   7.523  13.805
38729W        W42797   8.573   9.535  13.914
38730W        W42798   9.377   9.317  14.131
38731W        W42799   9.994   9.347  14.024
38732W        W42800   9.278   7.487  14.529
38733W        W42801   8.500   8.103  12.922
38734W        W42802   7.926   8.059  12.320
38735W        W42803   7.712  10.771  11.996
38736W        W42804   9.044  10.101  14.121
38737W        W42805   8.079   9.586  11.480
38738W        W42806   9.759   8.971  12.701
38739W        W42807  10.039   8.770  13.100
38740W        W42808   9.244   9.444  13.034
38741W        W42809   9.714   9.818  11.166
38742W        W42810   9.386   7.839  12.494
38743W        W42811  10.865   8.117  11.762
38744W        W42812   7.359  10.706  13.793
38745W        W42813   7.776   9.932  13.325
38746W        W42814   7.343  10.778  11.557
38747W        W42815   9.242   8.048  13.363
38748W        W42816   8.605  10.071  11.212
38749W        W42817  10.510  10.453  11.398
38750W        W42818   9.485   9.106  11.412
38751W        W42819   8.328   8.297  11.929
38752W        W42820   9.160   8.207  10.981
38753W        W42821   9.744   9.772  14.159
38754W        W42822  10.097   7.678  11.776
38755W        W42823   7.427   7.526  11.224
38756W        W42824   8.713   9.845  13.514
38757W        W42825   8.512   9.761  12.606
38758W        W42826   8.254   9.713  11.004
38759W        W42827   7.495   9.954  11.772
38760W        W42828   7.999   9.024  14.214
38761W        W42829   8.703   7.584  14.400
38762W        W42830   9.412   7.726  13.756
38763W        W42831   8.607   7.494  12.037
38764W        W42832   9.666   7.571  11.542
38765W        W42833   7.611   7.503  13.119
38766W        W42834   7.659   8.466  12.489
38767W        W42835  10.348   7.574  12.895
38768W        W42836   7.770   8.072  11.709
38769W        W42837  10.341   7.760  13.325
38770W        W42838  10.737   8.963  11.010
38771W        W42839   8.029   7.721  12.829
38772W        W42840   9.143   8.293  13.769
38773W        W42841   7.291   7.983  11.247
38774W        W42842   8.077   9.372  13.808
38775W        W42843   9.435   8.770  12.987
38776W        W42844   9.302  10.849  11.283
38777W        W42845   7.448   9.356  10.980
38778W        W42846   8.183   9.767  14.106
38779W        W42847   7.704   8.934  13.737
38780W        W42848   8.695   9.039  13.531
38781W        W42849  10.463   7.398  13.793
38782W        W42850  10.861   9.008  13.784
38783W        W42851  10.849   9.208  11.470
38784W        W42852   9.712   9.540  11.569
38785W        W42853  10.186  10.840  11.264
38786W        W42854   9.363   8.830  14.406
38787W        W42855   7.693   9.797  14.446
38788W        W42856  10.899   7.719  14.398
38789W        W42857  10.617   8.647  13.019
38790W        W42858   8.925  10.777  14.496
38791W        W42859   8.780   7.406  11.223
38792W        W42860  10.319  10.005  11.166
38793W        W42861   8.088   8.098  14.052
38794W        W42862   8.522  10.092  13.914
38795W        W42863  10.648   8.083  13.712
38796W        W42864   9.859  10.742  11.680
38797W        W42865  10.098   9.361  13.047
38798W        W42866   8.348   7.777  13.714
38799W        W42867   8.817   8.846  14.471
38800W        W42868   8.320  10.025  11.665
38801W        W42869  10.075   9.523  11.929
38802W        W42870   7.843   8.149  13.653
38803W        W42871   9.172  10.211  12.117
38804W        W42872  10.922   8.771  12.298
38805W        W42873   9.144   7.404  14.017
38806W        W42874   9.924  10.109  13.096
38807W        W42875  10.227  10.453  12.804
38808W        W42876   9.446  10.255  11.232
38809W        W42877   7.456  10.147  14.074
38810W        W42878   8.199   8.139  13.312
38811W        W42879   8.169   7.487  12.422
38812W        W42880   9.790   8.329  13.114
38813W        W42881   8.588   9.500  11.314
38814W        W42882  10.586   9.442  12.813
38815W        W42883   7.913  10.200  14.236
38816W        W42884  10.300  10.882  12.033
38817W        W42885   8.399   7.902  12.478
38818W        W42886   8.168   9.395  12.568
38819W        W42887   8.481  10.806  13.318
38820W        W42888  10.548  10.902  14.350
38821W        W42889   9.707   9.090  13.283
38822W        W42890   7.556   8.888  11.198
38823W        W42891  10.690  10.546  11.895
38824W        W42892  10.527   7.870  11.514
38825W        W42893   8.666   7.389  13.917
38826W        W42894  10.372  10.191  12.375
38827W        W42895  10.401   8.747  12.280
38828W        W42896   8.518   8.420  12.496
38829W        W42897   8.763   8.682  13.820
38830W        W42898   9.874   9.835  13.683
38831W        W42899   8.524   8.289  13.795
38832W        W42900   8.503  10.755  12.411
38833W        W42901   7.820  10.714  14.045
38834W        W42902   7.932  10.075  11.175
38835W        W42903  10.449   9.833  11.985
38836W        W42904   8.053   8.625  13.871
38837W        W42905  10.826   8.555  11.352
38838W        W42906   8.571   9.612  11.823
38839W        W42907   9.670   8.994  13.904
38840W        W42908   9.561   8.622  13.448
38841W        W42909   8.121   8.994  13.477
38842W        W42910  10.331  10.882  13.306
38843W        W42911  10.122   7.516  14.300
38844W        W42912   7.786   7.666  13.887
38845W        W42913   8.125   8.689  12.940
38846W        W42914   8.494   8.503  11.062
38847W        W42915   7.297  10.262  13.607
38848W        W42916   8.882   8.971  13.050
38849W        W42917   8.705   7.996  11.155
38850W        W42918   7.840   8.812  11.936
38851W        W42919   7.611  10.664  13.373
38852W        W42920  10.406   8.890  11.481
38853W        W42921  10.501   7.806  14.167
38854W        W42922   9.937  10.015  12.130
38855W        W42923   7.535   8.939  14.307
38856W        W42924  10.501   7.403  11.603
38857W        W42925  10.021   9.878  11.614
38858W        W42926   8.923   8.936  11.699
38859W        W42927  10.110   7.740  11.222
38860W        W42928  10.175   8.347  13.408
38861W        W42929   7.884   8.940  12.615
38862W        W42930   8.178   9.879  12.264
38863W        W42931   9.941   8.499  12.229
38864W        W42932   8.964   7.878  12.925
38865W        W42933  10.926   9.789  13.436
38866W        W42934  10.844   7.776  12.997
38867W        W42935   7.383  10.606  12.373
38868W        W42936   7.892   9.793  11.909
38869W        W42937   7.807   7.410  14.462
38870W        W42938   8.926  10.263  14.564
38871W        W42939  10.681   9.231  12.354
38872W        W42940  10.035   9.408  11.234
38873W        W42941   9.330  10.929  13.446
38874W        W42942  10.187   9.651  14.483
38875W        W42943   9.002   7.361  11.763
38876W        W42944   9.715   8.230  12.622
38877W        W42945   7.401   9.817  12.954
38878W        W42946   8.654   7.779  11.595
38879W        W42947   8.458   9.263  14.444
38880W        W42948   9.452   8.244  12.158
38881W        W42949   9.657   9.654  13.280
38882W        W42950   7.811  10.259  13.715
38883W        W42951   8.402  10.242  14.438
38884W        W42952   8.253   8.039  11.452
38885W        W42953   9.770   8.181  11.777
38886W        W42954   9.728  10.289  14.014
38887W        W42955   8.413   8.881  12.613
38888W        W42956   8.068  10.579  13.478
38889W        W42957  10.813  10.696  11.079
38890W        W42958   7.676   9.368  14.075
38891W        W42959   9.671   9.630  12.763
38892W        W42960   8.107   9.279  12.005
38893W        W42961   8.478  10.286  13.400
38894W        W42962   8.856   7.705  12.441
38895W        W42963   7.467   9.689  11.371
38896W        W42964   8.986   8.640  11.241
38897W        W42965   7.632   9.189  12.260
38898W        W42966   8.922   7.831  13.724
38899W        W42967  10.594   7.540  11.151
38900W        W42968  10.687   9.286  14.250
38901W        W42969   9.341  10.543  14.402
38902W        W42970  10.899   9.637  13.924
38903W        W42971  10.307  10.435  14.535
38904W        W42972   8.046  10.891  13.013
38905W        W42973  10.905   9.513  11.887
38906W        W42974   9.435   8.780  12.400
38907W        W42975   9.202   7.392  12.290
38908W        W42976   8.261  10.376  12.127
38909W        W42977   8.760   8.117  13.352
38910W        W42978   8.460   7.486  12.821
38911W        W42979   7.523  10.308  11.369
38912W        W42980   9.339   9.672  12.087
38913W        W42981   8.214  10.467  13.966
38914W        W42982   7.691   9.290  11.662
38915W        W42983   7.576   7.833  12.661
38916W        W42984   9.124   9.798  12.718
38917W        W42985   7.376   7.652  11.738
38918W        W42986  10.040   8.858  13.665
38919W        W42987   9.917   8.244  11.237
38920W        W42988  10.434   9.916  12.885
38921W        W42989   9.095  10.400  12.716
38922W        W42990   8.507  10.504  11.627
38923W        W42991   9.789   7.407  11.057
38924W        W42992   7.589  10.667  12.798
38925W        W42993   9.786   8.425  14.433
38926W        W42994   7.769   7.955  14.432
38927W        W42995   7.500   8.555  11.765
38928W        W42996   8.191   8.544  11.490
38929W        W42997   9.954   8.871  14.307
38930W        W42998   8.297   9.152  13.016
38931W        W42999   9.771   7.438  12.136
38932W        W43000   8.902  10.869  12.639
38933W        W43001  10.116  10.331  13.576
38934W        W43002   9.700  10.480  12.687
38935W        W43003   9.719   9.460  12.281
38936W        W43004   9.181   7.685  11.352
38937W        W43005  10.862   7.313  12.074
38938W        W43006   8.550   8.948  11.237
38939W        W43007  10.716   8.285  12.227
38940W        W43008   9.408   9.455  11.104
38941W        W43009  10.344   9.655  13.852
38942W        W43010   9.998  10.356  11.319
38943W        W43011   8.613   8.031  14.225
38944W        W43012   8.433   8.615  13.466
38945W        W43013  10.525  10.110  13.743
38946W        W43014   9.625   8.060  14.120
38947W        W43015   7.469   8.531  13.897
38948W        W43016   9.229   9.008  13.623
38949W        W43017   7.586   9.766  12.280
38950W        W43018   7.733   9.063  13.170
38951W        W43019  10.050   9.349  13.520
38952W        W43020   9.822  10.729  14.331
38953W        W43021   9.718   8.468  13.884
38954W        W43022   9.995  10.522  12.289
38955W        W43023   8.997  10.242  13.612
38956W        W43024   8.482  10.597  12.881
38957W        W43025  10.287   9.768  13.300
38958W        W43026   9.337   9.840  14.437
38959W        W43027   7.942   9.793  12.776
38960W        W43028  10.288   9.552  12.421
38961W        W43029   9.929  10.618  13.172
38962W        W43030   7.907  10.347  13.042
38963W        W43031   8.928   8.399  14.252
38964W        W43032   9.379  10.565  11.763
38965W        W43033   8.687   9.820  14.401
38966W        W43034   8.813  10.058  11.778
38967W        W43035   8.034   8.798  11.037
38968W        W43036   7.373  10.884  17.936
38969W        W43037   7.749   9.777  17.459
38970W        W43038  10.454   9.507  15.229
38971W        W43039  10.584  10.592  17.256
38972W        W43040   8.502  10.583  14.782
38973W        W43041   8.585   8.735  15.765
38974W        W43042   8.100   8.583  15.929
38975W        W43043   9.091   9.398  15.363
38976W        W43044   8.766  10.490  17.718
38977W        W43045   7.415   8.051  17.681
38978W        W43046   8.177   7.331  17.483
38979W        W43047   9.871   7.719  16.370
38980W        W43048   9.520   8.590  14.940
38981W        W43049  10.090   8.024  18.031
38982W        W43050   7.456   7.816  17.156
38983W        W43051   7.555  10.435  18.177
38984W        W43052   9.077   9.825  14.909
38985W        W43053   7.509   8.608  16.602
38986W        W43054   8.402   8.499  17.839
38987W        W43055  10.861   8.358  16.338
38988W        W43056  10.625   9.401  17.197
38989W        W43057   8.933   8.734  16.224
38990W        W43058   9.479  10.073  16.593
38991W        W43059   7.979   9.507  16.825
38992W        W43060   7.338   9.035  16.396
38993W        W43061   8.374   9.007  17.588
38994W        W43062  10.645   8.790  17.842
38995W        W43063   8.261  10.234  16.287
38996W        W43064   9.382   9.923  17.421
38997W        W43065   8.602   8.563  16.646
38998W        W43066   8.894   9.347  16.289
38999W        W43067   9.891  10.120  18.137
39000W        W43068   8.970   9.440  18.147
39001W        W43069   8.951   9.156  17.625
39002W        W43070   7.360   8.547  18.147
39003W        W43071  10.192  10.082  17.746
39004W        W43072   7.773   7.664  15.744
39005W        W43073   8.300   9.922  16.743
39006W        W43074  10.763   9.705  16.033
39007W        W43075  10.176   8.105  16.600
39008W        W43076  10.461   8.058  14.695
39009W        W43077  10.926   8.859  17.001
39010W        W43078   8.893  10.566  16.754
39011W        W43079  10.667  10.032  15.192
39012W        W43080   7.796  10.818  14.946
39013W        W43081   8.189  10.864  15.622
39014W        W43082   7.986   7.618  17.048
39015W        W43083  10.609   8.636  17.323
39016W        W43084  10.014   9.058  15.782
39017W        W43085   9.980   8.746  14.809
39018W        W43086   9.188   9.890  16.949
39019W        W43087   8.994   8.220  16.148
39020W        W43088   9.594  10.307  17.142
39021W        W43089  10.465   9.098  15.564
39022W        W43090   9.367   7.756  15.580
39023W        W43091   8.024  10.450  15.263
39024W        W43092   7.395   7.949  15.862
39025W        W43093  10.181   8.556  16.336
39026W        W43094   7.639  10.173  16.251
39027W        W43095   8.980  10.523  15.121
39028W        W43096  10.372   8.549  14.585
39029W        W43097   7.395  10.307  16.749
39030W        W43098   8.186   9.879  17.229
39031W        W43099   8.559   9.239  15.848
39032W        W43100   8.581   7.644  16.941
39033W        W43101  10.810   7.406  16.238
39034W        W43102   8.029   9.278  14.706
39035W        W43103   7.684   8.311  14.885
39036W        W43104   7.746  10.267  15.679
39037W        W43105   8.877   9.750  15.927
39038W        W43106  10.209  10.609  17.641
39039W        W43107   9.135   8.251  15.325
39040W        W43108  10.518  10.649  16.097
39041W        W43109  10.195   8.502  17.695
39042W        W43110  10.908  10.158  15.829
39043W        W43111   9.535   9.450  17.313
39044W        W43112   7.301   9.001  15.519
39045W        W43113   8.412   9.416  17.092
39046W        W43114   9.616   8.680  15.470
39047W        W43115   9.493   9.170  15.574
39048W        W43116   7.836   8.590  17.048
39049W        W43117   7.821   8.466  17.970
39050W        W43118   7.711   7.383  16.129
39051W        W43119   9.479   7.730  16.690
39052W        W43120   9.127   7.915  17.853
39053W        W43121   9.482   8.064  15.031
39054W        W43122  10.665  10.457  17.785
39055W        W43123   9.632   7.538  17.824
39056W        W43124  10.651   9.839  17.946
39057W        W43125  10.081   8.006  17.542
39058W        W43126   9.881   7.944  15.812
39059W        W43127  10.274   9.078  18.216
39060W        W43128   8.014  10.654  16.202
39061W        W43129   8.672   8.371  15.188
39062W        W43130   8.241   7.655  17.852
39063W        W43131  10.293   8.139  15.533
39064W        W43132  10.660   8.621  15.478
39065W        W43133   8.403  10.838  17.949
39066W        W43134   8.329   7.374  15.184
39067W        W43135  10.650   7.908  16.219
39068W        W43136  10.800  10.157  14.664
39069W        W43137   7.707   9.360  16.366
39070W        W43138   9.624   7.947  14.596
39071W        W43139  10.758  10.279  16.316
39072W        W43140  10.797   7.473  17.066
39073W        W43141   9.242   8.685  17.620
39074W        W43142   9.335  10.024  15.323
39075W        W43143   9.735   9.318  18.063
39076W        W43144   9.409   7.295  16.372
39077W        W43145   8.021   8.198  16.435
39078W        W43146   7.575   9.398  17.209
39079W        W43147   9.434  10.591  15.915
39080W        W43148  10.628   8.188  16.787
39081W        W43149   9.265  10.535  17.554
39082W        W43150  10.608   9.594  14.759
39083W        W43151   9.043   9.077  15.820
39084W        W43152  10.895   7.588  17.561
39085W        W43153   9.044   9.423  17.155
39086W        W43154   9.261   8.309  16.600
39087W        W43155  10.113   8.607  15.438
39088W        W43156  10.400   8.340  15.080
39089W        W43157  10.209  10.380  15.469
39090W        W43158  10.043   9.983  16.265
39091W        W43159   9.939   9.062  15.243
39092W        W43160   9.372   9.272  16.229
39093W        W43161  10.253   9.060  16.296
39094W        W43162   7.628   8.075  16.720
39095W        W43163  10.406   9.127  17.547
39096W        W43164  10.757  10.745  16.693
39097W        W43165   8.687  10.189  16.095
39098W        W43166   9.694  10.722  17.419
39099W        W43167   9.688   8.052  17.183
39100W        W43168   8.895  10.760  17.244
39101W        W43169  10.592   7.714  15.710
39102W        W43170  10.383   9.033  17.011
39103W        W43171   7.366   8.354  17.049
39104W        W43172  10.226   8.149  16.067
39105W        W43173  10.637   8.300  17.844
39106W        W43174   9.522   9.999  16.062
39107W        W43175   8.778  10.590  15.675
39108W        W43176   7.893   7.770  14.933
39109W        W43177   8.997   7.424  16.743
39110W        W43178   8.025  10.544  14.591
39111W        W43179   8.399   9.010  15.342
39112W        W43180   9.053   9.639  17.655
39113W        W43181   8.883   7.997  15.645
39114W        W43182  10.239   7.594  16.073
39115W        W43183   9.959  10.876  16.401
39116W        W43184   9.371  10.524  16.741
39117W        W43185   8.767   9.561  16.702
39118W        W43186  10.537  10.284  16.828
39119W        W43187   8.231   7.787  15.597
39120W        W43188   8.753  10.084  16.557
39121W        W43189   8.236   8.015  14.622
39122W        W43190   9.037   8.624  17.016
39123W        W43191   9.885   7.490  16.886
39124W        W43192   7.305   9.333  16.771
39125W        W43193   9.009   9.151  14.929
39126W        W43194   8.277   7.466  14.699
39127W        W43195   9.015   8.547  15.750
39128W        W43196   9.985   7.523  17.449
39129W        W43197   8.573   9.535  17.558
39130W        W43198   9.377   9.317  17.775
39131W        W43199   9.994   9.347  17.668
39132W        W43200   9.278   7.487  18.173
39133W        W43201   8.500   8.103  16.566
39134W        W43202   7.926   8.059  15.964
39135W        W43203   7.712  10.771  15.640
39136W        W43204   9.044  10.101  17.765
39137W        W43205   8.079   9.586  15.124
39138W        W43206   9.759   8.971  16.345
39139W        W43207  10.039   8.770  16.744
39140W        W43208   9.244   9.444  16.678
39141W        W43209   9.714   9.818  14.810
39142W        W43210   9.386   7.839  16.138
39143W        W43211  10.865   8.117  15.406
39144W        W43212   7.359  10.706  17.437
39145W        W43213   7.776   9.932  16.969
39146W        W43214   7.343  10.778  15.201
39147W        W43215   9.242   8.048  17.007
39148W        W43216   8.605  10.071  14.856
39149W        W43217  10.510  10.453  15.042
39150W        W43218   9.485   9.106  15.056
39151W        W43219   8.328   8.297  15.573
39152W        W43220   9.160   8.207  14.625
39153W        W43221   9.744   9.772  17.803
39154W        W43222  10.097   7.678  15.420
39155W        W43223   7.427   7.526  14.868
39156W        W43224   8.713   9.845  17.158
39157W        W43225   8.512   9.761  16.250
39158W        W43226   8.254   9.713  14.648
39159W        W43227   7.495   9.954  15.416
39160W        W43228   7.999   9.024  17.858
39161W        W43229   8.703   7.584  18.044
39162W        W43230   9.412   7.726  17.400
39163W        W43231   8.607   7.494  15.681
39164W        W43232   9.666   7.571  15.186
39165W        W43233   7.611   7.503  16.763
39166W        W43234   7.659   8.466  16.133
39167W        W43235  10.348   7.574  16.539
39168W        W43236   7.770   8.072  15.353
39169W        W43237  10.341   7.760  16.969
39170W        W43238  10.737   8.963  14.654
39171W        W43239   8.029   7.721  16.473
39172W        W43240   9.143   8.293  17.413
39173W        W43241   7.291   7.983  14.891
39174W        W43242   8.077   9.372  17.452
39175W        W43243   9.435   8.770  16.631
39176W        W43244   9.302  10.849  14.927
39177W        W43245   7.448   9.356  14.624
39178W        W43246   8.183   9.767  17.750
39179W        W43247   7.704   8.934  17.381
39180W        W43248   8.695   9.039  17.175
39181W        W43249  10.463   7.398  17.437
39182W        W43250  10.861   9.008  17.428
39183W        W43251  10.849   9.208  15.114
39184W        W43252   9.712   9.540  15.213
39185W        W43253  10.186  10.840  14.908
39186W        W43254   9.363   8.830  18.050
39187W        W43255   7.693   9.797  18.090
39188W        W43256  10.899   7.719  18.042
39189W        W43257  10.617   8.647  16.663
39190W        W43258   8.925  10.777  18.140
39191W        W43259   8.780   7.406  14.867
39192W        W43260  10.319  10.005  14.810
39193W        W43261   8.088   8.098  17.696
39194W        W43262   8.522  10.092  17.558
39195W        W43263  10.648   8.083  17.356
39196W        W43264   9.859  10.742  15.324
39197W        W43265  10.098   9.361  16.691
39198W        W43266   8.348   7.777  17.358
39199W        W43267   8.817   8.846  18.115
39200W        W43268   8.320  10.025  15.309
39201W        W43269  10.075   9.523  15.573
39202W        W43270   7.843   8.149  17.297
39203W        W43271   9.172  10.211  15.761
39204W        W43272  10.922   8.771  15.942
39205W        W43273   9.144   7.404  17.661
39206W        W43274   9.924  10.109  16.740
39207W        W43275  10.227  10.453  16.448
39208W        W43276   9.446  10.255  14.876
39209W        W43277   7.456  10.147  17.718
39210W        W43278   8.199   8.139  16.956
39211W        W43279   8.169   7.487  16.066
39212W        W43280   9.790   8.329  16.758
39213W        W43281   8.588   9.500  14.958
39214W        W43282  10.586   9.442  16.457
39215W        W43283   7.913  10.200  17.880
39216W        W43284  10.300  10.882  15.677
39217W        W43285   8.399   7.902  16.122
39218W        W43286   8.168   9.395  16.212
39219W        W43287   8.481  10.806  16.962
39220W        W43288  10.548  10.902  17.994
39221W        W43289   9.707   9.090  16.927
39222W        W43290   7.556   8.888  14.842
39223W        W43291  10.690  10.546  15.539
39224W        W43292  10.527   7.870  15.158
39225W        W43293   8.666   7.389  17.561
39226W        W43294  10.372  10.191  16.019
39227W        W43295  10.401   8.747  15.924
39228W        W43296   8.518   8.420  16.140
39229W        W43297   8.763   8.682  17.464
39230W        W43298   9.874   9.835  17.327
39231W        W43299   8.524   8.289  17.439
39232W        W43300   8.503  10.755  16.055
39233W        W43301   7.820  10.714  17.689
39234W        W43302   7.932  10.075  14.819
39235W        W43303  10.449   9.833  15.629
39236W        W43304   8.053   8.625  17.515
39237W        W43305  10.826   8.555  14.996
39238W        W43306   8.571   9.612  15.467
39239W        W43307   9.670   8.994  17.548
39240W        W43308   9.561   8.622  17.092
39241W        W43309   8.121   8.994  17.121
39242W        W43310  10.331  10.882  16.950
39243W        W43311  10.122   7.516  17.944
39244W        W43312   7.786   7.666  17.531
39245W        W43313   8.125   8.689  16.584
39246W        W43314   8.494   8.503  14.706
39247W        W43315   7.297  10.262  17.251
39248W        W43316   8.882   8.971  16.694
39249W        W43317   8.705   7.996  14.799
39250W        W43318   7.840   8.812  15.580
39251W        W43319   7.611  10.664  17.017
39252W        W43320  10.406   8.890  15.125
39253W        W43321  10.501   7.806  17.811
39254W        W43322   9.937  10.015  15.774
39255W        W43323   7.535   8.939  17.951
39256W        W43324  10.501   7.403  15.247
39257W        W43325  10.021   9.878  15.258
39258W        W43326   8.923   8.936  15.343
39259W        W43327  10.110   7.740  14.866
39260W        W43328  10.175   8.347  17.052
39261W        W43329   7.884   8.940  16.259
39262W        W43330   8.178   9.879  15.908
39263W        W43331   9.941   8.499  15.873
39264W        W43332   8.964   7.878  16.569
39265W        W43333  10.926   9.789  17.080
39266W        W43334  10.844   7.776  16.641
39267W        W43335   7.383  10.606  16.017
39268W        W43336   7.892   9.793  15.553
39269W        W43337   7.807   7.410  18.106
39270W        W43338   8.926  10.263  18.208
39271W        W43339  10.681   9.231  15.998
39272W        W43340  10.035   9.408  14.878
39273W        W43341   9.330  10.929  17.090
39274W        W43342  10.187   9.651  18.127
39275W        W43343   9.002   7.361  15.407
39276W        W43344   9.715   8.230  16.266
39277W        W43345   7.401   9.817  16.598
39278W        W43346   8.654   7.779  15.239
39279W        W43347   8.458   9.263  18.088
39280W        W43348   9.452   8.244  15.802
39281W        W43349   9.657   9.654  16.924
39282W        W43350   7.811  10.259  17.359
39283W        W43351   8.402  10.242  18.082
39284W        W43352   8.253   8.039  15.096
39285W        W43353   9.770   8.181  15.421
39286W        W43354   9.728  10.289  17.658
39287W        W43355   8.413   8.881  16.257
39288W        W43356   8.068  10.579  17.122
39289W        W43357  10.813  10.696  14.723
39290W        W43358   7.676   9.368  17.719
39291W        W43359   9.671   9.630  16.407
39292W        W43360   8.107   9.279  15.649
39293W        W43361   8.478  10.286  17.044
39294W        W43362   8.856   7.705  16.085
39295W        W43363   7.467   9.689  15.015
39296W        W43364   8.986   8.640  14.885
39297W        W43365   7.632   9.189  15.904
39298W        W43366   8.922   7.831  17.368
39299W        W43367  10.594   7.540  14.795
39300W        W43368  10.687   9.286  17.894
39301W        W43369   9.341  10.543  18.046
39302W        W43370  10.899   9.637  17.568
39303W        W43371  10.307  10.435  18.179
39304W        W43372   8.046  10.891  16.657
39305W        W43373  10.905   9.513  15.531
39306W        W43374   9.435   8.780  16.044
39307W        W43375   9.202   7.392  15.934
39308W        W43376   8.261  10.376  15.771
39309W        W43377   8.760   8.117  16.996
39310W        W43378   8.460   7.486  16.465
39311W        W43379   7.523  10.308  15.013
39312W        W43380   9.339   9.672  15.731
39313W        W43381   8.214  10.467  17.610
39314W        W43382   7.691   9.290  15.306
39315W        W43383   7.576   7.833  16.305
39316W        W43384   9.124   9.798  16.362
39317W        W43385   7.376   7.652  15.382
39318W        W43386  10.040   8.858  17.309
39319W        W43387   9.917   8.244  14.881
39320W        W43388  10.434   9.916  16.529
39321W        W43389   9.095  10.400  16.360
39322W        W43390   8.507  10.504  15.271
39323W        W43391   9.789   7.407  14.701
39324W        W43392   7.589  10.667  16.442
39325W        W43393   9.786   8.425  18.077
39326W        W43394   7.769   7.955  18.076
39327W        W43395   7.500   8.555  15.409
39328W        W43396   8.191   8.544  15.134
39329W        W43397   9.954   8.871  17.951
39330W        W43398   8.297   9.152  16.660
39331W        W43399   9.771   7.438  15.780
39332W        W43400   8.902  10.869  16.283
39333W        W43401  10.116  10.331  17.220
39334W        W43402   9.700  10.480  16.331
39335W        W43403   9.719   9.460  15.925
39336W        W43404   9.181   7.685  14.996
39337W        W43405  10.862   7.313  15.718
39338W        W43406   8.550   8.948  14.881
39339W        W43407  10.716   8.285  15.871
39340W        W43408   9.408   9.455  14.748
39341W        W43409  10.344   9.655  17.496
39342W        W43410   9.998  10.356  14.963
39343W        W43411   8.613   8.031  17.869
39344W        W43412   8.433   8.615  17.110
39345W        W43413  10.525  10.110  17.387
39346W        W43414   9.625   8.060  17.764
39347W        W43415   7.469   8.531  17.541
39348W        W43416   9.229   9.008  17.267
39349W        W43417   7.586   9.766  15.924
39350W        W43418   7.733   9.063  16.814
39351W        W43419  10.050   9.349  17.164
39352W        W43420   9.822  10.729  17.975
39353W        W43421   9.718   8.468  17.528
39354W        W43422   9.995  10.522  15.933
39355W        W43423   8.997  10.242  17.256
39356W        W43424   8.482  10.597  16.525
39357W        W43425  10.287   9.768  16.944
39358W        W43426   9.337   9.840  18.081
39359W        W43427   7.942   9.793  16.420
39360W        W43428  10.288   9.552  16.065
39361W        W43429   9.929  10.618  16.816
39362W        W43430   7.907  10.347  16.686
39363W        W43431   8.928   8.399  17.896
39364W        W43432   9.379  10.565  15.407
39365W        W43433   8.687   9.820  18.045
39366W        W43434   8.813  10.058  15.422
39367W        W43435   8.034   8.798  14.681
39368W        W43436   7.373  10.884  21.580
39369W        W43437   7.749   9.777  21.103
39370W        W43438  10.454   9.507  18.873
39371W        W43439  10.584  10.592  20.900
39372W        W43440   8.502  10.583  18.426
39373W        W43441   8.585   8.735  19.409
39374W        W43442   8.100   8.583  19.573
39375W        W43443   9.091   9.398  19.007
39376W        W43444   8.766  10.490  21.362
39377W        W43445   7.415   8.051  21.325
39378W        W43446   8.177   7.331  21.127
39379W        W43447   9.871   7.719  20.014
39380W        W43448   9.520   8.590  18.584
39381W        W43449  10.090   8.024  21.675
39382W        W43450   7.456   7.816  20.800
39383W        W43451   7.555  10.435  21.821
39384W        W43452   9.077   9.825  18.553
39385W        W43453   7.509   8.608  20.246
39386W        W43454   8.402   8.499  21.483
39387W        W43455  10.861   8.358  19.982
39388W        W43456  10.625   9.401  20.841
39389W        W43457   8.933   8.734  19.868
39390W        W43458   9.479  10.073  20.237
39391W        W43459   7.979   9.507  20.469
39392W        W43460   8.374   9.007  21.232
39393W        W43461  10.645   8.790  21.486
39394W        W43462   8.261  10.234  19.931
39395W        W43463   9.382   9.923  21.065
39396W        W43464   8.602   8.563  20.290
39397W        W43465   8.894   9.347  19.933
39398W        W43466   9.891  10.120  21.781
39399W        W43467   8.970   9.440  21.791
39400W        W43468   8.951   9.156  21.269
39401W        W43469   7.360   8.547  21.791
39402W        W43470  10.192  10.082  21.390
39403W        W43471   7.773   7.664  19.388
39404W        W43472   8.300   9.922  20.387
39405W        W43473  10.763   9.705  19.677
39406W        W43474  10.176   8.105  20.244
39407W        W43475  10.461   8.058  18.339
39408W        W43476  10.926   8.859  20.645
39409W        W43477   8.893  10.566  20.398
39410W        W43478  10.667  10.032  18.836
39411W        W43479   7.796  10.818  18.590
39412W        W43480   8.189  10.864  19.266
39413W        W43481   7.986   7.618  20.692
39414W        W43482  10.609   8.636  20.967
39415W        W43483  10.014   9.058  19.426
39416W        W43484   9.980   8.746  18.453
39417W        W43485   9.188   9.890  20.593
39418W        W43486   8.994   8.220  19.792
39419W        W43487   9.594  10.307  20.786
39420W        W43488  10.465   9.098  19.208
39421W        W43489   9.367   7.756  19.224
39422W        W43490   8.024  10.450  18.907
39423W        W43491   7.395   7.949  19.506
39424W        W43492  10.181   8.556  19.980
39425W        W43493   7.639  10.173  19.895
39426W        W43494   8.980  10.523  18.765
39427W        W43495  10.372   8.549  18.229
39428W        W43496   7.395  10.307  20.393
39429W        W43497   8.186   9.879  20.873
39430W        W43498   8.559   9.239  19.492
39431W        W43499   8.581   7.644  20.585
39432W        W43500  10.810   7.406  19.882
39433W        W43501   8.029   9.278  18.350
39434W        W43502   7.684   8.311  18.529
39435W        W43503   7.746  10.267  19.323
39436W        W43504   8.877   9.750  19.571
39437W        W43505  10.209  10.609  21.285
39438W        W43506   9.135   8.251  18.969
39439W        W43507  10.518  10.649  19.741
39440W        W43508  10.195   8.502  21.339
39441W        W43509  10.908  10.158  19.473
39442W        W43510   9.535   9.450  20.957
39443W        W43511   7.301   9.001  19.163
39444W        W43512   8.412   9.416  20.736
39445W        W43513   9.616   8.680  19.114
39446W        W43514   9.493   9.170  19.218
39447W        W43515   7.836   8.590  20.692
39448W        W43516   7.821   8.466  21.614
39449W        W43517   7.711   7.383  19.773
39450W        W43518   9.479   7.730  20.334
39451W        W43519   9.127   7.915  21.497
39452W        W43520   9.482   8.064  18.675
39453W        W43521  10.665  10.457  21.429
39454W        W43522   9.632   7.538  21.468
39455W        W43523  10.651   9.839  21.590
39456W        W43524  10.081   8.006  21.186
39457W        W43525   9.881   7.944  19.456
39458W        W43526  10.274   9.078  21.860
39459W        W43527   8.672   8.371  18.832
39460W        W43528   8.241   7.655  21.496
39461W        W43529  10.293   8.139  19.177
39462W        W43530  10.660   8.621  19.122
39463W        W43531   8.403  10.838  21.593
39464W        W43532   8.329   7.374  18.828
39465W        W43533  10.650   7.908  19.863
39466W        W43534  10.800  10.157  18.308
39467W        W43535   7.707   9.360  20.010
39468W        W43536   9.624   7.947  18.240
39469W        W43537  10.758  10.279  19.960
39470W        W43538  10.797   7.473  20.710
39471W        W43539   9.242   8.685  21.264
39472W        W43540   9.335  10.024  18.967
39473W        W43541   9.735   9.318  21.707
39474W        W43542   9.409   7.295  20.016
39475W        W43543   8.021   8.198  20.079
39476W        W43544   7.575   9.398  20.853
39477W        W43545   9.434  10.591  19.559
39478W        W43546  10.628   8.188  20.431
39479W        W43547   9.265  10.535  21.198
39480W        W43548  10.608   9.594  18.403
39481W        W43549   9.043   9.077  19.464
39482W        W43550  10.895   7.588  21.205
39483W        W43551   9.044   9.423  20.799
39484W        W43552   9.261   8.309  20.244
39485W        W43553  10.113   8.607  19.082
39486W        W43554  10.400   8.340  18.724
39487W        W43555  10.209  10.380  19.113
39488W        W43556  10.043   9.983  19.909
39489W        W43557   9.939   9.062  18.887
39490W        W43558   9.372   9.272  19.873
39491W        W43559  10.253   9.060  19.940
39492W        W43560   7.628   8.075  20.364
39493W        W43561  10.406   9.127  21.191
39494W        W43562  10.757  10.745  20.337
39495W        W43563   8.687  10.189  19.739
39496W        W43564   9.694  10.722  21.063
39497W        W43565   9.688   8.052  20.827
39498W        W43566   8.895  10.760  20.888
39499W        W43567  10.592   7.714  19.354
39500W        W43568  10.383   9.033  20.655
39501W        W43569   7.366   8.354  20.693
39502W        W43570  10.226   8.149  19.711
39503W        W43571  10.637   8.300  21.488
39504W        W43572   9.522   9.999  19.706
39505W        W43573   8.778  10.590  19.319
39506W        W43574   7.893   7.770  18.577
39507W        W43575   8.997   7.424  20.387
39508W        W43576   8.025  10.544  18.235
39509W        W43577   8.399   9.010  18.986
39510W        W43578   9.053   9.639  21.299
39511W        W43579   8.883   7.997  19.289
39512W        W43580  10.239   7.594  19.717
39513W        W43581   9.959  10.876  20.045
39514W        W43582   9.371  10.524  20.385
39515W        W43583   8.767   9.561  20.346
39516W        W43584  10.537  10.284  20.472
39517W        W43585   8.231   7.787  19.241
39518W        W43586   8.753  10.084  20.201
39519W        W43587   8.236   8.015  18.266
39520W        W43588   9.037   8.624  20.660
39521W        W43589   9.885   7.490  20.530
39522W        W43590   7.305   9.333  20.415
39523W        W43591   9.009   9.151  18.573
39524W        W43592   8.277   7.466  18.343
39525W        W43593   9.015   8.547  19.394
39526W        W43594   9.985   7.523  21.093
39527W        W43595   8.573   9.535  21.202
39528W        W43596   9.377   9.317  21.419
39529W        W43597   9.994   9.347  21.312
39530W        W43598   9.278   7.487  21.817
39531W        W43599   8.500   8.103  20.210
39532W        W43600   7.926   8.059  19.608
39533W        W43601   9.044  10.101  21.409
39534W        W43602   8.079   9.586  18.768
39535W        W43603   9.759   8.971  19.989
39536W        W43604  10.039   8.770  20.388
39537W        W43605   9.244   9.444  20.322
39538W        W43606   9.714   9.818  18.454
39539W        W43607   9.386   7.839  19.782
39540W        W43608  10.865   8.117  19.050
39541W        W43609   7.359  10.706  21.081
39542W        W43610   7.776   9.932  20.613
39543W        W43611   7.343  10.778  18.845
39544W        W43612   9.242   8.048  20.651
39545W        W43613   8.605  10.071  18.500
39546W        W43614  10.510  10.453  18.686
39547W        W43615   9.485   9.106  18.700
39548W        W43616   8.328   8.297  19.217
39549W        W43617   9.160   8.207  18.269
39550W        W43618   9.744   9.772  21.447
39551W        W43619  10.097   7.678  19.064
39552W        W43620   7.427   7.526  18.512
39553W        W43621   8.713   9.845  20.802
39554W        W43622   8.512   9.761  19.894
39555W        W43623   8.254   9.713  18.292
39556W        W43624   7.495   9.954  19.060
39557W        W43625   7.999   9.024  21.502
39558W        W43626   8.703   7.584  21.688
39559W        W43627   9.412   7.726  21.044
39560W        W43628   8.607   7.494  19.325
39561W        W43629   9.666   7.571  18.830
39562W        W43630   7.611   7.503  20.407
39563W        W43631   7.659   8.466  19.777
39564W        W43632  10.348   7.574  20.183
39565W        W43633   7.770   8.072  18.997
39566W        W43634  10.341   7.760  20.613
39567W        W43635  10.737   8.963  18.298
39568W        W43636   8.029   7.721  20.117
39569W        W43637   9.143   8.293  21.057
39570W        W43638   7.291   7.983  18.535
39571W        W43639   8.077   9.372  21.096
39572W        W43640   9.435   8.770  20.275
39573W        W43641   9.302  10.849  18.571
39574W        W43642   7.448   9.356  18.268
39575W        W43643   8.183   9.767  21.394
39576W        W43644   7.704   8.934  21.025
39577W        W43645   8.695   9.039  20.819
39578W        W43646  10.463   7.398  21.081
39579W        W43647  10.861   9.008  21.072
39580W        W43648  10.849   9.208  18.758
39581W        W43649   9.712   9.540  18.857
39582W        W43650  10.186  10.840  18.552
39583W        W43651   9.363   8.830  21.694
39584W        W43652   7.693   9.797  21.734
39585W        W43653  10.899   7.719  21.686
39586W        W43654  10.617   8.647  20.307
39587W        W43655   8.925  10.777  21.784
39588W        W43656   8.780   7.406  18.511
39589W        W43657  10.319  10.005  18.454
39590W        W43658   8.088   8.098  21.340
39591W        W43659   8.522  10.092  21.202
39592W        W43660  10.648   8.083  21.000
39593W        W43661   9.859  10.742  18.968
39594W        W43662  10.098   9.361  20.335
39595W        W43663   8.348   7.777  21.002
39596W        W43664   8.817   8.846  21.759
39597W        W43665   8.320  10.025  18.953
39598W        W43666  10.075   9.523  19.217
39599W        W43667   7.843   8.149  20.941
39600W        W43668   9.172  10.211  19.405
39601W        W43669  10.922   8.771  19.586
39602W        W43670   9.144   7.404  21.305
39603W        W43671   9.924  10.109  20.384
39604W        W43672  10.227  10.453  20.092
39605W        W43673   9.446  10.255  18.520
39606W        W43674   7.456  10.147  21.362
39607W        W43675   8.199   8.139  20.600
39608W        W43676   8.169   7.487  19.710
39609W        W43677   9.790   8.329  20.402
39610W        W43678   8.588   9.500  18.602
39611W        W43679  10.586   9.442  20.101
39612W        W43680   7.913  10.200  21.524
39613W        W43681  10.300  10.882  19.321
39614W        W43682   8.399   7.902  19.766
39615W        W43683   8.168   9.395  19.856
39616W        W43684   8.481  10.806  20.606
39617W        W43685  10.548  10.902  21.638
39618W        W43686   9.707   9.090  20.571
39619W        W43687   7.556   8.888  18.486
39620W        W43688  10.690  10.546  19.183
39621W        W43689  10.527   7.870  18.802
39622W        W43690   8.666   7.389  21.205
39623W        W43691  10.372  10.191  19.663
39624W        W43692  10.401   8.747  19.568
39625W        W43693   8.518   8.420  19.784
39626W        W43694   8.763   8.682  21.108
39627W        W43695   9.874   9.835  20.971
39628W        W43696   8.524   8.289  21.083
39629W        W43697   8.503  10.755  19.699
39630W        W43698   7.820  10.714  21.333
39631W        W43699   7.932  10.075  18.463
39632W        W43700  10.449   9.833  19.273
39633W        W43701   8.053   8.625  21.159
39634W        W43702  10.826   8.555  18.640
39635W        W43703   8.571   9.612  19.111
39636W        W43704   9.670   8.994  21.192
39637W        W43705   9.561   8.622  20.736
39638W        W43706   8.121   8.994  20.765
39639W        W43707  10.331  10.882  20.594
39640W        W43708  10.122   7.516  21.588
39641W        W43709   7.786   7.666  21.175
39642W        W43710   8.125   8.689  20.228
39643W        W43711   8.494   8.503  18.350
39644W        W43712   7.297  10.262  20.895
39645W        W43713   8.882   8.971  20.338
39646W        W43714   8.705   7.996  18.443
39647W        W43715   7.840   8.812  19.224
39648W        W43716   7.611  10.664  20.661
39649W        W43717  10.406   8.890  18.769
39650W        W43718  10.501   7.806  21.455
39651W        W43719   9.937  10.015  19.418
39652W        W43720   7.535   8.939  21.595
39653W        W43721  10.501   7.403  18.891
39654W        W43722  10.021   9.878  18.902
39655W        W43723   8.923   8.936  18.987
39656W        W43724  10.110   7.740  18.510
39657W        W43725  10.175   8.347  20.696
39658W        W43726   7.884   8.940  19.903
39659W        W43727   8.178   9.879  19.552
39660W        W43728   9.941   8.499  19.517
39661W        W43729   8.964   7.878  20.213
39662W        W43730  10.926   9.789  20.724
39663W        W43731  10.844   7.776  20.285
39664W        W43732   7.383  10.606  19.661
39665W        W43733   7.892   9.793  19.197
39666W        W43734   7.807   7.410  21.750
39667W        W43735   8.926  10.263  21.852
39668W        W43736  10.681   9.231  19.642
39669W        W43737  10.035   9.408  18.522
39670W        W43738   9.330  10.929  20.734
39671W        W43739  10.187   9.651  21.771
39672W        W43740   9.002   7.361  19.051
39673W        W43741   9.715   8.230  19.910
39674W        W43742   7.401   9.817  20.242
39675W        W43743   8.654   7.779  18.883
39676W        W43744   8.458   9.263  21.732
39677W        W43745   9.452   8.244  19.446
39678W        W43746   9.657   9.654  20.568
39679W        W43747   7.811  10.259  21.003
39680W        W43748   8.402  10.242  21.726
39681W        W43749   8.253   8.039  18.740
39682W        W43750   9.770   8.181  19.065
39683W        W43751   9.728  10.289  21.302
39684W        W43752   8.413   8.881  19.901
39685W        W43753   8.068  10.579  20.766
39686W        W43754  10.813  10.696  18.367
39687W        W43755   7.676   9.368  21.363
39688W        W43756   9.671   9.630  20.051
39689W        W43757   8.107   9.279  19.293
39690W        W43758   8.478  10.286  20.688
39691W        W43759   8.856   7.705  19.729
39692W        W43760   7.467   9.689  18.659
39693W        W43761   8.986   8.640  18.529
39694W        W43762   8.922   7.831  21.012
39695W        W43763  10.594   7.540  18.439
39696W        W43764  10.687   9.286  21.538
39697W        W43765   9.341  10.543  21.690
39698W        W43766  10.899   9.637  21.212
39699W        W43767  10.307  10.435  21.823
39700W        W43768   8.046  10.891  20.301
39701W        W43769  10.905   9.513  19.175
39702W        W43770   9.435   8.780  19.688
39703W        W43771   9.202   7.392  19.578
39704W        W43772   8.261  10.376  19.415
39705W        W43773   8.760   8.117  20.640
39706W        W43774   8.460   7.486  20.109
39707W        W43775   7.523  10.308  18.657
39708W        W43776   9.339   9.672  19.375
39709W        W43777   8.214  10.467  21.254
39710W        W43778   7.691   9.290  18.950
39711W        W43779   7.576   7.833  19.949
39712W        W43780   9.124   9.798  20.006
39713W        W43781   7.376   7.652  19.026
39714W        W43782  10.040   8.858  20.953
39715W        W43783   9.917   8.244  18.525
39716W        W43784  10.434   9.916  20.173
39717W        W43785   9.095  10.400  20.004
39718W        W43786   8.507  10.504  18.915
39719W        W43787   9.789   7.407  18.345
39720W        W43788   9.786   8.425  21.721
39721W        W43789   7.769   7.955  21.720
39722W        W43790   7.500   8.555  19.053
39723W        W43791   8.191   8.544  18.778
39724W        W43792   9.954   8.871  21.595
39725W        W43793   8.297   9.152  20.304
39726W        W43794   9.771   7.438  19.424
39727W        W43795   8.902  10.869  19.927
39728W        W43796  10.116  10.331  20.864
39729W        W43797   9.700  10.480  19.975
39730W        W43798   9.719   9.460  19.569
39731W        W43799   9.181   7.685  18.640
39732W        W43800  10.862   7.313  19.362
39733W        W43801   8.550   8.948  18.525
39734W        W43802  10.716   8.285  19.515
39735W        W43803   9.408   9.455  18.392
39736W        W43804  10.344   9.655  21.140
39737W        W43805   9.998  10.356  18.607
39738W        W43806   8.613   8.031  21.513
39739W        W43807   8.433   8.615  20.754
39740W        W43808  10.525  10.110  21.031
39741W        W43809   9.625   8.060  21.408
39742W        W43810   7.469   8.531  21.185
39743W        W43811   9.229   9.008  20.911
39744W        W43812   7.586   9.766  19.568
39745W        W43813   7.733   9.063  20.458
39746W        W43814  10.050   9.349  20.808
39747W        W43815   9.822  10.729  21.619
39748W        W43816   9.718   8.468  21.172
39749W        W43817   9.995  10.522  19.577
39750W        W43818   8.997  10.242  20.900
39751W        W43819   8.482  10.597  20.169
39752W        W43820  10.287   9.768  20.588
39753W        W43821   9.337   9.840  21.725
39754W        W43822   7.942   9.793  20.064
39755W        W43823  10.288   9.552  19.709
39756W        W43824   9.929  10.618  20.460
39757W        W43825   7.907  10.347  20.330
39758W        W43826   8.928   8.399  21.540
39759W        W43827   9.379  10.565  19.051
39760W        W43828   8.687   9.820  21.689
39761W        W43829   8.813  10.058  19.066
39762W        W43830   8.034   8.798  18.325
39763W        W43831  10.454   9.507  22.518
39764W        W43832   8.502  10.583  22.071
39765W        W43833   8.585   8.735  23.054
39766W        W43834   8.100   8.583  23.218
39767W        W43835   9.091   9.398  22.652
39768W        W43836   9.520   8.590  22.229
39769W        W43837   9.077   9.825  22.198
39770W        W43838   7.773   7.664  23.033
39771W        W43839  10.461   8.058  21.984
39772W        W43840  10.667  10.032  22.481
39773W        W43841   7.796  10.818  22.235
39774W        W43842   8.189  10.864  22.911
39775W        W43843  10.014   9.058  23.071
39776W        W43844   9.980   8.746  22.098
39777W        W43845  10.465   9.098  22.853
39778W        W43846   9.367   7.756  22.869
39779W        W43847   8.024  10.450  22.552
39780W        W43848   8.980  10.523  22.410
39781W        W43849  10.372   8.549  21.874
39782W        W43850   8.559   9.239  23.137
39783W        W43851   8.029   9.278  21.995
39784W        W43852   7.684   8.311  22.174
39785W        W43853   7.746  10.267  22.968
39786W        W43854   8.877   9.750  23.216
39787W        W43855   9.135   8.251  22.614
39788W        W43856   7.301   9.001  22.808
39789W        W43857   9.616   8.680  22.759
39790W        W43858   9.493   9.170  22.863
39791W        W43859   9.482   8.064  22.320
39792W        W43860   9.881   7.944  23.101
39793W        W43861   8.672   8.371  22.477
39794W        W43862  10.293   8.139  22.822
39795W        W43863  10.660   8.621  22.767
39796W        W43864   8.329   7.374  22.473
39797W        W43865  10.800  10.157  21.953
39798W        W43866   9.624   7.947  21.885
39799W        W43867   9.335  10.024  22.612
39800W        W43868   9.434  10.591  23.204
39801W        W43869  10.608   9.594  22.048
39802W        W43870   9.043   9.077  23.109
39803W        W43871  10.113   8.607  22.727
39804W        W43872  10.400   8.340  22.369
39805W        W43873  10.209  10.380  22.758
39806W        W43874   9.939   9.062  22.532
39807W        W43875  10.592   7.714  22.999
39808W        W43876   8.778  10.590  22.964
39809W        W43877   7.893   7.770  22.222
39810W        W43878   8.025  10.544  21.880
39811W        W43879   8.399   9.010  22.631
39812W        W43880   8.883   7.997  22.934
39813W        W43881   8.231   7.787  22.886
39814W        W43882   8.236   8.015  21.911
39815W        W43883   9.009   9.151  22.218
39816W        W43884   8.277   7.466  21.988
39817W        W43885   9.015   8.547  23.039
39818W        W43886   7.926   8.059  23.253
39819W        W43887   7.712  10.771  22.929
39820W        W43888   8.079   9.586  22.413
39821W        W43889   9.714   9.818  22.099
39822W        W43890  10.865   8.117  22.695
39823W        W43891   7.343  10.778  22.490
39824W        W43892   8.605  10.071  22.145
39825W        W43893  10.510  10.453  22.331
39826W        W43894   9.485   9.106  22.345
39827W        W43895   8.328   8.297  22.862
39828W        W43896   9.160   8.207  21.914
39829W        W43897  10.097   7.678  22.709
39830W        W43898   7.427   7.526  22.157
39831W        W43899   8.254   9.713  21.937
39832W        W43900   7.495   9.954  22.705
39833W        W43901   8.607   7.494  22.970
39834W        W43902   9.666   7.571  22.475
39835W        W43903   7.770   8.072  22.642
39836W        W43904  10.737   8.963  21.943
39837W        W43905   7.291   7.983  22.180
39838W        W43906   9.302  10.849  22.216
39839W        W43907   7.448   9.356  21.913
39840W        W43908  10.849   9.208  22.403
39841W        W43909   9.712   9.540  22.502
39842W        W43910  10.186  10.840  22.197
39843W        W43911   8.780   7.406  22.156
39844W        W43912  10.319  10.005  22.099
39845W        W43913   9.859  10.742  22.613
39846W        W43914   8.320  10.025  22.598
39847W        W43915  10.075   9.523  22.862
39848W        W43916   9.172  10.211  23.050
39849W        W43917  10.922   8.771  23.231
39850W        W43918   9.446  10.255  22.165
39851W        W43919   8.588   9.500  22.247
39852W        W43920  10.300  10.882  22.966
39853W        W43921   7.556   8.888  22.131
39854W        W43922  10.690  10.546  22.828
39855W        W43923  10.527   7.870  22.447
39856W        W43924  10.401   8.747  23.213
39857W        W43925   7.932  10.075  22.108
39858W        W43926  10.449   9.833  22.918
39859W        W43927  10.826   8.555  22.285
39860W        W43928   8.571   9.612  22.756
39861W        W43929   8.494   8.503  21.995
39862W        W43930   8.705   7.996  22.088
39863W        W43931   7.840   8.812  22.869
39864W        W43932  10.406   8.890  22.414
39865W        W43933   9.937  10.015  23.063
39866W        W43934  10.501   7.403  22.536
39867W        W43935  10.021   9.878  22.547
39868W        W43936   8.923   8.936  22.632
39869W        W43937  10.110   7.740  22.155
39870W        W43938   8.178   9.879  23.197
39871W        W43939   9.941   8.499  23.162
39872W        W43940   7.383  10.606  23.306
39873W        W43941   7.892   9.793  22.842
39874W        W43942  10.681   9.231  23.287
39875W        W43943  10.035   9.408  22.167
39876W        W43944   9.002   7.361  22.696
39877W        W43945   8.654   7.779  22.528
39878W        W43946   9.452   8.244  23.091
39879W        W43947   8.253   8.039  22.385
39880W        W43948   9.770   8.181  22.710
39881W        W43949  10.813  10.696  22.012
39882W        W43950   7.467   9.689  22.304
39883W        W43951   8.986   8.640  22.174
39884W        W43952   7.632   9.189  23.193
39885W        W43953  10.594   7.540  22.084
39886W        W43954  10.905   9.513  22.820
39887W        W43955   9.202   7.392  23.223
39888W        W43956   8.261  10.376  23.060
39889W        W43957   7.523  10.308  22.302
39890W        W43958   9.339   9.672  23.020
39891W        W43959   7.691   9.290  22.595
39892W        W43960   7.376   7.652  22.671
39893W        W43961   9.917   8.244  22.170
39894W        W43962   8.507  10.504  22.560
39895W        W43963   9.789   7.407  21.990
39896W        W43964   7.500   8.555  22.698
39897W        W43965   8.191   8.544  22.423
39898W        W43966   9.719   9.460  23.214
39899W        W43967   9.181   7.685  22.285
39900W        W43968  10.862   7.313  23.007
39901W        W43969   8.550   8.948  22.170
39902W        W43970  10.716   8.285  23.160
39903W        W43971   9.408   9.455  22.037
39904W        W43972   9.998  10.356  22.252
39905W        W43973   7.586   9.766  23.213
39906W        W43974   9.995  10.522  23.222
39907W        W43975   9.379  10.565  22.696
39908W        W43976   8.813  10.058  22.711
39909W        W43977   8.034   8.798  21.970
39910W        W43978   7.373  14.528   3.359
39911W        W43979   7.749  13.421   2.882
39912W        W43980  10.454  13.151   0.652
39913W        W43981  10.584  14.236   2.679
39914W        W43982   8.502  14.227   0.205
39915W        W43983   8.585  12.379   1.188
39916W        W43984   8.100  12.227   1.352
39917W        W43985   9.091  13.042   0.786
39918W        W43986   8.766  14.134   3.141
39919W        W43987   7.415  11.695   3.104
39920W        W43988   8.177  10.975   2.906
39921W        W43989   9.871  11.363   1.793
39922W        W43990   9.520  12.234   0.363
39923W        W43991  10.090  11.668   3.454
39924W        W43992   7.456  11.460   2.579
39925W        W43993   7.555  14.079   3.600
39926W        W43994   9.077  13.469   0.332
39927W        W43995   7.509  12.252   2.025
39928W        W43996   8.402  12.143   3.262
39929W        W43997  10.861  12.002   1.761
39930W        W43998  10.625  13.045   2.620
39931W        W43999   8.933  12.378   1.647
39932W        W44000   9.479  13.717   2.016
39933W        W44001   7.979  13.151   2.248
39934W        W44002   7.338  12.679   1.819
39935W        W44003   8.374  12.651   3.011
39936W        W44004  10.645  12.434   3.265
39937W        W44005   8.261  13.878   1.710
39938W        W44006   9.382  13.567   2.844
39939W        W44007   8.602  12.207   2.069
39940W        W44008   8.894  12.991   1.712
39941W        W44009   9.891  13.764   3.560
39942W        W44010   8.970  13.084   3.570
39943W        W44011   8.951  12.800   3.048
39944W        W44012   7.360  12.191   3.570
39945W        W44013  10.192  13.726   3.169
39946W        W44014   7.773  11.308   1.167
39947W        W44015   8.300  13.566   2.166
39948W        W44016  10.763  13.349   1.456
39949W        W44017  10.176  11.749   2.023
39950W        W44018  10.461  11.702   0.118
39951W        W44019  10.926  12.503   2.424
39952W        W44020   8.893  14.210   2.177
39953W        W44021  10.667  13.676   0.615
39954W        W44022   7.796  14.462   0.369
39955W        W44023   8.189  14.508   1.045
39956W        W44024   7.986  11.262   2.471
39957W        W44025  10.609  12.280   2.746
39958W        W44026  10.014  12.702   1.205
39959W        W44027   9.980  12.390   0.232
39960W        W44028   9.188  13.534   2.372
39961W        W44029   8.994  11.864   1.571
39962W        W44030   9.594  13.951   2.565
39963W        W44031  10.465  12.742   0.987
39964W        W44032   9.367  11.400   1.003
39965W        W44033   8.024  14.094   0.686
39966W        W44034   7.395  11.593   1.285
39967W        W44035  10.181  12.200   1.759
39968W        W44036   7.639  13.817   1.674
39969W        W44037   8.980  14.167   0.544
39970W        W44038  10.372  12.193   0.008
39971W        W44039   7.395  13.951   2.172
39972W        W44040   8.186  13.523   2.652
39973W        W44041   8.559  12.883   1.271
39974W        W44042   8.581  11.288   2.364
39975W        W44043  10.810  11.050   1.661
39976W        W44044   8.029  12.922   0.129
39977W        W44045   7.684  11.955   0.308
39978W        W44046   7.746  13.911   1.102
39979W        W44047   8.877  13.394   1.350
39980W        W44048  10.209  14.253   3.064
39981W        W44049   9.135  11.895   0.748
39982W        W44050  10.518  14.293   1.520
39983W        W44051  10.195  12.146   3.118
39984W        W44052  10.908  13.802   1.252
39985W        W44053   9.535  13.094   2.736
39986W        W44054   7.301  12.645   0.942
39987W        W44055   8.412  13.060   2.515
39988W        W44056   9.616  12.324   0.893
39989W        W44057   9.493  12.814   0.997
39990W        W44058   7.836  12.234   2.471
39991W        W44059   7.821  12.110   3.393
39992W        W44060   7.711  11.027   1.552
39993W        W44061   9.479  11.374   2.113
39994W        W44062   9.127  11.559   3.276
39995W        W44063   9.482  11.708   0.454
39996W        W44064  10.665  14.101   3.208
39997W        W44065   9.632  11.182   3.247
39998W        W44066  10.651  13.483   3.369
39999W        W44067  10.081  11.650   2.965
40000W        W44068   9.881  11.588   1.235
40001W        W44069  10.274  12.722   3.639
40002W        W44070   8.014  14.298   1.625
40003W        W44071   8.672  12.015   0.611
40004W        W44072   8.241  11.299   3.275
40005W        W44073  10.293  11.783   0.956
40006W        W44074  10.660  12.265   0.901
40007W        W44075   8.403  14.482   3.372
40008W        W44076   8.329  11.018   0.607
40009W        W44077  10.650  11.552   1.642
40010W        W44078  10.800  13.801   0.087
40011W        W44079   7.707  13.004   1.789
40012W        W44080   9.624  11.591   0.019
40013W        W44081  10.758  13.923   1.739
40014W        W44082  10.797  11.117   2.489
40015W        W44083   9.242  12.329   3.043
40016W        W44084   9.335  13.668   0.746
40017W        W44085   9.735  12.962   3.486
40018W        W44086   9.409  10.939   1.795
40019W        W44087   8.021  11.842   1.858
40020W        W44088   7.575  13.042   2.632
40021W        W44089   9.434  14.235   1.338
40022W        W44090  10.628  11.832   2.210
40023W        W44091   9.265  14.179   2.977
40024W        W44092  10.608  13.238   0.182
40025W        W44093   9.043  12.721   1.243
40026W        W44094  10.895  11.232   2.984
40027W        W44095   9.044  13.067   2.578
40028W        W44096   9.261  11.953   2.023
40029W        W44097  10.113  12.251   0.861
40030W        W44098  10.400  11.984   0.503
40031W        W44099  10.209  14.024   0.892
40032W        W44100  10.043  13.627   1.688
40033W        W44101   9.939  12.706   0.666
40034W        W44102   9.372  12.916   1.652
40035W        W44103  10.253  12.704   1.719
40036W        W44104   7.628  11.719   2.143
40037W        W44105  10.406  12.771   2.970
40038W        W44106  10.757  14.389   2.116
40039W        W44107   8.687  13.833   1.518
40040W        W44108   9.694  14.366   2.842
40041W        W44109   9.688  11.696   2.606
40042W        W44110   8.895  14.404   2.667
40043W        W44111  10.592  11.358   1.133
40044W        W44112  10.383  12.677   2.434
40045W        W44113   7.366  11.998   2.472
40046W        W44114  10.226  11.793   1.490
40047W        W44115  10.637  11.944   3.267
40048W        W44116   9.522  13.643   1.485
40049W        W44117   8.778  14.234   1.098
40050W        W44118   7.893  11.414   0.356
40051W        W44119   8.997  11.068   2.166
40052W        W44120   8.025  14.188   0.014
40053W        W44121   8.399  12.654   0.765
40054W        W44122   9.053  13.283   3.078
40055W        W44123   8.883  11.641   1.068
40056W        W44124  10.239  11.238   1.496
40057W        W44125   9.959  14.520   1.824
40058W        W44126   9.371  14.168   2.164
40059W        W44127   8.767  13.205   2.125
40060W        W44128  10.537  13.928   2.251
40061W        W44129   8.231  11.431   1.020
40062W        W44130   8.753  13.728   1.980
40063W        W44131   8.236  11.659   0.045
40064W        W44132   9.037  12.268   2.439
40065W        W44133   9.885  11.134   2.309
40066W        W44134   7.305  12.977   2.194
40067W        W44135   9.009  12.795   0.352
40068W        W44136   8.277  11.110   0.122
40069W        W44137   9.015  12.191   1.173
40070W        W44138   9.985  11.167   2.872
40071W        W44139   8.573  13.179   2.981
40072W        W44140   9.377  12.961   3.198
40073W        W44141   9.994  12.991   3.091
40074W        W44142   9.278  11.131   3.596
40075W        W44143   8.500  11.747   1.989
40076W        W44144   7.926  11.703   1.387
40077W        W44145   7.712  14.415   1.063
40078W        W44146   9.044  13.745   3.188
40079W        W44147   8.079  13.230   0.547
40080W        W44148   9.759  12.615   1.768
40081W        W44149  10.039  12.414   2.167
40082W        W44150   9.244  13.088   2.101
40083W        W44151   9.714  13.462   0.233
40084W        W44152   9.386  11.483   1.561
40085W        W44153  10.865  11.761   0.829
40086W        W44154   7.359  14.350   2.860
40087W        W44155   7.776  13.576   2.392
40088W        W44156   7.343  14.422   0.624
40089W        W44157   9.242  11.692   2.430
40090W        W44158   8.605  13.715   0.279
40091W        W44159  10.510  14.097   0.465
40092W        W44160   9.485  12.750   0.479
40093W        W44161   8.328  11.941   0.996
40094W        W44162   9.160  11.851   0.048
40095W        W44163   9.744  13.416   3.226
40096W        W44164  10.097  11.322   0.843
40097W        W44165   7.427  11.170   0.291
40098W        W44166   8.713  13.489   2.581
40099W        W44167   8.512  13.405   1.673
40100W        W44168   8.254  13.357   0.071
40101W        W44169   7.495  13.598   0.839
40102W        W44170   7.999  12.668   3.281
40103W        W44171   8.703  11.228   3.467
40104W        W44172   9.412  11.370   2.823
40105W        W44173   8.607  11.138   1.104
40106W        W44174   9.666  11.215   0.609
40107W        W44175   7.611  11.147   2.186
40108W        W44176   7.659  12.110   1.556
40109W        W44177  10.348  11.218   1.962
40110W        W44178   7.770  11.716   0.776
40111W        W44179  10.341  11.404   2.392
40112W        W44180  10.737  12.607   0.077
40113W        W44181   8.029  11.365   1.896
40114W        W44182   9.143  11.937   2.836
40115W        W44183   7.291  11.627   0.314
40116W        W44184   8.077  13.016   2.875
40117W        W44185   9.435  12.414   2.054
40118W        W44186   9.302  14.493   0.350
40119W        W44187   7.448  13.000   0.047
40120W        W44188   8.183  13.411   3.173
40121W        W44189   7.704  12.578   2.804
40122W        W44190   8.695  12.683   2.598
40123W        W44191  10.463  11.042   2.860
40124W        W44192  10.861  12.652   2.851
40125W        W44193  10.849  12.852   0.537
40126W        W44194   9.712  13.184   0.636
40127W        W44195  10.186  14.484   0.331
40128W        W44196   9.363  12.474   3.473
40129W        W44197   7.693  13.441   3.513
40130W        W44198  10.899  11.363   3.465
40131W        W44199  10.617  12.291   2.086
40132W        W44200   8.925  14.421   3.563
40133W        W44201   8.780  11.050   0.290
40134W        W44202  10.319  13.649   0.233
40135W        W44203   8.088  11.742   3.119
40136W        W44204   8.522  13.736   2.981
40137W        W44205  10.648  11.727   2.779
40138W        W44206   9.859  14.386   0.747
40139W        W44207  10.098  13.005   2.114
40140W        W44208   8.348  11.421   2.781
40141W        W44209   8.817  12.490   3.538
40142W        W44210   8.320  13.669   0.732
40143W        W44211  10.075  13.167   0.996
40144W        W44212   7.843  11.793   2.720
40145W        W44213   9.172  13.855   1.184
40146W        W44214  10.922  12.415   1.365
40147W        W44215   9.144  11.048   3.084
40148W        W44216   9.924  13.753   2.163
40149W        W44217  10.227  14.097   1.871
40150W        W44218   9.446  13.899   0.299
40151W        W44219   7.456  13.791   3.141
40152W        W44220   8.199  11.783   2.379
40153W        W44221   8.169  11.131   1.489
40154W        W44222   9.790  11.973   2.181
40155W        W44223   8.588  13.144   0.381
40156W        W44224  10.586  13.086   1.880
40157W        W44225   7.913  13.844   3.303
40158W        W44226  10.300  14.526   1.100
40159W        W44227   8.399  11.546   1.545
40160W        W44228   8.168  13.039   1.635
40161W        W44229   8.481  14.450   2.385
40162W        W44230  10.548  14.546   3.417
40163W        W44231   9.707  12.734   2.350
40164W        W44232   7.556  12.532   0.265
40165W        W44233  10.690  14.190   0.962
40166W        W44234  10.527  11.514   0.581
40167W        W44235   8.666  11.033   2.984
40168W        W44236  10.372  13.835   1.442
40169W        W44237  10.401  12.391   1.347
40170W        W44238   8.518  12.064   1.563
40171W        W44239   8.763  12.326   2.887
40172W        W44240   9.874  13.479   2.750
40173W        W44241   8.524  11.933   2.862
40174W        W44242   8.503  14.399   1.478
40175W        W44243   7.820  14.358   3.112
40176W        W44244   7.932  13.719   0.242
40177W        W44245  10.449  13.477   1.052
40178W        W44246   8.053  12.269   2.938
40179W        W44247  10.826  12.199   0.419
40180W        W44248   8.571  13.256   0.890
40181W        W44249   9.670  12.638   2.971
40182W        W44250   9.561  12.266   2.515
40183W        W44251   8.121  12.638   2.544
40184W        W44252  10.331  14.526   2.373
40185W        W44253  10.122  11.160   3.367
40186W        W44254   7.786  11.310   2.954
40187W        W44255   8.125  12.333   2.007
40188W        W44256   8.494  12.147   0.129
40189W        W44257   7.297  13.906   2.674
40190W        W44258   8.882  12.615   2.117
40191W        W44259   8.705  11.640   0.222
40192W        W44260   7.840  12.456   1.003
40193W        W44261   7.611  14.308   2.440
40194W        W44262  10.406  12.534   0.548
40195W        W44263  10.501  11.450   3.234
40196W        W44264   9.937  13.659   1.197
40197W        W44265   7.535  12.583   3.374
40198W        W44266  10.501  11.047   0.670
40199W        W44267  10.021  13.522   0.681
40200W        W44268   8.923  12.580   0.766
40201W        W44269  10.110  11.384   0.289
40202W        W44270  10.175  11.991   2.475
40203W        W44271   7.884  12.584   1.682
40204W        W44272   8.178  13.523   1.331
40205W        W44273   9.941  12.143   1.296
40206W        W44274   8.964  11.522   1.992
40207W        W44275  10.926  13.433   2.503
40208W        W44276  10.844  11.420   2.064
40209W        W44277   7.383  14.250   1.440
40210W        W44278   7.892  13.437   0.976
40211W        W44279   7.807  11.054   3.529
40212W        W44280   8.926  13.907   3.631
40213W        W44281  10.681  12.875   1.421
40214W        W44282  10.035  13.052   0.301
40215W        W44283   9.330  14.573   2.513
40216W        W44284  10.187  13.295   3.550
40217W        W44285   9.002  11.005   0.830
40218W        W44286   9.715  11.874   1.689
40219W        W44287   7.401  13.461   2.021
40220W        W44288   8.654  11.423   0.662
40221W        W44289   8.458  12.907   3.511
40222W        W44290   9.452  11.888   1.225
40223W        W44291   9.657  13.298   2.347
40224W        W44292   7.811  13.903   2.782
40225W        W44293   8.402  13.886   3.505
40226W        W44294   8.253  11.683   0.519
40227W        W44295   9.770  11.825   0.844
40228W        W44296   9.728  13.933   3.081
40229W        W44297   8.413  12.525   1.680
40230W        W44298   8.068  14.223   2.545
40231W        W44299  10.813  14.340   0.146
40232W        W44300   7.676  13.012   3.142
40233W        W44301   9.671  13.274   1.830
40234W        W44302   8.107  12.923   1.072
40235W        W44303   8.478  13.930   2.467
40236W        W44304   8.856  11.349   1.508
40237W        W44305   7.467  13.333   0.438
40238W        W44306   8.986  12.284   0.308
40239W        W44307   7.632  12.833   1.327
40240W        W44308   8.922  11.475   2.791
40241W        W44309  10.594  11.184   0.218
40242W        W44310  10.687  12.930   3.317
40243W        W44311   9.341  14.187   3.469
40244W        W44312  10.899  13.281   2.991
40245W        W44313  10.307  14.079   3.602
40246W        W44314   8.046  14.535   2.080
40247W        W44315  10.905  13.157   0.954
40248W        W44316   9.435  12.424   1.467
40249W        W44317   9.202  11.036   1.357
40250W        W44318   8.261  14.020   1.194
40251W        W44319   8.760  11.761   2.419
40252W        W44320   8.460  11.130   1.888
40253W        W44321   7.523  13.952   0.436
40254W        W44322   9.339  13.316   1.154
40255W        W44323   8.214  14.111   3.033
40256W        W44324   7.691  12.934   0.729
40257W        W44325   7.576  11.477   1.728
40258W        W44326   9.124  13.442   1.785
40259W        W44327   7.376  11.296   0.805
40260W        W44328  10.040  12.502   2.732
40261W        W44329   9.917  11.888   0.304
40262W        W44330  10.434  13.560   1.952
40263W        W44331   9.095  14.044   1.783
40264W        W44332   8.507  14.148   0.694
40265W        W44333   9.789  11.051   0.124
40266W        W44334   7.589  14.311   1.865
40267W        W44335   9.786  12.069   3.500
40268W        W44336   7.769  11.599   3.499
40269W        W44337   7.500  12.199   0.832
40270W        W44338   8.191  12.188   0.557
40271W        W44339   9.954  12.515   3.374
40272W        W44340   8.297  12.796   2.083
40273W        W44341   9.771  11.082   1.203
40274W        W44342   8.902  14.513   1.706
40275W        W44343  10.116  13.975   2.643
40276W        W44344   9.700  14.124   1.754
40277W        W44345   9.719  13.104   1.348
40278W        W44346   9.181  11.329   0.419
40279W        W44347  10.862  10.957   1.141
40280W        W44348   8.550  12.592   0.304
40281W        W44349  10.716  11.929   1.294
40282W        W44350   9.408  13.099   0.171
40283W        W44351  10.344  13.299   2.919
40284W        W44352   9.998  14.000   0.386
40285W        W44353   8.613  11.675   3.292
40286W        W44354   8.433  12.259   2.533
40287W        W44355  10.525  13.754   2.810
40288W        W44356   9.625  11.704   3.187
40289W        W44357   7.469  12.175   2.964
40290W        W44358   9.229  12.652   2.690
40291W        W44359   7.586  13.410   1.347
40292W        W44360   7.733  12.707   2.237
40293W        W44361  10.050  12.993   2.587
40294W        W44362   9.822  14.373   3.398
40295W        W44363   9.718  12.112   2.951
40296W        W44364   9.995  14.166   1.356
40297W        W44365   8.997  13.886   2.679
40298W        W44366   8.482  14.241   1.948
40299W        W44367  10.287  13.412   2.367
40300W        W44368   9.337  13.484   3.504
40301W        W44369   7.942  13.437   1.843
40302W        W44370  10.288  13.196   1.488
40303W        W44371   9.929  14.262   2.239
40304W        W44372   7.907  13.991   2.109
40305W        W44373   8.928  12.043   3.319
40306W        W44374   9.379  14.209   0.830
40307W        W44375   8.687  13.464   3.468
40308W        W44376   8.813  13.702   0.845
40309W        W44377   8.034  12.442   0.104
40310W        W44378   7.373  14.528   7.003
40311W        W44379   7.749  13.421   6.526
40312W        W44380  10.454  13.151   4.296
40313W        W44381  10.584  14.236   6.323
40314W        W44382   8.502  14.227   3.849
40315W        W44383   8.585  12.379   4.832
40316W        W44384   8.100  12.227   4.996
40317W        W44385   9.091  13.042   4.430
40318W        W44386   8.766  14.134   6.785
40319W        W44387   7.415  11.695   6.748
40320W        W44388   8.177  10.975   6.550
40321W        W44389   9.871  11.363   5.437
40322W        W44390   9.520  12.234   4.007
40323W        W44391  10.090  11.668   7.098
40324W        W44392   7.456  11.460   6.223
40325W        W44393   7.555  14.079   7.244
40326W        W44394   9.077  13.469   3.976
40327W        W44395   7.509  12.252   5.669
40328W        W44396   8.402  12.143   6.906
40329W        W44397  10.861  12.002   5.405
40330W        W44398  10.625  13.045   6.264
40331W        W44399   8.933  12.378   5.291
40332W        W44400   9.479  13.717   5.660
40333W        W44401   7.979  13.151   5.892
40334W        W44402   7.338  12.679   5.463
40335W        W44403   8.374  12.651   6.655
40336W        W44404  10.645  12.434   6.909
40337W        W44405   8.261  13.878   5.354
40338W        W44406   9.382  13.567   6.488
40339W        W44407   8.602  12.207   5.713
40340W        W44408   8.894  12.991   5.356
40341W        W44409   9.891  13.764   7.204
40342W        W44410   8.970  13.084   7.214
40343W        W44411   8.951  12.800   6.692
40344W        W44412   7.360  12.191   7.214
40345W        W44413  10.192  13.726   6.813
40346W        W44414   7.773  11.308   4.811
40347W        W44415   8.300  13.566   5.810
40348W        W44416  10.763  13.349   5.100
40349W        W44417  10.461  11.702   3.762
40350W        W44418  10.926  12.503   6.068
40351W        W44419   8.893  14.210   5.821
40352W        W44420  10.667  13.676   4.259
40353W        W44421   7.796  14.462   4.013
40354W        W44422   8.189  14.508   4.689
40355W        W44423   7.986  11.262   6.115
40356W        W44424  10.609  12.280   6.390
40357W        W44425  10.014  12.702   4.849
40358W        W44426   9.980  12.390   3.876
40359W        W44427   9.188  13.534   6.016
40360W        W44428   8.994  11.864   5.215
40361W        W44429  10.465  12.742   4.631
40362W        W44430   9.367  11.400   4.647
40363W        W44431   8.024  14.094   4.330
40364W        W44432   7.395  11.593   4.929
40365W        W44433   7.639  13.817   5.318
40366W        W44434   8.980  14.167   4.188
40367W        W44435  10.372  12.193   3.652
40368W        W44436   7.395  13.951   5.816
40369W        W44437   8.186  13.523   6.296
40370W        W44438   8.559  12.883   4.915
40371W        W44439   8.581  11.288   6.008
40372W        W44440  10.810  11.050   5.305
40373W        W44441   8.029  12.922   3.773
40374W        W44442   7.684  11.955   3.952
40375W        W44443   7.746  13.911   4.746
40376W        W44444   8.877  13.394   4.994
40377W        W44445  10.209  14.253   6.708
40378W        W44446   9.135  11.895   4.392
40379W        W44447  10.195  12.146   6.762
40380W        W44448  10.908  13.802   4.896
40381W        W44449   9.535  13.094   6.380
40382W        W44450   7.301  12.645   4.586
40383W        W44451   8.412  13.060   6.159
40384W        W44452   9.616  12.324   4.537
40385W        W44453   9.493  12.814   4.641
40386W        W44454   7.836  12.234   6.115
40387W        W44455   7.821  12.110   7.037
40388W        W44456   7.711  11.027   5.196
40389W        W44457   9.479  11.374   5.757
40390W        W44458   9.127  11.559   6.920
40391W        W44459   9.482  11.708   4.098
40392W        W44460  10.665  14.101   6.852
40393W        W44461   9.632  11.182   6.891
40394W        W44462  10.651  13.483   7.013
40395W        W44463  10.081  11.650   6.609
40396W        W44464   9.881  11.588   4.879
40397W        W44465  10.274  12.722   7.283
40398W        W44466   8.014  14.298   5.269
40399W        W44467   8.672  12.015   4.255
40400W        W44468   8.241  11.299   6.919
40401W        W44469  10.293  11.783   4.600
40402W        W44470  10.660  12.265   4.545
40403W        W44471   8.403  14.482   7.016
40404W        W44472   8.329  11.018   4.251
40405W        W44473  10.650  11.552   5.286
40406W        W44474  10.800  13.801   3.731
40407W        W44475   7.707  13.004   5.433
40408W        W44476   9.624  11.591   3.663
40409W        W44477  10.758  13.923   5.383
40410W        W44478  10.797  11.117   6.133
40411W        W44479   9.242  12.329   6.687
40412W        W44480   9.335  13.668   4.390
40413W        W44481   9.735  12.962   7.130
40414W        W44482   9.409  10.939   5.439
40415W        W44483   8.021  11.842   5.502
40416W        W44484   7.575  13.042   6.276
40417W        W44485   9.434  14.235   4.982
40418W        W44486  10.628  11.832   5.854
40419W        W44487   9.265  14.179   6.621
40420W        W44488  10.608  13.238   3.826
40421W        W44489   9.043  12.721   4.887
40422W        W44490  10.895  11.232   6.628
40423W        W44491   9.044  13.067   6.222
40424W        W44492   9.261  11.953   5.667
40425W        W44493  10.113  12.251   4.505
40426W        W44494  10.400  11.984   4.147
40427W        W44495  10.209  14.024   4.536
40428W        W44496  10.043  13.627   5.332
40429W        W44497   9.939  12.706   4.310
40430W        W44498   9.372  12.916   5.296
40431W        W44499   7.628  11.719   5.787
40432W        W44500  10.406  12.771   6.614
40433W        W44501  10.757  14.389   5.760
40434W        W44502   8.687  13.833   5.162
40435W        W44503   9.694  14.366   6.486
40436W        W44504   9.688  11.696   6.250
40437W        W44505   8.895  14.404   6.311
40438W        W44506  10.592  11.358   4.777
40439W        W44507   7.366  11.998   6.116
40440W        W44508  10.226  11.793   5.134
40441W        W44509  10.637  11.944   6.911
40442W        W44510   9.522  13.643   5.129
40443W        W44511   8.778  14.234   4.742
40444W        W44512   7.893  11.414   4.000
40445W        W44513   8.997  11.068   5.810
40446W        W44514   8.025  14.188   3.658
40447W        W44515   8.399  12.654   4.409
40448W        W44516   9.053  13.283   6.722
40449W        W44517   8.883  11.641   4.712
40450W        W44518  10.239  11.238   5.140
40451W        W44519   9.959  14.520   5.468
40452W        W44520   9.371  14.168   5.808
40453W        W44521   8.767  13.205   5.769
40454W        W44522  10.537  13.928   5.895
40455W        W44523   8.231  11.431   4.664
40456W        W44524   8.753  13.728   5.624
40457W        W44525   8.236  11.659   3.689
40458W        W44526   9.037  12.268   6.083
40459W        W44527   9.885  11.134   5.953
40460W        W44528   7.305  12.977   5.838
40461W        W44529   9.009  12.795   3.996
40462W        W44530   8.277  11.110   3.766
40463W        W44531   9.015  12.191   4.817
40464W        W44532   9.985  11.167   6.516
40465W        W44533   8.573  13.179   6.625
40466W        W44534   9.377  12.961   6.842
40467W        W44535   9.994  12.991   6.735
40468W        W44536   9.278  11.131   7.240
40469W        W44537   8.500  11.747   5.633
40470W        W44538   7.926  11.703   5.031
40471W        W44539   7.712  14.415   4.707
40472W        W44540   9.044  13.745   6.832
40473W        W44541   8.079  13.230   4.191
40474W        W44542   9.244  13.088   5.745
40475W        W44543   9.714  13.462   3.877
40476W        W44544   9.386  11.483   5.205
40477W        W44545  10.865  11.761   4.473
40478W        W44546   7.359  14.350   6.504
40479W        W44547   7.776  13.576   6.036
40480W        W44548   7.343  14.422   4.268
40481W        W44549   9.242  11.692   6.074
40482W        W44550   8.605  13.715   3.923
40483W        W44551   9.485  12.750   4.123
40484W        W44552   8.328  11.941   4.640
40485W        W44553   9.160  11.851   3.692
40486W        W44554   9.744  13.416   6.870
40487W        W44555  10.097  11.322   4.487
40488W        W44556   7.427  11.170   3.935
40489W        W44557   8.713  13.489   6.225
40490W        W44558   8.512  13.405   5.317
40491W        W44559   8.254  13.357   3.715
40492W        W44560   7.495  13.598   4.483
40493W        W44561   7.999  12.668   6.925
40494W        W44562   8.703  11.228   7.111
40495W        W44563   9.412  11.370   6.467
40496W        W44564   8.607  11.138   4.748
40497W        W44565   9.666  11.215   4.253
40498W        W44566   7.611  11.147   5.830
40499W        W44567   7.659  12.110   5.200
40500W        W44568  10.348  11.218   5.606
40501W        W44569   7.770  11.716   4.420
40502W        W44570  10.341  11.404   6.036
40503W        W44571  10.737  12.607   3.721
40504W        W44572   8.029  11.365   5.540
40505W        W44573   9.143  11.937   6.480
40506W        W44574   7.291  11.627   3.958
40507W        W44575   8.077  13.016   6.519
40508W        W44576   9.435  12.414   5.698
40509W        W44577   9.302  14.493   3.994
40510W        W44578   7.448  13.000   3.691
40511W        W44579   8.183  13.411   6.817
40512W        W44580   7.704  12.578   6.448
40513W        W44581   8.695  12.683   6.242
40514W        W44582  10.463  11.042   6.504
40515W        W44583  10.861  12.652   6.495
40516W        W44584  10.849  12.852   4.181
40517W        W44585   9.712  13.184   4.280
40518W        W44586  10.186  14.484   3.975
40519W        W44587   9.363  12.474   7.117
40520W        W44588   7.693  13.441   7.157
40521W        W44589  10.899  11.363   7.109
40522W        W44590  10.617  12.291   5.730
40523W        W44591   8.925  14.421   7.207
40524W        W44592   8.780  11.050   3.934
40525W        W44593  10.319  13.649   3.877
40526W        W44594   8.088  11.742   6.763
40527W        W44595   8.522  13.736   6.625
40528W        W44596  10.648  11.727   6.423
40529W        W44597   9.859  14.386   4.391
40530W        W44598  10.098  13.005   5.758
40531W        W44599   8.348  11.421   6.425
40532W        W44600   8.817  12.490   7.182
40533W        W44601   8.320  13.669   4.376
40534W        W44602  10.075  13.167   4.640
40535W        W44603   7.843  11.793   6.364
40536W        W44604   9.172  13.855   4.828
40537W        W44605  10.922  12.415   5.009
40538W        W44606   9.144  11.048   6.728
40539W        W44607   9.924  13.753   5.807
40540W        W44608  10.227  14.097   5.515
40541W        W44609   9.446  13.899   3.943
40542W        W44610   7.456  13.791   6.785
40543W        W44611   8.199  11.783   6.023
40544W        W44612   8.169  11.131   5.133
40545W        W44613   9.790  11.973   5.825
40546W        W44614   8.588  13.144   4.025
40547W        W44615  10.586  13.086   5.524
40548W        W44616   7.913  13.844   6.947
40549W        W44617  10.300  14.526   4.744
40550W        W44618   8.399  11.546   5.189
40551W        W44619   8.168  13.039   5.279
40552W        W44620   8.481  14.450   6.029
40553W        W44621  10.548  14.546   7.061
40554W        W44622   9.707  12.734   5.994
40555W        W44623   7.556  12.532   3.909
40556W        W44624  10.527  11.514   4.225
40557W        W44625   8.666  11.033   6.628
40558W        W44626  10.372  13.835   5.086
40559W        W44627  10.401  12.391   4.991
40560W        W44628   8.518  12.064   5.207
40561W        W44629   8.763  12.326   6.531
40562W        W44630   9.874  13.479   6.394
40563W        W44631   8.524  11.933   6.506
40564W        W44632   8.503  14.399   5.122
40565W        W44633   7.820  14.358   6.756
40566W        W44634   7.932  13.719   3.886
40567W        W44635  10.449  13.477   4.696
40568W        W44636   8.053  12.269   6.582
40569W        W44637  10.826  12.199   4.063
40570W        W44638   8.571  13.256   4.534
40571W        W44639   9.670  12.638   6.615
40572W        W44640   9.561  12.266   6.159
40573W        W44641   8.121  12.638   6.188
40574W        W44642  10.331  14.526   6.017
40575W        W44643  10.122  11.160   7.011
40576W        W44644   7.786  11.310   6.598
40577W        W44645   8.125  12.333   5.651
40578W        W44646   8.494  12.147   3.773
40579W        W44647   7.297  13.906   6.318
40580W        W44648   8.882  12.615   5.761
40581W        W44649   8.705  11.640   3.866
40582W        W44650   7.840  12.456   4.647
40583W        W44651   7.611  14.308   6.084
40584W        W44652  10.406  12.534   4.192
40585W        W44653  10.501  11.450   6.878
40586W        W44654   9.937  13.659   4.841
40587W        W44655   7.535  12.583   7.018
40588W        W44656  10.501  11.047   4.314
40589W        W44657  10.021  13.522   4.325
40590W        W44658   8.923  12.580   4.410
40591W        W44659  10.110  11.384   3.933
40592W        W44660  10.175  11.991   6.119
40593W        W44661   7.884  12.584   5.326
40594W        W44662   8.178  13.523   4.975
40595W        W44663   9.941  12.143   4.940
40596W        W44664   8.964  11.522   5.636
40597W        W44665  10.844  11.420   5.708
40598W        W44666   7.383  14.250   5.084
40599W        W44667   7.892  13.437   4.620
40600W        W44668   7.807  11.054   7.173
40601W        W44669   8.926  13.907   7.275
40602W        W44670  10.681  12.875   5.065
40603W        W44671  10.035  13.052   3.945
40604W        W44672   9.330  14.573   6.157
40605W        W44673  10.187  13.295   7.194
40606W        W44674   9.002  11.005   4.474
40607W        W44675   9.715  11.874   5.333
40608W        W44676   7.401  13.461   5.665
40609W        W44677   8.654  11.423   4.306
40610W        W44678   8.458  12.907   7.155
40611W        W44679   9.452  11.888   4.869
40612W        W44680   9.657  13.298   5.991
40613W        W44681   7.811  13.903   6.426
40614W        W44682   8.402  13.886   7.149
40615W        W44683   8.253  11.683   4.163
40616W        W44684   9.770  11.825   4.488
40617W        W44685   9.728  13.933   6.725
40618W        W44686   8.413  12.525   5.324
40619W        W44687   8.068  14.223   6.189
40620W        W44688  10.813  14.340   3.790
40621W        W44689   7.676  13.012   6.786
40622W        W44690   9.671  13.274   5.474
40623W        W44691   8.107  12.923   4.716
40624W        W44692   8.478  13.930   6.111
40625W        W44693   8.856  11.349   5.152
40626W        W44694   7.467  13.333   4.082
40627W        W44695   8.986  12.284   3.952
40628W        W44696   7.632  12.833   4.971
40629W        W44697   8.922  11.475   6.435
40630W        W44698  10.594  11.184   3.862
40631W        W44699  10.687  12.930   6.961
40632W        W44700   9.341  14.187   7.113
40633W        W44701  10.899  13.281   6.635
40634W        W44702  10.307  14.079   7.246
40635W        W44703   8.046  14.535   5.724
40636W        W44704  10.905  13.157   4.598
40637W        W44705   9.435  12.424   5.111
40638W        W44706   9.202  11.036   5.001
40639W        W44707   8.261  14.020   4.838
40640W        W44708   8.760  11.761   6.063
40641W        W44709   8.460  11.130   5.532
40642W        W44710   7.523  13.952   4.080
40643W        W44711   9.339  13.316   4.798
40644W        W44712   8.214  14.111   6.677
40645W        W44713   7.691  12.934   4.373
40646W        W44714   7.576  11.477   5.372
40647W        W44715   9.124  13.442   5.429
40648W        W44716   7.376  11.296   4.449
40649W        W44717  10.040  12.502   6.376
40650W        W44718   9.917  11.888   3.948
40651W        W44719  10.434  13.560   5.596
40652W        W44720   9.095  14.044   5.427
40653W        W44721   8.507  14.148   4.338
40654W        W44722   9.789  11.051   3.768
40655W        W44723   7.589  14.311   5.509
40656W        W44724   9.786  12.069   7.144
40657W        W44725   7.769  11.599   7.143
40658W        W44726   7.500  12.199   4.476
40659W        W44727   8.191  12.188   4.201
40660W        W44728   9.954  12.515   7.018
40661W        W44729   8.297  12.796   5.727
40662W        W44730   9.771  11.082   4.847
40663W        W44731   8.902  14.513   5.350
40664W        W44732  10.116  13.975   6.287
40665W        W44733   9.700  14.124   5.398
40666W        W44734   9.719  13.104   4.992
40667W        W44735   9.181  11.329   4.063
40668W        W44736  10.862  10.957   4.785
40669W        W44737   8.550  12.592   3.948
40670W        W44738  10.716  11.929   4.938
40671W        W44739   9.408  13.099   3.815
40672W        W44740  10.344  13.299   6.563
40673W        W44741   9.998  14.000   4.030
40674W        W44742   8.613  11.675   6.936
40675W        W44743   8.433  12.259   6.177
40676W        W44744  10.525  13.754   6.454
40677W        W44745   9.625  11.704   6.831
40678W        W44746   7.469  12.175   6.608
40679W        W44747   9.229  12.652   6.334
40680W        W44748   7.586  13.410   4.991
40681W        W44749   7.733  12.707   5.881
40682W        W44750  10.050  12.993   6.231
40683W        W44751   9.822  14.373   7.042
40684W        W44752   9.718  12.112   6.595
40685W        W44753   9.995  14.166   5.000
40686W        W44754   8.997  13.886   6.323
40687W        W44755   8.482  14.241   5.592
40688W        W44756   9.337  13.484   7.148
40689W        W44757   7.942  13.437   5.487
40690W        W44758  10.288  13.196   5.132
40691W        W44759   9.929  14.262   5.883
40692W        W44760   7.907  13.991   5.753
40693W        W44761   8.928  12.043   6.963
40694W        W44762   9.379  14.209   4.474
40695W        W44763   8.687  13.464   7.112
40696W        W44764   8.813  13.702   4.489
40697W        W44765   8.034  12.442   3.748
40698W        W44766   7.373  14.528  10.648
40699W        W44767   7.749  13.421  10.171
40700W        W44768  10.454  13.151   7.941
40701W        W44769  10.584  14.236   9.968
40702W        W44770   8.502  14.227   7.494
40703W        W44771   8.585  12.379   8.477
40704W        W44772   8.100  12.227   8.641
40705W        W44773   9.091  13.042   8.075
40706W        W44774   8.766  14.134  10.430
40707W        W44775   7.415  11.695  10.393
40708W        W44776   8.177  10.975  10.195
40709W        W44777   9.871  11.363   9.082
40710W        W44778   9.520  12.234   7.652
40711W        W44779  10.090  11.668  10.743
40712W        W44780   7.456  11.460   9.868
40713W        W44781   7.555  14.079  10.889
40714W        W44782   9.077  13.469   7.621
40715W        W44783   7.509  12.252   9.314
40716W        W44784   8.402  12.143  10.551
40717W        W44785  10.861  12.002   9.050
40718W        W44786  10.625  13.045   9.909
40719W        W44787   8.933  12.378   8.936
40720W        W44788   9.479  13.717   9.305
40721W        W44789   7.979  13.151   9.537
40722W        W44790   7.338  12.679   9.108
40723W        W44791   8.374  12.651  10.300
40724W        W44792  10.645  12.434  10.554
40725W        W44793   8.261  13.878   8.999
40726W        W44794   9.382  13.567  10.133
40727W        W44795   8.602  12.207   9.358
40728W        W44796   8.894  12.991   9.001
40729W        W44797   9.891  13.764  10.849
40730W        W44798   8.970  13.084  10.859
40731W        W44799   8.951  12.800  10.337
40732W        W44800   7.360  12.191  10.859
40733W        W44801  10.192  13.726  10.458
40734W        W44802   7.773  11.308   8.456
40735W        W44803   8.300  13.566   9.455
40736W        W44804  10.763  13.349   8.745
40737W        W44805  10.176  11.749   9.312
40738W        W44806  10.461  11.702   7.407
40739W        W44807  10.926  12.503   9.713
40740W        W44808   8.893  14.210   9.466
40741W        W44809  10.667  13.676   7.904
40742W        W44810   7.796  14.462   7.658
40743W        W44811   8.189  14.508   8.334
40744W        W44812   7.986  11.262   9.760
40745W        W44813  10.609  12.280  10.035
40746W        W44814  10.014  12.702   8.494
40747W        W44815   9.980  12.390   7.521
40748W        W44816   9.188  13.534   9.661
40749W        W44817   8.994  11.864   8.860
40750W        W44818   9.594  13.951   9.854
40751W        W44819  10.465  12.742   8.276
40752W        W44820   9.367  11.400   8.292
40753W        W44821   8.024  14.094   7.975
40754W        W44822   7.395  11.593   8.574
40755W        W44823  10.181  12.200   9.048
40756W        W44824   7.639  13.817   8.963
40757W        W44825   8.980  14.167   7.833
40758W        W44826  10.372  12.193   7.297
40759W        W44827   7.395  13.951   9.461
40760W        W44828   8.186  13.523   9.941
40761W        W44829   8.559  12.883   8.560
40762W        W44830   8.581  11.288   9.653
40763W        W44831  10.810  11.050   8.950
40764W        W44832   8.029  12.922   7.418
40765W        W44833   7.684  11.955   7.597
40766W        W44834   7.746  13.911   8.391
40767W        W44835   8.877  13.394   8.639
40768W        W44836  10.209  14.253  10.353
40769W        W44837   9.135  11.895   8.037
40770W        W44838  10.518  14.293   8.809
40771W        W44839  10.195  12.146  10.407
40772W        W44840  10.908  13.802   8.541
40773W        W44841   9.535  13.094  10.025
40774W        W44842   7.301  12.645   8.231
40775W        W44843   8.412  13.060   9.804
40776W        W44844   9.616  12.324   8.182
40777W        W44845   9.493  12.814   8.286
40778W        W44846   7.836  12.234   9.760
40779W        W44847   7.821  12.110  10.682
40780W        W44848   7.711  11.027   8.841
40781W        W44849   9.479  11.374   9.402
40782W        W44850   9.127  11.559  10.565
40783W        W44851   9.482  11.708   7.743
40784W        W44852  10.665  14.101  10.497
40785W        W44853   9.632  11.182  10.536
40786W        W44854  10.651  13.483  10.658
40787W        W44855  10.081  11.650  10.254
40788W        W44856   9.881  11.588   8.524
40789W        W44857  10.274  12.722  10.928
40790W        W44858   8.014  14.298   8.914
40791W        W44859   8.672  12.015   7.900
40792W        W44860   8.241  11.299  10.564
40793W        W44861  10.293  11.783   8.245
40794W        W44862  10.660  12.265   8.190
40795W        W44863   8.403  14.482  10.661
40796W        W44864   8.329  11.018   7.896
40797W        W44865  10.650  11.552   8.931
40798W        W44866  10.800  13.801   7.376
40799W        W44867   7.707  13.004   9.078
40800W        W44868   9.624  11.591   7.308
40801W        W44869  10.758  13.923   9.028
40802W        W44870  10.797  11.117   9.778
40803W        W44871   9.242  12.329  10.332
40804W        W44872   9.335  13.668   8.035
40805W        W44873   9.735  12.962  10.775
40806W        W44874   9.409  10.939   9.084
40807W        W44875   8.021  11.842   9.147
40808W        W44876   7.575  13.042   9.921
40809W        W44877   9.434  14.235   8.627
40810W        W44878  10.628  11.832   9.499
40811W        W44879   9.265  14.179  10.266
40812W        W44880  10.608  13.238   7.471
40813W        W44881   9.043  12.721   8.532
40814W        W44882  10.895  11.232  10.273
40815W        W44883   9.044  13.067   9.867
40816W        W44884   9.261  11.953   9.312
40817W        W44885  10.209  14.024   8.181
40818W        W44886  10.043  13.627   8.977
40819W        W44887   9.372  12.916   8.941
40820W        W44888  10.253  12.704   9.008
40821W        W44889   7.628  11.719   9.432
40822W        W44890  10.406  12.771  10.259
40823W        W44891  10.757  14.389   9.405
40824W        W44892   8.687  13.833   8.807
40825W        W44893   9.694  14.366  10.131
40826W        W44894   9.688  11.696   9.895
40827W        W44895   8.895  14.404   9.956
40828W        W44896  10.592  11.358   8.422
40829W        W44897  10.383  12.677   9.723
40830W        W44898   7.366  11.998   9.761
40831W        W44899  10.226  11.793   8.779
40832W        W44900  10.637  11.944  10.556
40833W        W44901   9.522  13.643   8.774
40834W        W44902   8.778  14.234   8.387
40835W        W44903   7.893  11.414   7.645
40836W        W44904   8.997  11.068   9.455
40837W        W44905   8.025  14.188   7.303
40838W        W44906   8.399  12.654   8.054
40839W        W44907   9.053  13.283  10.367
40840W        W44908   8.883  11.641   8.357
40841W        W44909  10.239  11.238   8.785
40842W        W44910   9.959  14.520   9.113
40843W        W44911   9.371  14.168   9.453
40844W        W44912   8.767  13.205   9.414
40845W        W44913  10.537  13.928   9.540
40846W        W44914   8.231  11.431   8.309
40847W        W44915   8.753  13.728   9.269
40848W        W44916   8.236  11.659   7.334
40849W        W44917   9.037  12.268   9.728
40850W        W44918   9.885  11.134   9.598
40851W        W44919   7.305  12.977   9.483
40852W        W44920   9.009  12.795   7.641
40853W        W44921   8.277  11.110   7.411
40854W        W44922   9.015  12.191   8.462
40855W        W44923   9.985  11.167  10.161
40856W        W44924   8.573  13.179  10.270
40857W        W44925   9.377  12.961  10.487
40858W        W44926   9.994  12.991  10.380
40859W        W44927   9.278  11.131  10.885
40860W        W44928   8.500  11.747   9.278
40861W        W44929   7.926  11.703   8.676
40862W        W44930   7.712  14.415   8.352
40863W        W44931   9.044  13.745  10.477
40864W        W44932   8.079  13.230   7.836
40865W        W44933   9.759  12.615   9.057
40866W        W44934  10.039  12.414   9.456
40867W        W44935   9.244  13.088   9.390
40868W        W44936   9.714  13.462   7.522
40869W        W44937   9.386  11.483   8.850
40870W        W44938  10.865  11.761   8.118
40871W        W44939   7.359  14.350  10.149
40872W        W44940   7.776  13.576   9.681
40873W        W44941   7.343  14.422   7.913
40874W        W44942   9.242  11.692   9.719
40875W        W44943   8.605  13.715   7.568
40876W        W44944  10.510  14.097   7.754
40877W        W44945   9.485  12.750   7.768
40878W        W44946   8.328  11.941   8.285
40879W        W44947   9.160  11.851   7.337
40880W        W44948   9.744  13.416  10.515
40881W        W44949  10.097  11.322   8.132
40882W        W44950   7.427  11.170   7.580
40883W        W44951   8.713  13.489   9.870
40884W        W44952   8.512  13.405   8.962
40885W        W44953   8.254  13.357   7.360
40886W        W44954   7.495  13.598   8.128
40887W        W44955   7.999  12.668  10.570
40888W        W44956   8.703  11.228  10.756
40889W        W44957   9.412  11.370  10.112
40890W        W44958   8.607  11.138   8.393
40891W        W44959   9.666  11.215   7.898
40892W        W44960   7.611  11.147   9.475
40893W        W44961   7.659  12.110   8.845
40894W        W44962  10.348  11.218   9.251
40895W        W44963   7.770  11.716   8.065
40896W        W44964  10.341  11.404   9.681
40897W        W44965  10.737  12.607   7.366
40898W        W44966   8.029  11.365   9.185
40899W        W44967   9.143  11.937  10.125
40900W        W44968   7.291  11.627   7.603
40901W        W44969   8.077  13.016  10.164
40902W        W44970   9.435  12.414   9.343
40903W        W44971   9.302  14.493   7.639
40904W        W44972   7.448  13.000   7.336
40905W        W44973   8.183  13.411  10.462
40906W        W44974   7.704  12.578  10.093
40907W        W44975   8.695  12.683   9.887
40908W        W44976  10.463  11.042  10.149
40909W        W44977  10.861  12.652  10.140
40910W        W44978  10.849  12.852   7.826
40911W        W44979   9.712  13.184   7.925
40912W        W44980  10.186  14.484   7.620
40913W        W44981   9.363  12.474  10.762
40914W        W44982   7.693  13.441  10.802
40915W        W44983  10.899  11.363  10.754
40916W        W44984  10.617  12.291   9.375
40917W        W44985   8.925  14.421  10.852
40918W        W44986  10.319  13.649   7.522
40919W        W44987   8.088  11.742  10.408
40920W        W44988   8.522  13.736  10.270
40921W        W44989  10.648  11.727  10.068
40922W        W44990   9.859  14.386   8.036
40923W        W44991  10.098  13.005   9.403
40924W        W44992   8.348  11.421  10.070
40925W        W44993   8.817  12.490  10.827
40926W        W44994   8.320  13.669   8.021
40927W        W44995  10.075  13.167   8.285
40928W        W44996   7.843  11.793  10.009
40929W        W44997   9.172  13.855   8.473
40930W        W44998  10.922  12.415   8.654
40931W        W44999   9.144  11.048  10.373
40932W        W45000   9.924  13.753   9.452
40933W        W45001  10.227  14.097   9.160
40934W        W45002   9.446  13.899   7.588
40935W        W45003   7.456  13.791  10.430
40936W        W45004   8.199  11.783   9.668
40937W        W45005   8.169  11.131   8.778
40938W        W45006   9.790  11.973   9.470
40939W        W45007   8.588  13.144   7.670
40940W        W45008  10.586  13.086   9.169
40941W        W45009   7.913  13.844  10.592
40942W        W45010  10.300  14.526   8.389
40943W        W45011   8.399  11.546   8.834
40944W        W45012   8.168  13.039   8.924
40945W        W45013   8.481  14.450   9.674
40946W        W45014  10.548  14.546  10.706
40947W        W45015   9.707  12.734   9.639
40948W        W45016   7.556  12.532   7.554
40949W        W45017  10.690  14.190   8.251
40950W        W45018  10.527  11.514   7.870
40951W        W45019   8.666  11.033  10.273
40952W        W45020  10.372  13.835   8.731
40953W        W45021   8.518  12.064   8.852
40954W        W45022   8.763  12.326  10.176
40955W        W45023   9.874  13.479  10.039
40956W        W45024   8.524  11.933  10.151
40957W        W45025   8.503  14.399   8.767
40958W        W45026   7.820  14.358  10.401
40959W        W45027   7.932  13.719   7.531
40960W        W45028  10.449  13.477   8.341
40961W        W45029   8.053  12.269  10.227
40962W        W45030  10.826  12.199   7.708
40963W        W45031   8.571  13.256   8.179
40964W        W45032   9.670  12.638  10.260
40965W        W45033   9.561  12.266   9.804
40966W        W45034   8.121  12.638   9.833
40967W        W45035  10.331  14.526   9.662
40968W        W45036  10.122  11.160  10.656
40969W        W45037   7.786  11.310  10.243
40970W        W45038   8.125  12.333   9.296
40971W        W45039   8.494  12.147   7.418
40972W        W45040   7.297  13.906   9.963
40973W        W45041   8.882  12.615   9.406
40974W        W45042   8.705  11.640   7.511
40975W        W45043   7.840  12.456   8.292
40976W        W45044   7.611  14.308   9.729
40977W        W45045  10.406  12.534   7.837
40978W        W45046  10.501  11.450  10.523
40979W        W45047   9.937  13.659   8.486
40980W        W45048   7.535  12.583  10.663
40981W        W45049  10.501  11.047   7.959
40982W        W45050  10.021  13.522   7.970
40983W        W45051   8.923  12.580   8.055
40984W        W45052  10.110  11.384   7.578
40985W        W45053  10.175  11.991   9.764
40986W        W45054   7.884  12.584   8.971
40987W        W45055   8.178  13.523   8.620
40988W        W45056   8.964  11.522   9.281
40989W        W45057  10.926  13.433   9.792
40990W        W45058  10.844  11.420   9.353
40991W        W45059   7.383  14.250   8.729
40992W        W45060   7.892  13.437   8.265
40993W        W45061   7.807  11.054  10.818
40994W        W45062   8.926  13.907  10.920
40995W        W45063  10.681  12.875   8.710
40996W        W45064  10.035  13.052   7.590
40997W        W45065   9.330  14.573   9.802
40998W        W45066  10.187  13.295  10.839
40999W        W45067   9.002  11.005   8.119
41000W        W45068   9.715  11.874   8.978
41001W        W45069   7.401  13.461   9.310
41002W        W45070   8.654  11.423   7.951
41003W        W45071   8.458  12.907  10.800
41004W        W45072   9.452  11.888   8.514
41005W        W45073   9.657  13.298   9.636
41006W        W45074   7.811  13.903  10.071
41007W        W45075   8.402  13.886  10.794
41008W        W45076   8.253  11.683   7.808
41009W        W45077   9.728  13.933  10.370
41010W        W45078   8.413  12.525   8.969
41011W        W45079   8.068  14.223   9.834
41012W        W45080  10.813  14.340   7.435
41013W        W45081   7.676  13.012  10.431
41014W        W45082   9.671  13.274   9.119
41015W        W45083   8.107  12.923   8.361
41016W        W45084   8.478  13.930   9.756
41017W        W45085   8.856  11.349   8.797
41018W        W45086   7.467  13.333   7.727
41019W        W45087   8.986  12.284   7.597
41020W        W45088   7.632  12.833   8.616
41021W        W45089   8.922  11.475  10.080
41022W        W45090  10.594  11.184   7.507
41023W        W45091  10.687  12.930  10.606
41024W        W45092   9.341  14.187  10.758
41025W        W45093  10.899  13.281  10.280
41026W        W45094  10.307  14.079  10.891
41027W        W45095   8.046  14.535   9.369
41028W        W45096  10.905  13.157   8.243
41029W        W45097   9.435  12.424   8.756
41030W        W45098   9.202  11.036   8.646
41031W        W45099   8.261  14.020   8.483
41032W        W45100   8.760  11.761   9.708
41033W        W45101   8.460  11.130   9.177
41034W        W45102   7.523  13.952   7.725
41035W        W45103   9.339  13.316   8.443
41036W        W45104   8.214  14.111  10.322
41037W        W45105   7.691  12.934   8.018
41038W        W45106   7.576  11.477   9.017
41039W        W45107   9.124  13.442   9.074
41040W        W45108   7.376  11.296   8.094
41041W        W45109  10.040  12.502  10.021
41042W        W45110   9.917  11.888   7.593
41043W        W45111  10.434  13.560   9.241
41044W        W45112   9.095  14.044   9.072
41045W        W45113   8.507  14.148   7.983
41046W        W45114   9.789  11.051   7.413
41047W        W45115   7.589  14.311   9.154
41048W        W45116   9.786  12.069  10.789
41049W        W45117   7.769  11.599  10.788
41050W        W45118   7.500  12.199   8.121
41051W        W45119   8.191  12.188   7.846
41052W        W45120   9.954  12.515  10.663
41053W        W45121   8.297  12.796   9.372
41054W        W45122   9.771  11.082   8.492
41055W        W45123   8.902  14.513   8.995
41056W        W45124  10.116  13.975   9.932
41057W        W45125   9.700  14.124   9.043
41058W        W45126   9.719  13.104   8.637
41059W        W45127   9.181  11.329   7.708
41060W        W45128  10.862  10.957   8.430
41061W        W45129   8.550  12.592   7.593
41062W        W45130  10.716  11.929   8.583
41063W        W45131   9.408  13.099   7.460
41064W        W45132  10.344  13.299  10.208
41065W        W45133   9.998  14.000   7.675
41066W        W45134   8.613  11.675  10.581
41067W        W45135   8.433  12.259   9.822
41068W        W45136  10.525  13.754  10.099
41069W        W45137   9.625  11.704  10.476
41070W        W45138   7.469  12.175  10.253
41071W        W45139   9.229  12.652   9.979
41072W        W45140   7.586  13.410   8.636
41073W        W45141   7.733  12.707   9.526
41074W        W45142  10.050  12.993   9.876
41075W        W45143   9.822  14.373  10.687
41076W        W45144   9.718  12.112  10.240
41077W        W45145   9.995  14.166   8.645
41078W        W45146   8.997  13.886   9.968
41079W        W45147   8.482  14.241   9.237
41080W        W45148  10.287  13.412   9.656
41081W        W45149   9.337  13.484  10.793
41082W        W45150   7.942  13.437   9.132
41083W        W45151  10.288  13.196   8.777
41084W        W45152   9.929  14.262   9.528
41085W        W45153   7.907  13.991   9.398
41086W        W45154   8.928  12.043  10.608
41087W        W45155   9.379  14.209   8.119
41088W        W45156   8.687  13.464  10.757
41089W        W45157   8.813  13.702   8.134
41090W        W45158   8.034  12.442   7.393
41091W        W45159   7.373  14.528  14.292
41092W        W45160   7.749  13.421  13.815
41093W        W45161  10.454  13.151  11.585
41094W        W45162  10.584  14.236  13.612
41095W        W45163   8.502  14.227  11.138
41096W        W45164   8.585  12.379  12.121
41097W        W45165   8.100  12.227  12.285
41098W        W45166   9.091  13.042  11.719
41099W        W45167   8.766  14.134  14.074
41100W        W45168   7.415  11.695  14.037
41101W        W45169   8.177  10.975  13.839
41102W        W45170   9.871  11.363  12.726
41103W        W45171   9.520  12.234  11.296
41104W        W45172  10.090  11.668  14.387
41105W        W45173   7.456  11.460  13.512
41106W        W45174   7.555  14.079  14.533
41107W        W45175   9.077  13.469  11.265
41108W        W45176   7.509  12.252  12.958
41109W        W45177   8.402  12.143  14.195
41110W        W45178  10.861  12.002  12.694
41111W        W45179  10.625  13.045  13.553
41112W        W45180   8.933  12.378  12.580
41113W        W45181   9.479  13.717  12.949
41114W        W45182   7.979  13.151  13.181
41115W        W45183   7.338  12.679  12.752
41116W        W45184   8.374  12.651  13.944
41117W        W45185  10.645  12.434  14.198
41118W        W45186   8.261  13.878  12.643
41119W        W45187   9.382  13.567  13.777
41120W        W45188   8.602  12.207  13.002
41121W        W45189   8.894  12.991  12.645
41122W        W45190   9.891  13.764  14.493
41123W        W45191   8.970  13.084  14.503
41124W        W45192   8.951  12.800  13.981
41125W        W45193   7.360  12.191  14.503
41126W        W45194  10.192  13.726  14.102
41127W        W45195   7.773  11.308  12.100
41128W        W45196   8.300  13.566  13.099
41129W        W45197  10.763  13.349  12.389
41130W        W45198  10.176  11.749  12.956
41131W        W45199  10.461  11.702  11.051
41132W        W45200  10.926  12.503  13.357
41133W        W45201   8.893  14.210  13.110
41134W        W45202  10.667  13.676  11.548
41135W        W45203   7.796  14.462  11.302
41136W        W45204   8.189  14.508  11.978
41137W        W45205   7.986  11.262  13.404
41138W        W45206  10.609  12.280  13.679
41139W        W45207  10.014  12.702  12.138
41140W        W45208   9.980  12.390  11.165
41141W        W45209   9.188  13.534  13.305
41142W        W45210   8.994  11.864  12.504
41143W        W45211   9.594  13.951  13.498
41144W        W45212  10.465  12.742  11.920
41145W        W45213   9.367  11.400  11.936
41146W        W45214   8.024  14.094  11.619
41147W        W45215   7.395  11.593  12.218
41148W        W45216  10.181  12.200  12.692
41149W        W45217   7.639  13.817  12.607
41150W        W45218   8.980  14.167  11.477
41151W        W45219  10.372  12.193  10.941
41152W        W45220   7.395  13.951  13.105
41153W        W45221   8.186  13.523  13.585
41154W        W45222   8.559  12.883  12.204
41155W        W45223   8.581  11.288  13.297
41156W        W45224  10.810  11.050  12.594
41157W        W45225   8.029  12.922  11.062
41158W        W45226   7.684  11.955  11.241
41159W        W45227   7.746  13.911  12.035
41160W        W45228   8.877  13.394  12.283
41161W        W45229  10.209  14.253  13.997
41162W        W45230   9.135  11.895  11.681
41163W        W45231  10.518  14.293  12.453
41164W        W45232  10.195  12.146  14.051
41165W        W45233  10.908  13.802  12.185
41166W        W45234   9.535  13.094  13.669
41167W        W45235   7.301  12.645  11.875
41168W        W45236   8.412  13.060  13.448
41169W        W45237   9.616  12.324  11.826
41170W        W45238   9.493  12.814  11.930
41171W        W45239   7.836  12.234  13.404
41172W        W45240   7.821  12.110  14.326
41173W        W45241   7.711  11.027  12.485
41174W        W45242   9.479  11.374  13.046
41175W        W45243   9.127  11.559  14.209
41176W        W45244   9.482  11.708  11.387
41177W        W45245  10.665  14.101  14.141
41178W        W45246   9.632  11.182  14.180
41179W        W45247  10.651  13.483  14.302
41180W        W45248  10.081  11.650  13.898
41181W        W45249   9.881  11.588  12.168
41182W        W45250  10.274  12.722  14.572
41183W        W45251   8.014  14.298  12.558
41184W        W45252   8.672  12.015  11.544
41185W        W45253   8.241  11.299  14.208
41186W        W45254  10.293  11.783  11.889
41187W        W45255  10.660  12.265  11.834
41188W        W45256   8.403  14.482  14.305
41189W        W45257   8.329  11.018  11.540
41190W        W45258  10.650  11.552  12.575
41191W        W45259  10.800  13.801  11.020
41192W        W45260   7.707  13.004  12.722
41193W        W45261   9.624  11.591  10.952
41194W        W45262  10.758  13.923  12.672
41195W        W45263  10.797  11.117  13.422
41196W        W45264   9.242  12.329  13.976
41197W        W45265   9.335  13.668  11.679
41198W        W45266   9.735  12.962  14.419
41199W        W45267   9.409  10.939  12.728
41200W        W45268   8.021  11.842  12.791
41201W        W45269   7.575  13.042  13.565
41202W        W45270   9.434  14.235  12.271
41203W        W45271  10.628  11.832  13.143
41204W        W45272   9.265  14.179  13.910
41205W        W45273  10.608  13.238  11.115
41206W        W45274   9.043  12.721  12.176
41207W        W45275  10.895  11.232  13.917
41208W        W45276   9.044  13.067  13.511
41209W        W45277   9.261  11.953  12.956
41210W        W45278  10.113  12.251  11.794
41211W        W45279  10.400  11.984  11.436
41212W        W45280  10.209  14.024  11.825
41213W        W45281  10.043  13.627  12.621
41214W        W45282   9.939  12.706  11.599
41215W        W45283   9.372  12.916  12.585
41216W        W45284  10.253  12.704  12.652
41217W        W45285   7.628  11.719  13.076
41218W        W45286  10.406  12.771  13.903
41219W        W45287  10.757  14.389  13.049
41220W        W45288   8.687  13.833  12.451
41221W        W45289   9.694  14.366  13.775
41222W        W45290   9.688  11.696  13.539
41223W        W45291   8.895  14.404  13.600
41224W        W45292  10.592  11.358  12.066
41225W        W45293  10.383  12.677  13.367
41226W        W45294   7.366  11.998  13.405
41227W        W45295  10.226  11.793  12.423
41228W        W45296  10.637  11.944  14.200
41229W        W45297   9.522  13.643  12.418
41230W        W45298   8.778  14.234  12.031
41231W        W45299   7.893  11.414  11.289
41232W        W45300   8.997  11.068  13.099
41233W        W45301   8.025  14.188  10.947
41234W        W45302   8.399  12.654  11.698
41235W        W45303   9.053  13.283  14.011
41236W        W45304   8.883  11.641  12.001
41237W        W45305  10.239  11.238  12.429
41238W        W45306   9.959  14.520  12.757
41239W        W45307   9.371  14.168  13.097
41240W        W45308   8.767  13.205  13.058
41241W        W45309  10.537  13.928  13.184
41242W        W45310   8.231  11.431  11.953
41243W        W45311   8.753  13.728  12.913
41244W        W45312   8.236  11.659  10.978
41245W        W45313   9.037  12.268  13.372
41246W        W45314   9.885  11.134  13.242
41247W        W45315   7.305  12.977  13.127
41248W        W45316   9.009  12.795  11.285
41249W        W45317   8.277  11.110  11.055
41250W        W45318   9.015  12.191  12.106
41251W        W45319   9.985  11.167  13.805
41252W        W45320   8.573  13.179  13.914
41253W        W45321   9.377  12.961  14.131
41254W        W45322   9.994  12.991  14.024
41255W        W45323   9.278  11.131  14.529
41256W        W45324   8.500  11.747  12.922
41257W        W45325   7.926  11.703  12.320
41258W        W45326   7.712  14.415  11.996
41259W        W45327   9.044  13.745  14.121
41260W        W45328   8.079  13.230  11.480
41261W        W45329   9.759  12.615  12.701
41262W        W45330  10.039  12.414  13.100
41263W        W45331   9.244  13.088  13.034
41264W        W45332   9.714  13.462  11.166
41265W        W45333   9.386  11.483  12.494
41266W        W45334  10.865  11.761  11.762
41267W        W45335   7.359  14.350  13.793
41268W        W45336   7.776  13.576  13.325
41269W        W45337   7.343  14.422  11.557
41270W        W45338   9.242  11.692  13.363
41271W        W45339   8.605  13.715  11.212
41272W        W45340  10.510  14.097  11.398
41273W        W45341   9.485  12.750  11.412
41274W        W45342   8.328  11.941  11.929
41275W        W45343   9.160  11.851  10.981
41276W        W45344   9.744  13.416  14.159
41277W        W45345  10.097  11.322  11.776
41278W        W45346   7.427  11.170  11.224
41279W        W45347   8.713  13.489  13.514
41280W        W45348   8.512  13.405  12.606
41281W        W45349   8.254  13.357  11.004
41282W        W45350   7.495  13.598  11.772
41283W        W45351   7.999  12.668  14.214
41284W        W45352   8.703  11.228  14.400
41285W        W45353   9.412  11.370  13.756
41286W        W45354   8.607  11.138  12.037
41287W        W45355   9.666  11.215  11.542
41288W        W45356   7.611  11.147  13.119
41289W        W45357   7.659  12.110  12.489
41290W        W45358  10.348  11.218  12.895
41291W        W45359   7.770  11.716  11.709
41292W        W45360  10.341  11.404  13.325
41293W        W45361  10.737  12.607  11.010
41294W        W45362   8.029  11.365  12.829
41295W        W45363   9.143  11.937  13.769
41296W        W45364   7.291  11.627  11.247
41297W        W45365   8.077  13.016  13.808
41298W        W45366   9.435  12.414  12.987
41299W        W45367   9.302  14.493  11.283
41300W        W45368   7.448  13.000  10.980
41301W        W45369   8.183  13.411  14.106
41302W        W45370   7.704  12.578  13.737
41303W        W45371   8.695  12.683  13.531
41304W        W45372  10.463  11.042  13.793
41305W        W45373  10.861  12.652  13.784
41306W        W45374  10.849  12.852  11.470
41307W        W45375   9.712  13.184  11.569
41308W        W45376  10.186  14.484  11.264
41309W        W45377   9.363  12.474  14.406
41310W        W45378   7.693  13.441  14.446
41311W        W45379  10.899  11.363  14.398
41312W        W45380  10.617  12.291  13.019
41313W        W45381   8.925  14.421  14.496
41314W        W45382   8.780  11.050  11.223
41315W        W45383  10.319  13.649  11.166
41316W        W45384   8.088  11.742  14.052
41317W        W45385   8.522  13.736  13.914
41318W        W45386  10.648  11.727  13.712
41319W        W45387   9.859  14.386  11.680
41320W        W45388  10.098  13.005  13.047
41321W        W45389   8.348  11.421  13.714
41322W        W45390   8.817  12.490  14.471
41323W        W45391   8.320  13.669  11.665
41324W        W45392  10.075  13.167  11.929
41325W        W45393   7.843  11.793  13.653
41326W        W45394   9.172  13.855  12.117
41327W        W45395  10.922  12.415  12.298
41328W        W45396   9.144  11.048  14.017
41329W        W45397   9.924  13.753  13.096
41330W        W45398  10.227  14.097  12.804
41331W        W45399   9.446  13.899  11.232
41332W        W45400   7.456  13.791  14.074
41333W        W45401   8.199  11.783  13.312
41334W        W45402   8.169  11.131  12.422
41335W        W45403   9.790  11.973  13.114
41336W        W45404   8.588  13.144  11.314
41337W        W45405  10.586  13.086  12.813
41338W        W45406   7.913  13.844  14.236
41339W        W45407  10.300  14.526  12.033
41340W        W45408   8.399  11.546  12.478
41341W        W45409   8.168  13.039  12.568
41342W        W45410   8.481  14.450  13.318
41343W        W45411  10.548  14.546  14.350
41344W        W45412   9.707  12.734  13.283
41345W        W45413   7.556  12.532  11.198
41346W        W45414  10.690  14.190  11.895
41347W        W45415  10.527  11.514  11.514
41348W        W45416   8.666  11.033  13.917
41349W        W45417  10.372  13.835  12.375
41350W        W45418  10.401  12.391  12.280
41351W        W45419   8.518  12.064  12.496
41352W        W45420   8.763  12.326  13.820
41353W        W45421   9.874  13.479  13.683
41354W        W45422   8.524  11.933  13.795
41355W        W45423   8.503  14.399  12.411
41356W        W45424   7.820  14.358  14.045
41357W        W45425   7.932  13.719  11.175
41358W        W45426  10.449  13.477  11.985
41359W        W45427   8.053  12.269  13.871
41360W        W45428  10.826  12.199  11.352
41361W        W45429   8.571  13.256  11.823
41362W        W45430   9.670  12.638  13.904
41363W        W45431   9.561  12.266  13.448
41364W        W45432   8.121  12.638  13.477
41365W        W45433  10.331  14.526  13.306
41366W        W45434  10.122  11.160  14.300
41367W        W45435   7.786  11.310  13.887
41368W        W45436   8.125  12.333  12.940
41369W        W45437   8.494  12.147  11.062
41370W        W45438   7.297  13.906  13.607
41371W        W45439   8.882  12.615  13.050
41372W        W45440   8.705  11.640  11.155
41373W        W45441   7.840  12.456  11.936
41374W        W45442   7.611  14.308  13.373
41375W        W45443  10.406  12.534  11.481
41376W        W45444  10.501  11.450  14.167
41377W        W45445   9.937  13.659  12.130
41378W        W45446   7.535  12.583  14.307
41379W        W45447  10.501  11.047  11.603
41380W        W45448  10.021  13.522  11.614
41381W        W45449   8.923  12.580  11.699
41382W        W45450  10.110  11.384  11.222
41383W        W45451  10.175  11.991  13.408
41384W        W45452   7.884  12.584  12.615
41385W        W45453   8.178  13.523  12.264
41386W        W45454   9.941  12.143  12.229
41387W        W45455   8.964  11.522  12.925
41388W        W45456  10.926  13.433  13.436
41389W        W45457  10.844  11.420  12.997
41390W        W45458   7.383  14.250  12.373
41391W        W45459   7.892  13.437  11.909
41392W        W45460   7.807  11.054  14.462
41393W        W45461   8.926  13.907  14.564
41394W        W45462  10.681  12.875  12.354
41395W        W45463  10.035  13.052  11.234
41396W        W45464   9.330  14.573  13.446
41397W        W45465  10.187  13.295  14.483
41398W        W45466   9.002  11.005  11.763
41399W        W45467   9.715  11.874  12.622
41400W        W45468   7.401  13.461  12.954
41401W        W45469   8.654  11.423  11.595
41402W        W45470   8.458  12.907  14.444
41403W        W45471   9.452  11.888  12.158
41404W        W45472   9.657  13.298  13.280
41405W        W45473   7.811  13.903  13.715
41406W        W45474   8.402  13.886  14.438
41407W        W45475   8.253  11.683  11.452
41408W        W45476   9.770  11.825  11.777
41409W        W45477   9.728  13.933  14.014
41410W        W45478   8.413  12.525  12.613
41411W        W45479   8.068  14.223  13.478
41412W        W45480  10.813  14.340  11.079
41413W        W45481   7.676  13.012  14.075
41414W        W45482   9.671  13.274  12.763
41415W        W45483   8.107  12.923  12.005
41416W        W45484   8.478  13.930  13.400
41417W        W45485   8.856  11.349  12.441
41418W        W45486   7.467  13.333  11.371
41419W        W45487   8.986  12.284  11.241
41420W        W45488   7.632  12.833  12.260
41421W        W45489   8.922  11.475  13.724
41422W        W45490  10.594  11.184  11.151
41423W        W45491  10.687  12.930  14.250
41424W        W45492   9.341  14.187  14.402
41425W        W45493  10.899  13.281  13.924
41426W        W45494  10.307  14.079  14.535
41427W        W45495   8.046  14.535  13.013
41428W        W45496  10.905  13.157  11.887
41429W        W45497   9.435  12.424  12.400
41430W        W45498   9.202  11.036  12.290
41431W        W45499   8.261  14.020  12.127
41432W        W45500   8.760  11.761  13.352
41433W        W45501   8.460  11.130  12.821
41434W        W45502   7.523  13.952  11.369
41435W        W45503   9.339  13.316  12.087
41436W        W45504   8.214  14.111  13.966
41437W        W45505   7.691  12.934  11.662
41438W        W45506   7.576  11.477  12.661
41439W        W45507   9.124  13.442  12.718
41440W        W45508   7.376  11.296  11.738
41441W        W45509  10.040  12.502  13.665
41442W        W45510   9.917  11.888  11.237
41443W        W45511  10.434  13.560  12.885
41444W        W45512   9.095  14.044  12.716
41445W        W45513   8.507  14.148  11.627
41446W        W45514   9.789  11.051  11.057
41447W        W45515   7.589  14.311  12.798
41448W        W45516   9.786  12.069  14.433
41449W        W45517   7.769  11.599  14.432
41450W        W45518   7.500  12.199  11.765
41451W        W45519   8.191  12.188  11.490
41452W        W45520   9.954  12.515  14.307
41453W        W45521   8.297  12.796  13.016
41454W        W45522   9.771  11.082  12.136
41455W        W45523   8.902  14.513  12.639
41456W        W45524  10.116  13.975  13.576
41457W        W45525   9.700  14.124  12.687
41458W        W45526   9.719  13.104  12.281
41459W        W45527   9.181  11.329  11.352
41460W        W45528  10.862  10.957  12.074
41461W        W45529   8.550  12.592  11.237
41462W        W45530  10.716  11.929  12.227
41463W        W45531   9.408  13.099  11.104
41464W        W45532  10.344  13.299  13.852
41465W        W45533   9.998  14.000  11.319
41466W        W45534   8.613  11.675  14.225
41467W        W45535   8.433  12.259  13.466
41468W        W45536  10.525  13.754  13.743
41469W        W45537   9.625  11.704  14.120
41470W        W45538   7.469  12.175  13.897
41471W        W45539   9.229  12.652  13.623
41472W        W45540   7.586  13.410  12.280
41473W        W45541   7.733  12.707  13.170
41474W        W45542  10.050  12.993  13.520
41475W        W45543   9.822  14.373  14.331
41476W        W45544   9.718  12.112  13.884
41477W        W45545   9.995  14.166  12.289
41478W        W45546   8.997  13.886  13.612
41479W        W45547   8.482  14.241  12.881
41480W        W45548  10.287  13.412  13.300
41481W        W45549   9.337  13.484  14.437
41482W        W45550   7.942  13.437  12.776
41483W        W45551  10.288  13.196  12.421
41484W        W45552   9.929  14.262  13.172
41485W        W45553   7.907  13.991  13.042
41486W        W45554   8.928  12.043  14.252
41487W        W45555   9.379  14.209  11.763
41488W        W45556   8.687  13.464  14.401
41489W        W45557   8.813  13.702  11.778
41490W        W45558   8.034  12.442  11.037
41491W        W45559   7.373  14.528  17.936
41492W        W45560   7.749  13.421  17.459
41493W        W45561  10.454  13.151  15.229
41494W        W45562  10.584  14.236  17.256
41495W        W45563   8.502  14.227  14.782
41496W        W45564   8.585  12.379  15.765
41497W        W45565   8.100  12.227  15.929
41498W        W45566   9.091  13.042  15.363
41499W        W45567   8.766  14.134  17.718
41500W        W45568   7.415  11.695  17.681
41501W        W45569   8.177  10.975  17.483
41502W        W45570   9.871  11.363  16.370
41503W        W45571   9.520  12.234  14.940
41504W        W45572  10.090  11.668  18.031
41505W        W45573   7.456  11.460  17.156
41506W        W45574   7.555  14.079  18.177
41507W        W45575   9.077  13.469  14.909
41508W        W45576   7.509  12.252  16.602
41509W        W45577   8.402  12.143  17.839
41510W        W45578  10.861  12.002  16.338
41511W        W45579  10.625  13.045  17.197
41512W        W45580   8.933  12.378  16.224
41513W        W45581   9.479  13.717  16.593
41514W        W45582   7.979  13.151  16.825
41515W        W45583   7.338  12.679  16.396
41516W        W45584   8.374  12.651  17.588
41517W        W45585  10.645  12.434  17.842
41518W        W45586   8.261  13.878  16.287
41519W        W45587   9.382  13.567  17.421
41520W        W45588   8.602  12.207  16.646
41521W        W45589   8.894  12.991  16.289
41522W        W45590   9.891  13.764  18.137
41523W        W45591   8.970  13.084  18.147
41524W        W45592   8.951  12.800  17.625
41525W        W45593   7.360  12.191  18.147
41526W        W45594  10.192  13.726  17.746
41527W        W45595   7.773  11.308  15.744
41528W        W45596   8.300  13.566  16.743
41529W        W45597  10.763  13.349  16.033
41530W        W45598  10.176  11.749  16.600
41531W        W45599  10.461  11.702  14.695
41532W        W45600  10.926  12.503  17.001
41533W        W45601   8.893  14.210  16.754
41534W        W45602  10.667  13.676  15.192
41535W        W45603   7.796  14.462  14.946
41536W        W45604   8.189  14.508  15.622
41537W        W45605   7.986  11.262  17.048
41538W        W45606  10.609  12.280  17.323
41539W        W45607  10.014  12.702  15.782
41540W        W45608   9.980  12.390  14.809
41541W        W45609   9.188  13.534  16.949
41542W        W45610   8.994  11.864  16.148
41543W        W45611   9.594  13.951  17.142
41544W        W45612  10.465  12.742  15.564
41545W        W45613   9.367  11.400  15.580
41546W        W45614   8.024  14.094  15.263
41547W        W45615  10.181  12.200  16.336
41548W        W45616   7.639  13.817  16.251
41549W        W45617   8.980  14.167  15.121
41550W        W45618  10.372  12.193  14.585
41551W        W45619   7.395  13.951  16.749
41552W        W45620   8.186  13.523  17.229
41553W        W45621   8.559  12.883  15.848
41554W        W45622   8.581  11.288  16.941
41555W        W45623  10.810  11.050  16.238
41556W        W45624   8.029  12.922  14.706
41557W        W45625   7.684  11.955  14.885
41558W        W45626   7.746  13.911  15.679
41559W        W45627   8.877  13.394  15.927
41560W        W45628  10.209  14.253  17.641
41561W        W45629   9.135  11.895  15.325
41562W        W45630  10.518  14.293  16.097
41563W        W45631  10.195  12.146  17.695
41564W        W45632  10.908  13.802  15.829
41565W        W45633   9.535  13.094  17.313
41566W        W45634   7.301  12.645  15.519
41567W        W45635   8.412  13.060  17.092
41568W        W45636   9.616  12.324  15.470
41569W        W45637   9.493  12.814  15.574
41570W        W45638   7.836  12.234  17.048
41571W        W45639   7.821  12.110  17.970
41572W        W45640   9.479  11.374  16.690
41573W        W45641   9.127  11.559  17.853
41574W        W45642   9.482  11.708  15.031
41575W        W45643  10.665  14.101  17.785
41576W        W45644   9.632  11.182  17.824
41577W        W45645  10.651  13.483  17.946
41578W        W45646  10.081  11.650  17.542
41579W        W45647   9.881  11.588  15.812
41580W        W45648  10.274  12.722  18.216
41581W        W45649   8.014  14.298  16.202
41582W        W45650   8.672  12.015  15.188
41583W        W45651   8.241  11.299  17.852
41584W        W45652  10.293  11.783  15.533
41585W        W45653  10.660  12.265  15.478
41586W        W45654   8.403  14.482  17.949
41587W        W45655   8.329  11.018  15.184
41588W        W45656  10.650  11.552  16.219
41589W        W45657  10.800  13.801  14.664
41590W        W45658   7.707  13.004  16.366
41591W        W45659   9.624  11.591  14.596
41592W        W45660  10.758  13.923  16.316
41593W        W45661  10.797  11.117  17.066
41594W        W45662   9.242  12.329  17.620
41595W        W45663   9.335  13.668  15.323
41596W        W45664   9.735  12.962  18.063
41597W        W45665   9.409  10.939  16.372
41598W        W45666   8.021  11.842  16.435
41599W        W45667   7.575  13.042  17.209
41600W        W45668   9.434  14.235  15.915
41601W        W45669  10.628  11.832  16.787
41602W        W45670   9.265  14.179  17.554
41603W        W45671  10.608  13.238  14.759
41604W        W45672   9.043  12.721  15.820
41605W        W45673  10.895  11.232  17.561
41606W        W45674   9.044  13.067  17.155
41607W        W45675   9.261  11.953  16.600
41608W        W45676  10.113  12.251  15.438
41609W        W45677  10.400  11.984  15.080
41610W        W45678  10.209  14.024  15.469
41611W        W45679  10.043  13.627  16.265
41612W        W45680   9.939  12.706  15.243
41613W        W45681   9.372  12.916  16.229
41614W        W45682  10.253  12.704  16.296
41615W        W45683   7.628  11.719  16.720
41616W        W45684  10.406  12.771  17.547
41617W        W45685  10.757  14.389  16.693
41618W        W45686   8.687  13.833  16.095
41619W        W45687   9.694  14.366  17.419
41620W        W45688   9.688  11.696  17.183
41621W        W45689   8.895  14.404  17.244
41622W        W45690  10.592  11.358  15.710
41623W        W45691  10.383  12.677  17.011
41624W        W45692   7.366  11.998  17.049
41625W        W45693  10.226  11.793  16.067
41626W        W45694  10.637  11.944  17.844
41627W        W45695   9.522  13.643  16.062
41628W        W45696   8.778  14.234  15.675
41629W        W45697   7.893  11.414  14.933
41630W        W45698   8.997  11.068  16.743
41631W        W45699   8.025  14.188  14.591
41632W        W45700   8.399  12.654  15.342
41633W        W45701   9.053  13.283  17.655
41634W        W45702   8.883  11.641  15.645
41635W        W45703  10.239  11.238  16.073
41636W        W45704   9.959  14.520  16.401
41637W        W45705   9.371  14.168  16.741
41638W        W45706   8.767  13.205  16.702
41639W        W45707  10.537  13.928  16.828
41640W        W45708   8.231  11.431  15.597
41641W        W45709   8.753  13.728  16.557
41642W        W45710   8.236  11.659  14.622
41643W        W45711   9.037  12.268  17.016
41644W        W45712   9.885  11.134  16.886
41645W        W45713   7.305  12.977  16.771
41646W        W45714   9.009  12.795  14.929
41647W        W45715   8.277  11.110  14.699
41648W        W45716   9.015  12.191  15.750
41649W        W45717   9.985  11.167  17.449
41650W        W45718   8.573  13.179  17.558
41651W        W45719   9.377  12.961  17.775
41652W        W45720   9.994  12.991  17.668
41653W        W45721   9.278  11.131  18.173
41654W        W45722   8.500  11.747  16.566
41655W        W45723   7.926  11.703  15.964
41656W        W45724   7.712  14.415  15.640
41657W        W45725   9.044  13.745  17.765
41658W        W45726   8.079  13.230  15.124
41659W        W45727   9.759  12.615  16.345
41660W        W45728  10.039  12.414  16.744
41661W        W45729   9.244  13.088  16.678
41662W        W45730   9.714  13.462  14.810
41663W        W45731   9.386  11.483  16.138
41664W        W45732  10.865  11.761  15.406
41665W        W45733   7.359  14.350  17.437
41666W        W45734   7.776  13.576  16.969
41667W        W45735   7.343  14.422  15.201
41668W        W45736   9.242  11.692  17.007
41669W        W45737   8.605  13.715  14.856
41670W        W45738  10.510  14.097  15.042
41671W        W45739   9.485  12.750  15.056
41672W        W45740   8.328  11.941  15.573
41673W        W45741   9.160  11.851  14.625
41674W        W45742   9.744  13.416  17.803
41675W        W45743  10.097  11.322  15.420
41676W        W45744   7.427  11.170  14.868
41677W        W45745   8.713  13.489  17.158
41678W        W45746   8.512  13.405  16.250
41679W        W45747   8.254  13.357  14.648
41680W        W45748   7.495  13.598  15.416
41681W        W45749   7.999  12.668  17.858
41682W        W45750   8.703  11.228  18.044
41683W        W45751   9.412  11.370  17.400
41684W        W45752   8.607  11.138  15.681
41685W        W45753   9.666  11.215  15.186
41686W        W45754   7.611  11.147  16.763
41687W        W45755   7.659  12.110  16.133
41688W        W45756  10.348  11.218  16.539
41689W        W45757   7.770  11.716  15.353
41690W        W45758  10.341  11.404  16.969
41691W        W45759  10.737  12.607  14.654
41692W        W45760   8.029  11.365  16.473
41693W        W45761   9.143  11.937  17.413
41694W        W45762   7.291  11.627  14.891
41695W        W45763   8.077  13.016  17.452
41696W        W45764   9.435  12.414  16.631
41697W        W45765   9.302  14.493  14.927
41698W        W45766   7.448  13.000  14.624
41699W        W45767   8.183  13.411  17.750
41700W        W45768   7.704  12.578  17.381
41701W        W45769   8.695  12.683  17.175
41702W        W45770  10.463  11.042  17.437
41703W        W45771  10.861  12.652  17.428
41704W        W45772  10.849  12.852  15.114
41705W        W45773   9.712  13.184  15.213
41706W        W45774  10.186  14.484  14.908
41707W        W45775   9.363  12.474  18.050
41708W        W45776   7.693  13.441  18.090
41709W        W45777  10.899  11.363  18.042
41710W        W45778  10.617  12.291  16.663
41711W        W45779   8.925  14.421  18.140
41712W        W45780   8.780  11.050  14.867
41713W        W45781  10.319  13.649  14.810
41714W        W45782   8.088  11.742  17.696
41715W        W45783   8.522  13.736  17.558
41716W        W45784  10.648  11.727  17.356
41717W        W45785   9.859  14.386  15.324
41718W        W45786  10.098  13.005  16.691
41719W        W45787   8.348  11.421  17.358
41720W        W45788   8.817  12.490  18.115
41721W        W45789   8.320  13.669  15.309
41722W        W45790  10.075  13.167  15.573
41723W        W45791   7.843  11.793  17.297
41724W        W45792   9.172  13.855  15.761
41725W        W45793  10.922  12.415  15.942
41726W        W45794   9.144  11.048  17.661
41727W        W45795   9.924  13.753  16.740
41728W        W45796  10.227  14.097  16.448
41729W        W45797   9.446  13.899  14.876
41730W        W45798   7.456  13.791  17.718
41731W        W45799   8.199  11.783  16.956
41732W        W45800   8.169  11.131  16.066
41733W        W45801   9.790  11.973  16.758
41734W        W45802   8.588  13.144  14.958
41735W        W45803  10.586  13.086  16.457
41736W        W45804   7.913  13.844  17.880
41737W        W45805  10.300  14.526  15.677
41738W        W45806   8.399  11.546  16.122
41739W        W45807   8.168  13.039  16.212
41740W        W45808   8.481  14.450  16.962
41741W        W45809  10.548  14.546  17.994
41742W        W45810   9.707  12.734  16.927
41743W        W45811   7.556  12.532  14.842
41744W        W45812  10.690  14.190  15.539
41745W        W45813  10.527  11.514  15.158
41746W        W45814   8.666  11.033  17.561
41747W        W45815  10.372  13.835  16.019
41748W        W45816  10.401  12.391  15.924
41749W        W45817   8.518  12.064  16.140
41750W        W45818   8.763  12.326  17.464
41751W        W45819   9.874  13.479  17.327
41752W        W45820   8.524  11.933  17.439
41753W        W45821   8.503  14.399  16.055
41754W        W45822   7.820  14.358  17.689
41755W        W45823   7.932  13.719  14.819
41756W        W45824  10.449  13.477  15.629
41757W        W45825   8.053  12.269  17.515
41758W        W45826  10.826  12.199  14.996
41759W        W45827   8.571  13.256  15.467
41760W        W45828   9.670  12.638  17.548
41761W        W45829   9.561  12.266  17.092
41762W        W45830   8.121  12.638  17.121
41763W        W45831  10.331  14.526  16.950
41764W        W45832  10.122  11.160  17.944
41765W        W45833   7.786  11.310  17.531
41766W        W45834   8.125  12.333  16.584
41767W        W45835   8.494  12.147  14.706
41768W        W45836   7.297  13.906  17.251
41769W        W45837   8.882  12.615  16.694
41770W        W45838   8.705  11.640  14.799
41771W        W45839   7.840  12.456  15.580
41772W        W45840   7.611  14.308  17.017
41773W        W45841  10.406  12.534  15.125
41774W        W45842  10.501  11.450  17.811
41775W        W45843   9.937  13.659  15.774
41776W        W45844   7.535  12.583  17.951
41777W        W45845  10.501  11.047  15.247
41778W        W45846  10.021  13.522  15.258
41779W        W45847   8.923  12.580  15.343
41780W        W45848  10.110  11.384  14.866
41781W        W45849  10.175  11.991  17.052
41782W        W45850   7.884  12.584  16.259
41783W        W45851   8.178  13.523  15.908
41784W        W45852   9.941  12.143  15.873
41785W        W45853   8.964  11.522  16.569
41786W        W45854  10.926  13.433  17.080
41787W        W45855  10.844  11.420  16.641
41788W        W45856   7.383  14.250  16.017
41789W        W45857   7.892  13.437  15.553
41790W        W45858   7.807  11.054  18.106
41791W        W45859   8.926  13.907  18.208
41792W        W45860  10.681  12.875  15.998
41793W        W45861  10.035  13.052  14.878
41794W        W45862   9.330  14.573  17.090
41795W        W45863  10.187  13.295  18.127
41796W        W45864   9.002  11.005  15.407
41797W        W45865   9.715  11.874  16.266
41798W        W45866   7.401  13.461  16.598
41799W        W45867   8.654  11.423  15.239
41800W        W45868   8.458  12.907  18.088
41801W        W45869   9.452  11.888  15.802
41802W        W45870   9.657  13.298  16.924
41803W        W45871   7.811  13.903  17.359
41804W        W45872   8.402  13.886  18.082
41805W        W45873   8.253  11.683  15.096
41806W        W45874   9.770  11.825  15.421
41807W        W45875   9.728  13.933  17.658
41808W        W45876   8.413  12.525  16.257
41809W        W45877   8.068  14.223  17.122
41810W        W45878  10.813  14.340  14.723
41811W        W45879   7.676  13.012  17.719
41812W        W45880   9.671  13.274  16.407
41813W        W45881   8.107  12.923  15.649
41814W        W45882   8.478  13.930  17.044
41815W        W45883   8.856  11.349  16.085
41816W        W45884   7.467  13.333  15.015
41817W        W45885   8.986  12.284  14.885
41818W        W45886   7.632  12.833  15.904
41819W        W45887   8.922  11.475  17.368
41820W        W45888  10.594  11.184  14.795
41821W        W45889  10.687  12.930  17.894
41822W        W45890   9.341  14.187  18.046
41823W        W45891  10.899  13.281  17.568
41824W        W45892  10.307  14.079  18.179
41825W        W45893   8.046  14.535  16.657
41826W        W45894  10.905  13.157  15.531
41827W        W45895   9.435  12.424  16.044
41828W        W45896   9.202  11.036  15.934
41829W        W45897   8.261  14.020  15.771
41830W        W45898   8.760  11.761  16.996
41831W        W45899   8.460  11.130  16.465
41832W        W45900   7.523  13.952  15.013
41833W        W45901   9.339  13.316  15.731
41834W        W45902   8.214  14.111  17.610
41835W        W45903   7.691  12.934  15.306
41836W        W45904   9.124  13.442  16.362
41837W        W45905   7.376  11.296  15.382
41838W        W45906  10.040  12.502  17.309
41839W        W45907   9.917  11.888  14.881
41840W        W45908  10.434  13.560  16.529
41841W        W45909   9.095  14.044  16.360
41842W        W45910   8.507  14.148  15.271
41843W        W45911   9.789  11.051  14.701
41844W        W45912   7.589  14.311  16.442
41845W        W45913   9.786  12.069  18.077
41846W        W45914   7.769  11.599  18.076
41847W        W45915   7.500  12.199  15.409
41848W        W45916   8.191  12.188  15.134
41849W        W45917   9.954  12.515  17.951
41850W        W45918   8.297  12.796  16.660
41851W        W45919   9.771  11.082  15.780
41852W        W45920   8.902  14.513  16.283
41853W        W45921  10.116  13.975  17.220
41854W        W45922   9.700  14.124  16.331
41855W        W45923   9.719  13.104  15.925
41856W        W45924   9.181  11.329  14.996
41857W        W45925  10.862  10.957  15.718
41858W        W45926   8.550  12.592  14.881
41859W        W45927  10.716  11.929  15.871
41860W        W45928   9.408  13.099  14.748
41861W        W45929  10.344  13.299  17.496
41862W        W45930   9.998  14.000  14.963
41863W        W45931   8.613  11.675  17.869
41864W        W45932   8.433  12.259  17.110
41865W        W45933  10.525  13.754  17.387
41866W        W45934   9.625  11.704  17.764
41867W        W45935   7.469  12.175  17.541
41868W        W45936   9.229  12.652  17.267
41869W        W45937   7.586  13.410  15.924
41870W        W45938  10.050  12.993  17.164
41871W        W45939   9.822  14.373  17.975
41872W        W45940   9.718  12.112  17.528
41873W        W45941   9.995  14.166  15.933
41874W        W45942   8.997  13.886  17.256
41875W        W45943   8.482  14.241  16.525
41876W        W45944  10.287  13.412  16.944
41877W        W45945   9.337  13.484  18.081
41878W        W45946   7.942  13.437  16.420
41879W        W45947  10.288  13.196  16.065
41880W        W45948   9.929  14.262  16.816
41881W        W45949   7.907  13.991  16.686
41882W        W45950   8.928  12.043  17.896
41883W        W45951   9.379  14.209  15.407
41884W        W45952   8.687  13.464  18.045
41885W        W45953   8.813  13.702  15.422
41886W        W45954   8.034  12.442  14.681
41887W        W45955   7.373  14.528  21.580
41888W        W45956   7.749  13.421  21.103
41889W        W45957  10.454  13.151  18.873
41890W        W45958  10.584  14.236  20.900
41891W        W45959   8.502  14.227  18.426
41892W        W45960   8.585  12.379  19.409
41893W        W45961   8.100  12.227  19.573
41894W        W45962   9.091  13.042  19.007
41895W        W45963   8.766  14.134  21.362
41896W        W45964   7.415  11.695  21.325
41897W        W45965   8.177  10.975  21.127
41898W        W45966   9.871  11.363  20.014
41899W        W45967   9.520  12.234  18.584
41900W        W45968  10.090  11.668  21.675
41901W        W45969   7.456  11.460  20.800
41902W        W45970   7.555  14.079  21.821
41903W        W45971   9.077  13.469  18.553
41904W        W45972   7.509  12.252  20.246
41905W        W45973   8.402  12.143  21.483
41906W        W45974  10.861  12.002  19.982
41907W        W45975  10.625  13.045  20.841
41908W        W45976   8.933  12.378  19.868
41909W        W45977   9.479  13.717  20.237
41910W        W45978   7.979  13.151  20.469
41911W        W45979   7.338  12.679  20.040
41912W        W45980   8.374  12.651  21.232
41913W        W45981  10.645  12.434  21.486
41914W        W45982   8.261  13.878  19.931
41915W        W45983   9.382  13.567  21.065
41916W        W45984   8.602  12.207  20.290
41917W        W45985   8.894  12.991  19.933
41918W        W45986   9.891  13.764  21.781
41919W        W45987   8.970  13.084  21.791
41920W        W45988   8.951  12.800  21.269
41921W        W45989   7.360  12.191  21.791
41922W        W45990  10.192  13.726  21.390
41923W        W45991   7.773  11.308  19.388
41924W        W45992   8.300  13.566  20.387
41925W        W45993  10.763  13.349  19.677
41926W        W45994  10.176  11.749  20.244
41927W        W45995  10.461  11.702  18.339
41928W        W45996  10.926  12.503  20.645
41929W        W45997   8.893  14.210  20.398
41930W        W45998  10.667  13.676  18.836
41931W        W45999   7.796  14.462  18.590
41932W        W46000   8.189  14.508  19.266
41933W        W46001   7.986  11.262  20.692
41934W        W46002  10.609  12.280  20.967
41935W        W46003  10.014  12.702  19.426
41936W        W46004   9.980  12.390  18.453
41937W        W46005   9.188  13.534  20.593
41938W        W46006   8.994  11.864  19.792
41939W        W46007   9.594  13.951  20.786
41940W        W46008  10.465  12.742  19.208
41941W        W46009   9.367  11.400  19.224
41942W        W46010   8.024  14.094  18.907
41943W        W46011   7.395  11.593  19.506
41944W        W46012  10.181  12.200  19.980
41945W        W46013   7.639  13.817  19.895
41946W        W46014   8.980  14.167  18.765
41947W        W46015  10.372  12.193  18.229
41948W        W46016   7.395  13.951  20.393
41949W        W46017   8.186  13.523  20.873
41950W        W46018   8.559  12.883  19.492
41951W        W46019   8.581  11.288  20.585
41952W        W46020  10.810  11.050  19.882
41953W        W46021   8.029  12.922  18.350
41954W        W46022   7.684  11.955  18.529
41955W        W46023   7.746  13.911  19.323
41956W        W46024   8.877  13.394  19.571
41957W        W46025  10.209  14.253  21.285
41958W        W46026   9.135  11.895  18.969
41959W        W46027  10.518  14.293  19.741
41960W        W46028  10.195  12.146  21.339
41961W        W46029  10.908  13.802  19.473
41962W        W46030   9.535  13.094  20.957
41963W        W46031   7.301  12.645  19.163
41964W        W46032   8.412  13.060  20.736
41965W        W46033   9.616  12.324  19.114
41966W        W46034   9.493  12.814  19.218
41967W        W46035   7.836  12.234  20.692
41968W        W46036   7.821  12.110  21.614
41969W        W46037   7.711  11.027  19.773
41970W        W46038   9.479  11.374  20.334
41971W        W46039   9.127  11.559  21.497
41972W        W46040   9.482  11.708  18.675
41973W        W46041  10.665  14.101  21.429
41974W        W46042   9.632  11.182  21.468
41975W        W46043  10.651  13.483  21.590
41976W        W46044  10.081  11.650  21.186
41977W        W46045   9.881  11.588  19.456
41978W        W46046  10.274  12.722  21.860
41979W        W46047   8.014  14.298  19.846
41980W        W46048   8.672  12.015  18.832
41981W        W46049   8.241  11.299  21.496
41982W        W46050  10.293  11.783  19.177
41983W        W46051  10.660  12.265  19.122
41984W        W46052   8.403  14.482  21.593
41985W        W46053   8.329  11.018  18.828
41986W        W46054  10.650  11.552  19.863
41987W        W46055  10.800  13.801  18.308
41988W        W46056   7.707  13.004  20.010
41989W        W46057   9.624  11.591  18.240
41990W        W46058  10.758  13.923  19.960
41991W        W46059  10.797  11.117  20.710
41992W        W46060   9.242  12.329  21.264
41993W        W46061   9.335  13.668  18.967
41994W        W46062   9.735  12.962  21.707
41995W        W46063   9.409  10.939  20.016
41996W        W46064   8.021  11.842  20.079
41997W        W46065   7.575  13.042  20.853
41998W        W46066   9.434  14.235  19.559
41999W        W46067  10.628  11.832  20.431
42000W        W46068   9.265  14.179  21.198
42001W        W46069  10.608  13.238  18.403
42002W        W46070   9.043  12.721  19.464
42003W        W46071  10.895  11.232  21.205
42004W        W46072   9.044  13.067  20.799
42005W        W46073   9.261  11.953  20.244
42006W        W46074  10.113  12.251  19.082
42007W        W46075  10.400  11.984  18.724
42008W        W46076  10.209  14.024  19.113
42009W        W46077  10.043  13.627  19.909
42010W        W46078   9.939  12.706  18.887
42011W        W46079   9.372  12.916  19.873
42012W        W46080  10.253  12.704  19.940
42013W        W46081   7.628  11.719  20.364
42014W        W46082  10.406  12.771  21.191
42015W        W46083  10.757  14.389  20.337
42016W        W46084   8.687  13.833  19.739
42017W        W46085   9.694  14.366  21.063
42018W        W46086   9.688  11.696  20.827
42019W        W46087   8.895  14.404  20.888
42020W        W46088  10.592  11.358  19.354
42021W        W46089  10.383  12.677  20.655
42022W        W46090   7.366  11.998  20.693
42023W        W46091  10.226  11.793  19.711
42024W        W46092  10.637  11.944  21.488
42025W        W46093   9.522  13.643  19.706
42026W        W46094   8.778  14.234  19.319
42027W        W46095   7.893  11.414  18.577
42028W        W46096   8.997  11.068  20.387
42029W        W46097   8.025  14.188  18.235
42030W        W46098   8.399  12.654  18.986
42031W        W46099   9.053  13.283  21.299
42032W        W46100   8.883  11.641  19.289
42033W        W46101  10.239  11.238  19.717
42034W        W46102   9.959  14.520  20.045
42035W        W46103   9.371  14.168  20.385
42036W        W46104   8.767  13.205  20.346
42037W        W46105  10.537  13.928  20.472
42038W        W46106   8.231  11.431  19.241
42039W        W46107   8.753  13.728  20.201
42040W        W46108   8.236  11.659  18.266
42041W        W46109   9.037  12.268  20.660
42042W        W46110   9.885  11.134  20.530
42043W        W46111   7.305  12.977  20.415
42044W        W46112   9.009  12.795  18.573
42045W        W46113   8.277  11.110  18.343
42046W        W46114   9.015  12.191  19.394
42047W        W46115   9.985  11.167  21.093
42048W        W46116   8.573  13.179  21.202
42049W        W46117   9.377  12.961  21.419
42050W        W46118   9.994  12.991  21.312
42051W        W46119   9.278  11.131  21.817
42052W        W46120   8.500  11.747  20.210
42053W        W46121   7.926  11.703  19.608
42054W        W46122   7.712  14.415  19.284
42055W        W46123   9.044  13.745  21.409
42056W        W46124   8.079  13.230  18.768
42057W        W46125   9.759  12.615  19.989
42058W        W46126  10.039  12.414  20.388
42059W        W46127   9.244  13.088  20.322
42060W        W46128   9.714  13.462  18.454
42061W        W46129   9.386  11.483  19.782
42062W        W46130  10.865  11.761  19.050
42063W        W46131   7.359  14.350  21.081
42064W        W46132   7.776  13.576  20.613
42065W        W46133   7.343  14.422  18.845
42066W        W46134   9.242  11.692  20.651
42067W        W46135   8.605  13.715  18.500
42068W        W46136  10.510  14.097  18.686
42069W        W46137   9.485  12.750  18.700
42070W        W46138   8.328  11.941  19.217
42071W        W46139   9.160  11.851  18.269
42072W        W46140   9.744  13.416  21.447
42073W        W46141  10.097  11.322  19.064
42074W        W46142   7.427  11.170  18.512
42075W        W46143   8.713  13.489  20.802
42076W        W46144   8.512  13.405  19.894
42077W        W46145   8.254  13.357  18.292
42078W        W46146   7.495  13.598  19.060
42079W        W46147   7.999  12.668  21.502
42080W        W46148   8.703  11.228  21.688
42081W        W46149   9.412  11.370  21.044
42082W        W46150   8.607  11.138  19.325
42083W        W46151   9.666  11.215  18.830
42084W        W46152   7.611  11.147  20.407
42085W        W46153   7.659  12.110  19.777
42086W        W46154  10.348  11.218  20.183
42087W        W46155   7.770  11.716  18.997
42088W        W46156  10.341  11.404  20.613
42089W        W46157  10.737  12.607  18.298
42090W        W46158   8.029  11.365  20.117
42091W        W46159   9.143  11.937  21.057
42092W        W46160   7.291  11.627  18.535
42093W        W46161   8.077  13.016  21.096
42094W        W46162   9.435  12.414  20.275
42095W        W46163   9.302  14.493  18.571
42096W        W46164   7.448  13.000  18.268
42097W        W46165   8.183  13.411  21.394
42098W        W46166   7.704  12.578  21.025
42099W        W46167   8.695  12.683  20.819
42100W        W46168  10.463  11.042  21.081
42101W        W46169  10.861  12.652  21.072
42102W        W46170  10.849  12.852  18.758
42103W        W46171   9.712  13.184  18.857
42104W        W46172  10.186  14.484  18.552
42105W        W46173   9.363  12.474  21.694
42106W        W46174   7.693  13.441  21.734
42107W        W46175  10.899  11.363  21.686
42108W        W46176  10.617  12.291  20.307
42109W        W46177   8.925  14.421  21.784
42110W        W46178   8.780  11.050  18.511
42111W        W46179  10.319  13.649  18.454
42112W        W46180   8.088  11.742  21.340
42113W        W46181   8.522  13.736  21.202
42114W        W46182  10.648  11.727  21.000
42115W        W46183   9.859  14.386  18.968
42116W        W46184  10.098  13.005  20.335
42117W        W46185   8.348  11.421  21.002
42118W        W46186   8.817  12.490  21.759
42119W        W46187   8.320  13.669  18.953
42120W        W46188  10.075  13.167  19.217
42121W        W46189   7.843  11.793  20.941
42122W        W46190   9.172  13.855  19.405
42123W        W46191  10.922  12.415  19.586
42124W        W46192   9.144  11.048  21.305
42125W        W46193   9.924  13.753  20.384
42126W        W46194  10.227  14.097  20.092
42127W        W46195   9.446  13.899  18.520
42128W        W46196   7.456  13.791  21.362
42129W        W46197   8.199  11.783  20.600
42130W        W46198   8.169  11.131  19.710
42131W        W46199   9.790  11.973  20.402
42132W        W46200   8.588  13.144  18.602
42133W        W46201  10.586  13.086  20.101
42134W        W46202   7.913  13.844  21.524
42135W        W46203  10.300  14.526  19.321
42136W        W46204   8.399  11.546  19.766
42137W        W46205   8.168  13.039  19.856
42138W        W46206   8.481  14.450  20.606
42139W        W46207  10.548  14.546  21.638
42140W        W46208   9.707  12.734  20.571
42141W        W46209   7.556  12.532  18.486
42142W        W46210  10.690  14.190  19.183
42143W        W46211  10.527  11.514  18.802
42144W        W46212   8.666  11.033  21.205
42145W        W46213  10.372  13.835  19.663
42146W        W46214  10.401  12.391  19.568
42147W        W46215   8.518  12.064  19.784
42148W        W46216   8.763  12.326  21.108
42149W        W46217   9.874  13.479  20.971
42150W        W46218   8.524  11.933  21.083
42151W        W46219   8.503  14.399  19.699
42152W        W46220   7.820  14.358  21.333
42153W        W46221   7.932  13.719  18.463
42154W        W46222  10.449  13.477  19.273
42155W        W46223   8.053  12.269  21.159
42156W        W46224  10.826  12.199  18.640
42157W        W46225   8.571  13.256  19.111
42158W        W46226   9.670  12.638  21.192
42159W        W46227   9.561  12.266  20.736
42160W        W46228   8.121  12.638  20.765
42161W        W46229  10.331  14.526  20.594
42162W        W46230  10.122  11.160  21.588
42163W        W46231   7.786  11.310  21.175
42164W        W46232   8.125  12.333  20.228
42165W        W46233   8.494  12.147  18.350
42166W        W46234   7.297  13.906  20.895
42167W        W46235   8.882  12.615  20.338
42168W        W46236   8.705  11.640  18.443
42169W        W46237   7.840  12.456  19.224
42170W        W46238   7.611  14.308  20.661
42171W        W46239  10.406  12.534  18.769
42172W        W46240  10.501  11.450  21.455
42173W        W46241   9.937  13.659  19.418
42174W        W46242   7.535  12.583  21.595
42175W        W46243  10.501  11.047  18.891
42176W        W46244  10.021  13.522  18.902
42177W        W46245   8.923  12.580  18.987
42178W        W46246  10.110  11.384  18.510
42179W        W46247  10.175  11.991  20.696
42180W        W46248   7.884  12.584  19.903
42181W        W46249   8.178  13.523  19.552
42182W        W46250   9.941  12.143  19.517
42183W        W46251   8.964  11.522  20.213
42184W        W46252  10.926  13.433  20.724
42185W        W46253  10.844  11.420  20.285
42186W        W46254   7.383  14.250  19.661
42187W        W46255   7.892  13.437  19.197
42188W        W46256   7.807  11.054  21.750
42189W        W46257   8.926  13.907  21.852
42190W        W46258  10.681  12.875  19.642
42191W        W46259  10.035  13.052  18.522
42192W        W46260   9.330  14.573  20.734
42193W        W46261  10.187  13.295  21.771
42194W        W46262   9.002  11.005  19.051
42195W        W46263   9.715  11.874  19.910
42196W        W46264   7.401  13.461  20.242
42197W        W46265   8.654  11.423  18.883
42198W        W46266   8.458  12.907  21.732
42199W        W46267   9.452  11.888  19.446
42200W        W46268   9.657  13.298  20.568
42201W        W46269   7.811  13.903  21.003
42202W        W46270   8.402  13.886  21.726
42203W        W46271   8.253  11.683  18.740
42204W        W46272   9.770  11.825  19.065
42205W        W46273   9.728  13.933  21.302
42206W        W46274   8.413  12.525  19.901
42207W        W46275   8.068  14.223  20.766
42208W        W46276  10.813  14.340  18.367
42209W        W46277   7.676  13.012  21.363
42210W        W46278   9.671  13.274  20.051
42211W        W46279   8.107  12.923  19.293
42212W        W46280   8.478  13.930  20.688
42213W        W46281   8.856  11.349  19.729
42214W        W46282   7.467  13.333  18.659
42215W        W46283   8.986  12.284  18.529
42216W        W46284   7.632  12.833  19.548
42217W        W46285   8.922  11.475  21.012
42218W        W46286  10.594  11.184  18.439
42219W        W46287  10.687  12.930  21.538
42220W        W46288   9.341  14.187  21.690
42221W        W46289  10.899  13.281  21.212
42222W        W46290  10.307  14.079  21.823
42223W        W46291   8.046  14.535  20.301
42224W        W46292  10.905  13.157  19.175
42225W        W46293   9.435  12.424  19.688
42226W        W46294   9.202  11.036  19.578
42227W        W46295   8.261  14.020  19.415
42228W        W46296   8.760  11.761  20.640
42229W        W46297   8.460  11.130  20.109
42230W        W46298   7.523  13.952  18.657
42231W        W46299   9.339  13.316  19.375
42232W        W46300   8.214  14.111  21.254
42233W        W46301   7.691  12.934  18.950
42234W        W46302   7.576  11.477  19.949
42235W        W46303   9.124  13.442  20.006
42236W        W46304   7.376  11.296  19.026
42237W        W46305  10.040  12.502  20.953
42238W        W46306   9.917  11.888  18.525
42239W        W46307  10.434  13.560  20.173
42240W        W46308   9.095  14.044  20.004
42241W        W46309   8.507  14.148  18.915
42242W        W46310   9.789  11.051  18.345
42243W        W46311   7.589  14.311  20.086
42244W        W46312   9.786  12.069  21.721
42245W        W46313   7.769  11.599  21.720
42246W        W46314   7.500  12.199  19.053
42247W        W46315   8.191  12.188  18.778
42248W        W46316   9.954  12.515  21.595
42249W        W46317   8.297  12.796  20.304
42250W        W46318   9.771  11.082  19.424
42251W        W46319   8.902  14.513  19.927
42252W        W46320  10.116  13.975  20.864
42253W        W46321   9.700  14.124  19.975
42254W        W46322   9.719  13.104  19.569
42255W        W46323   9.181  11.329  18.640
42256W        W46324  10.862  10.957  19.362
42257W        W46325   8.550  12.592  18.525
42258W        W46326  10.716  11.929  19.515
42259W        W46327   9.408  13.099  18.392
42260W        W46328  10.344  13.299  21.140
42261W        W46329   9.998  14.000  18.607
42262W        W46330   8.613  11.675  21.513
42263W        W46331   8.433  12.259  20.754
42264W        W46332  10.525  13.754  21.031
42265W        W46333   9.625  11.704  21.408
42266W        W46334   7.469  12.175  21.185
42267W        W46335   9.229  12.652  20.911
42268W        W46336   7.586  13.410  19.568
42269W        W46337   7.733  12.707  20.458
42270W        W46338  10.050  12.993  20.808
42271W        W46339   9.822  14.373  21.619
42272W        W46340   9.718  12.112  21.172
42273W        W46341   9.995  14.166  19.577
42274W        W46342   8.997  13.886  20.900
42275W        W46343   8.482  14.241  20.169
42276W        W46344  10.287  13.412  20.588
42277W        W46345   9.337  13.484  21.725
42278W        W46346   7.942  13.437  20.064
42279W        W46347  10.288  13.196  19.709
42280W        W46348   9.929  14.262  20.460
42281W        W46349   7.907  13.991  20.330
42282W        W46350   8.928  12.043  21.540
42283W        W46351   9.379  14.209  19.051
42284W        W46352   8.687  13.464  21.689
42285W        W46353   8.813  13.702  19.066
42286W        W46354   8.034  12.442  18.325
42287W        W46355  10.454  13.151  22.518
42288W        W46356   8.502  14.227  22.071
42289W        W46357   8.585  12.379  23.054
42290W        W46358   8.100  12.227  23.218
42291W        W46359   9.091  13.042  22.652
42292W        W46360   9.520  12.234  22.229
42293W        W46361   9.077  13.469  22.198
42294W        W46362   7.773  11.308  23.033
42295W        W46363  10.461  11.702  21.984
42296W        W46364  10.667  13.676  22.481
42297W        W46365   7.796  14.462  22.235
42298W        W46366   8.189  14.508  22.911
42299W        W46367  10.014  12.702  23.071
42300W        W46368   9.980  12.390  22.098
42301W        W46369  10.465  12.742  22.853
42302W        W46370   9.367  11.400  22.869
42303W        W46371   8.024  14.094  22.552
42304W        W46372   8.980  14.167  22.410
42305W        W46373  10.372  12.193  21.874
42306W        W46374   8.559  12.883  23.137
42307W        W46375   8.029  12.922  21.995
42308W        W46376   7.684  11.955  22.174
42309W        W46377   7.746  13.911  22.968
42310W        W46378   8.877  13.394  23.216
42311W        W46379   9.135  11.895  22.614
42312W        W46380   7.301  12.645  22.808
42313W        W46381   9.616  12.324  22.759
42314W        W46382   9.493  12.814  22.863
42315W        W46383   9.482  11.708  22.320
42316W        W46384   9.881  11.588  23.101
42317W        W46385   8.672  12.015  22.477
42318W        W46386  10.293  11.783  22.822
42319W        W46387  10.660  12.265  22.767
42320W        W46388   8.329  11.018  22.473
42321W        W46389  10.800  13.801  21.953
42322W        W46390   9.624  11.591  21.885
42323W        W46391   9.335  13.668  22.612
42324W        W46392   9.434  14.235  23.204
42325W        W46393  10.608  13.238  22.048
42326W        W46394   9.043  12.721  23.109
42327W        W46395  10.113  12.251  22.727
42328W        W46396  10.400  11.984  22.369
42329W        W46397  10.209  14.024  22.758
42330W        W46398   9.939  12.706  22.532
42331W        W46399  10.592  11.358  22.999
42332W        W46400   8.778  14.234  22.964
42333W        W46401   7.893  11.414  22.222
42334W        W46402   8.025  14.188  21.880
42335W        W46403   8.399  12.654  22.631
42336W        W46404   8.883  11.641  22.934
42337W        W46405   8.231  11.431  22.886
42338W        W46406   8.236  11.659  21.911
42339W        W46407   9.009  12.795  22.218
42340W        W46408   8.277  11.110  21.988
42341W        W46409   9.015  12.191  23.039
42342W        W46410   7.926  11.703  23.253
42343W        W46411   7.712  14.415  22.929
42344W        W46412   8.079  13.230  22.413
42345W        W46413   9.714  13.462  22.099
42346W        W46414  10.865  11.761  22.695
42347W        W46415   7.343  14.422  22.490
42348W        W46416   8.605  13.715  22.145
42349W        W46417  10.510  14.097  22.331
42350W        W46418   9.485  12.750  22.345
42351W        W46419   8.328  11.941  22.862
42352W        W46420   9.160  11.851  21.914
42353W        W46421  10.097  11.322  22.709
42354W        W46422   7.427  11.170  22.157
42355W        W46423   8.254  13.357  21.937
42356W        W46424   7.495  13.598  22.705
42357W        W46425   8.607  11.138  22.970
42358W        W46426   9.666  11.215  22.475
42359W        W46427   7.770  11.716  22.642
42360W        W46428  10.737  12.607  21.943
42361W        W46429   7.291  11.627  22.180
42362W        W46430   9.302  14.493  22.216
42363W        W46431   7.448  13.000  21.913
42364W        W46432  10.849  12.852  22.403
42365W        W46433   9.712  13.184  22.502
42366W        W46434  10.186  14.484  22.197
42367W        W46435   8.780  11.050  22.156
42368W        W46436  10.319  13.649  22.099
42369W        W46437   9.859  14.386  22.613
42370W        W46438   8.320  13.669  22.598
42371W        W46439  10.075  13.167  22.862
42372W        W46440   9.172  13.855  23.050
42373W        W46441  10.922  12.415  23.231
42374W        W46442   9.446  13.899  22.165
42375W        W46443   8.588  13.144  22.247
42376W        W46444  10.300  14.526  22.966
42377W        W46445   7.556  12.532  22.131
42378W        W46446  10.690  14.190  22.828
42379W        W46447  10.527  11.514  22.447
42380W        W46448  10.401  12.391  23.213
42381W        W46449   7.932  13.719  22.108
42382W        W46450  10.449  13.477  22.918
42383W        W46451  10.826  12.199  22.285
42384W        W46452   8.571  13.256  22.756
42385W        W46453   8.494  12.147  21.995
42386W        W46454   8.705  11.640  22.088
42387W        W46455   7.840  12.456  22.869
42388W        W46456  10.406  12.534  22.414
42389W        W46457   9.937  13.659  23.063
42390W        W46458  10.501  11.047  22.536
42391W        W46459  10.021  13.522  22.547
42392W        W46460   8.923  12.580  22.632
42393W        W46461  10.110  11.384  22.155
42394W        W46462   8.178  13.523  23.197
42395W        W46463   9.941  12.143  23.162
42396W        W46464   7.383  14.250  23.306
42397W        W46465   7.892  13.437  22.842
42398W        W46466  10.681  12.875  23.287
42399W        W46467  10.035  13.052  22.167
42400W        W46468   9.002  11.005  22.696
42401W        W46469   8.654  11.423  22.528
42402W        W46470   9.452  11.888  23.091
42403W        W46471   8.253  11.683  22.385
42404W        W46472   9.770  11.825  22.710
42405W        W46473  10.813  14.340  22.012
42406W        W46474   7.467  13.333  22.304
42407W        W46475   8.986  12.284  22.174
42408W        W46476   7.632  12.833  23.193
42409W        W46477  10.594  11.184  22.084
42410W        W46478  10.905  13.157  22.820
42411W        W46479   9.202  11.036  23.223
42412W        W46480   8.261  14.020  23.060
42413W        W46481   7.523  13.952  22.302
42414W        W46482   9.339  13.316  23.020
42415W        W46483   7.691  12.934  22.595
42416W        W46484   7.376  11.296  22.671
42417W        W46485   9.917  11.888  22.170
42418W        W46486   8.507  14.148  22.560
42419W        W46487   9.789  11.051  21.990
42420W        W46488   7.500  12.199  22.698
42421W        W46489   8.191  12.188  22.423
42422W        W46490   9.719  13.104  23.214
42423W        W46491   9.181  11.329  22.285
42424W        W46492  10.862  10.957  23.007
42425W        W46493   8.550  12.592  22.170
42426W        W46494  10.716  11.929  23.160
42427W        W46495   9.408  13.099  22.037
42428W        W46496   9.998  14.000  22.252
42429W        W46497   7.586  13.410  23.213
42430W        W46498   9.995  14.166  23.222
42431W        W46499   9.379  14.209  22.696
42432W        W46500   8.813  13.702  22.711
42433W        W46501   8.034  12.442  21.970
42434W        W46502   7.373  18.172   3.359
42435W        W46503   7.749  17.065   2.882
42436W        W46504  10.454  16.795   0.652
42437W        W46505  10.584  17.880   2.679
42438W        W46506   8.502  17.871   0.205
42439W        W46507   8.585  16.023   1.188
42440W        W46508   8.100  15.871   1.352
42441W        W46509   9.091  16.686   0.786
42442W        W46510   8.766  17.778   3.141
42443W        W46511   7.415  15.339   3.104
42444W        W46512   8.177  14.619   2.906
42445W        W46513   9.871  15.007   1.793
42446W        W46514   9.520  15.878   0.363
42447W        W46515  10.090  15.312   3.454
42448W        W46516   7.456  15.104   2.579
42449W        W46517   7.555  17.723   3.600
42450W        W46518   9.077  17.113   0.332
42451W        W46519   7.509  15.896   2.025
42452W        W46520   8.402  15.787   3.262
42453W        W46521  10.861  15.646   1.761
42454W        W46522  10.625  16.689   2.620
42455W        W46523   8.933  16.022   1.647
42456W        W46524   9.479  17.361   2.016
42457W        W46525   7.979  16.795   2.248
42458W        W46526   7.338  16.323   1.819
42459W        W46527   8.374  16.295   3.011
42460W        W46528  10.645  16.078   3.265
42461W        W46529   8.261  17.522   1.710
42462W        W46530   9.382  17.211   2.844
42463W        W46531   8.602  15.851   2.069
42464W        W46532   8.894  16.635   1.712
42465W        W46533   9.891  17.408   3.560
42466W        W46534   8.970  16.728   3.570
42467W        W46535   8.951  16.444   3.048
42468W        W46536   7.360  15.835   3.570
42469W        W46537  10.192  17.370   3.169
42470W        W46538   7.773  14.952   1.167
42471W        W46539   8.300  17.210   2.166
42472W        W46540  10.763  16.993   1.456
42473W        W46541  10.176  15.393   2.023
42474W        W46542  10.461  15.346   0.118
42475W        W46543  10.926  16.147   2.424
42476W        W46544   8.893  17.854   2.177
42477W        W46545  10.667  17.320   0.615
42478W        W46546   7.796  18.106   0.369
42479W        W46547   8.189  18.152   1.045
42480W        W46548   7.986  14.906   2.471
42481W        W46549  10.609  15.924   2.746
42482W        W46550  10.014  16.346   1.205
42483W        W46551   9.980  16.034   0.232
42484W        W46552   9.188  17.178   2.372
42485W        W46553   8.994  15.508   1.571
42486W        W46554   9.594  17.595   2.565
42487W        W46555  10.465  16.386   0.987
42488W        W46556   9.367  15.044   1.003
42489W        W46557   8.024  17.738   0.686
42490W        W46558   7.395  15.237   1.285
42491W        W46559  10.181  15.844   1.759
42492W        W46560   7.639  17.461   1.674
42493W        W46561   8.980  17.811   0.544
42494W        W46562  10.372  15.837   0.008
42495W        W46563   7.395  17.595   2.172
42496W        W46564   8.186  17.167   2.652
42497W        W46565   8.559  16.527   1.271
42498W        W46566   8.581  14.932   2.364
42499W        W46567  10.810  14.694   1.661
42500W        W46568   8.029  16.566   0.129
42501W        W46569   7.684  15.599   0.308
42502W        W46570   7.746  17.555   1.102
42503W        W46571   8.877  17.038   1.350
42504W        W46572  10.209  17.897   3.064
42505W        W46573   9.135  15.539   0.748
42506W        W46574  10.518  17.937   1.520
42507W        W46575  10.195  15.790   3.118
42508W        W46576  10.908  17.446   1.252
42509W        W46577   9.535  16.738   2.736
42510W        W46578   7.301  16.289   0.942
42511W        W46579   8.412  16.704   2.515
42512W        W46580   9.616  15.968   0.893
42513W        W46581   9.493  16.458   0.997
42514W        W46582   7.836  15.878   2.471
42515W        W46583   7.821  15.754   3.393
42516W        W46584   7.711  14.671   1.552
42517W        W46585   9.479  15.018   2.113
42518W        W46586   9.127  15.203   3.276
42519W        W46587   9.482  15.352   0.454
42520W        W46588  10.665  17.745   3.208
42521W        W46589   9.632  14.826   3.247
42522W        W46590  10.651  17.127   3.369
42523W        W46591  10.081  15.294   2.965
42524W        W46592   9.881  15.232   1.235
42525W        W46593  10.274  16.366   3.639
42526W        W46594   8.014  17.942   1.625
42527W        W46595   8.672  15.659   0.611
42528W        W46596   8.241  14.943   3.275
42529W        W46597  10.293  15.427   0.956
42530W        W46598  10.660  15.909   0.901
42531W        W46599   8.403  18.126   3.372
42532W        W46600   8.329  14.662   0.607
42533W        W46601  10.650  15.196   1.642
42534W        W46602  10.800  17.445   0.087
42535W        W46603   7.707  16.648   1.789
42536W        W46604   9.624  15.235   0.019
42537W        W46605  10.758  17.567   1.739
42538W        W46606  10.797  14.761   2.489
42539W        W46607   9.242  15.973   3.043
42540W        W46608   9.335  17.312   0.746
42541W        W46609   9.735  16.606   3.486
42542W        W46610   9.409  14.583   1.795
42543W        W46611   8.021  15.486   1.858
42544W        W46612   7.575  16.686   2.632
42545W        W46613   9.434  17.879   1.338
42546W        W46614  10.628  15.476   2.210
42547W        W46615   9.265  17.823   2.977
42548W        W46616  10.608  16.882   0.182
42549W        W46617   9.043  16.365   1.243
42550W        W46618  10.895  14.876   2.984
42551W        W46619   9.044  16.711   2.578
42552W        W46620   9.261  15.597   2.023
42553W        W46621  10.113  15.895   0.861
42554W        W46622  10.400  15.628   0.503
42555W        W46623  10.209  17.668   0.892
42556W        W46624  10.043  17.271   1.688
42557W        W46625   9.939  16.350   0.666
42558W        W46626   9.372  16.560   1.652
42559W        W46627  10.253  16.348   1.719
42560W        W46628   7.628  15.363   2.143
42561W        W46629  10.406  16.415   2.970
42562W        W46630  10.757  18.033   2.116
42563W        W46631   8.687  17.477   1.518
42564W        W46632   9.694  18.010   2.842
42565W        W46633   9.688  15.340   2.606
42566W        W46634   8.895  18.048   2.667
42567W        W46635  10.592  15.002   1.133
42568W        W46636  10.383  16.321   2.434
42569W        W46637   7.366  15.642   2.472
42570W        W46638  10.226  15.437   1.490
42571W        W46639  10.637  15.588   3.267
42572W        W46640   9.522  17.287   1.485
42573W        W46641   8.778  17.878   1.098
42574W        W46642   7.893  15.058   0.356
42575W        W46643   8.997  14.712   2.166
42576W        W46644   8.025  17.832   0.014
42577W        W46645   8.399  16.298   0.765
42578W        W46646   9.053  16.927   3.078
42579W        W46647   8.883  15.285   1.068
42580W        W46648  10.239  14.882   1.496
42581W        W46649   9.959  18.164   1.824
42582W        W46650   9.371  17.812   2.164
42583W        W46651   8.767  16.849   2.125
42584W        W46652  10.537  17.572   2.251
42585W        W46653   8.231  15.075   1.020
42586W        W46654   8.753  17.372   1.980
42587W        W46655   8.236  15.303   0.045
42588W        W46656   9.037  15.912   2.439
42589W        W46657   9.885  14.778   2.309
42590W        W46658   7.305  16.621   2.194
42591W        W46659   9.009  16.439   0.352
42592W        W46660   8.277  14.754   0.122
42593W        W46661   9.015  15.835   1.173
42594W        W46662   9.985  14.811   2.872
42595W        W46663   8.573  16.823   2.981
42596W        W46664   9.377  16.605   3.198
42597W        W46665   9.994  16.635   3.091
42598W        W46666   9.278  14.775   3.596
42599W        W46667   8.500  15.391   1.989
42600W        W46668   7.926  15.347   1.387
42601W        W46669   7.712  18.059   1.063
42602W        W46670   9.044  17.389   3.188
42603W        W46671   8.079  16.874   0.547
42604W        W46672   9.759  16.259   1.768
42605W        W46673  10.039  16.058   2.167
42606W        W46674   9.244  16.732   2.101
42607W        W46675   9.714  17.106   0.233
42608W        W46676   9.386  15.127   1.561
42609W        W46677  10.865  15.405   0.829
42610W        W46678   7.359  17.994   2.860
42611W        W46679   7.776  17.220   2.392
42612W        W46680   7.343  18.066   0.624
42613W        W46681   9.242  15.336   2.430
42614W        W46682   8.605  17.359   0.279
42615W        W46683  10.510  17.741   0.465
42616W        W46684   9.485  16.394   0.479
42617W        W46685   8.328  15.585   0.996
42618W        W46686   9.160  15.495   0.048
42619W        W46687   9.744  17.060   3.226
42620W        W46688  10.097  14.966   0.843
42621W        W46689   7.427  14.814   0.291
42622W        W46690   8.713  17.133   2.581
42623W        W46691   8.512  17.049   1.673
42624W        W46692   8.254  17.001   0.071
42625W        W46693   7.495  17.242   0.839
42626W        W46694   7.999  16.312   3.281
42627W        W46695   8.703  14.872   3.467
42628W        W46696   9.412  15.014   2.823
42629W        W46697   8.607  14.782   1.104
42630W        W46698   9.666  14.859   0.609
42631W        W46699   7.611  14.791   2.186
42632W        W46700   7.659  15.754   1.556
42633W        W46701  10.348  14.862   1.962
42634W        W46702   7.770  15.360   0.776
42635W        W46703  10.341  15.048   2.392
42636W        W46704  10.737  16.251   0.077
42637W        W46705   8.029  15.009   1.896
42638W        W46706   9.143  15.581   2.836
42639W        W46707   7.291  15.271   0.314
42640W        W46708   8.077  16.660   2.875
42641W        W46709   9.435  16.058   2.054
42642W        W46710   9.302  18.137   0.350
42643W        W46711   7.448  16.644   0.047
42644W        W46712   8.183  17.055   3.173
42645W        W46713   7.704  16.222   2.804
42646W        W46714   8.695  16.327   2.598
42647W        W46715  10.463  14.686   2.860
42648W        W46716  10.861  16.296   2.851
42649W        W46717  10.849  16.496   0.537
42650W        W46718   9.712  16.828   0.636
42651W        W46719  10.186  18.128   0.331
42652W        W46720   9.363  16.118   3.473
42653W        W46721   7.693  17.085   3.513
42654W        W46722  10.899  15.007   3.465
42655W        W46723  10.617  15.935   2.086
42656W        W46724   8.925  18.065   3.563
42657W        W46725   8.780  14.694   0.290
42658W        W46726  10.319  17.293   0.233
42659W        W46727   8.088  15.386   3.119
42660W        W46728   8.522  17.380   2.981
42661W        W46729  10.648  15.371   2.779
42662W        W46730   9.859  18.030   0.747
42663W        W46731  10.098  16.649   2.114
42664W        W46732   8.348  15.065   2.781
42665W        W46733   8.817  16.134   3.538
42666W        W46734   8.320  17.313   0.732
42667W        W46735  10.075  16.811   0.996
42668W        W46736   7.843  15.437   2.720
42669W        W46737   9.172  17.499   1.184
42670W        W46738  10.922  16.059   1.365
42671W        W46739   9.144  14.692   3.084
42672W        W46740   9.924  17.397   2.163
42673W        W46741  10.227  17.741   1.871
42674W        W46742   9.446  17.543   0.299
42675W        W46743   7.456  17.435   3.141
42676W        W46744   8.199  15.427   2.379
42677W        W46745   8.169  14.775   1.489
42678W        W46746   9.790  15.617   2.181
42679W        W46747   8.588  16.788   0.381
42680W        W46748  10.586  16.730   1.880
42681W        W46749   7.913  17.488   3.303
42682W        W46750  10.300  18.170   1.100
42683W        W46751   8.399  15.190   1.545
42684W        W46752   8.168  16.683   1.635
42685W        W46753   8.481  18.094   2.385
42686W        W46754  10.548  18.190   3.417
42687W        W46755   9.707  16.378   2.350
42688W        W46756   7.556  16.176   0.265
42689W        W46757  10.690  17.834   0.962
42690W        W46758  10.527  15.158   0.581
42691W        W46759   8.666  14.677   2.984
42692W        W46760  10.372  17.479   1.442
42693W        W46761  10.401  16.035   1.347
42694W        W46762   8.518  15.708   1.563
42695W        W46763   8.763  15.970   2.887
42696W        W46764   9.874  17.123   2.750
42697W        W46765   8.524  15.577   2.862
42698W        W46766   8.503  18.043   1.478
42699W        W46767   7.820  18.002   3.112
42700W        W46768   7.932  17.363   0.242
42701W        W46769  10.449  17.121   1.052
42702W        W46770   8.053  15.913   2.938
42703W        W46771  10.826  15.843   0.419
42704W        W46772   8.571  16.900   0.890
42705W        W46773   9.670  16.282   2.971
42706W        W46774   9.561  15.910   2.515
42707W        W46775   8.121  16.282   2.544
42708W        W46776  10.331  18.170   2.373
42709W        W46777  10.122  14.804   3.367
42710W        W46778   7.786  14.954   2.954
42711W        W46779   8.125  15.977   2.007
42712W        W46780   8.494  15.791   0.129
42713W        W46781   7.297  17.550   2.674
42714W        W46782   8.882  16.259   2.117
42715W        W46783   8.705  15.284   0.222
42716W        W46784   7.840  16.100   1.003
42717W        W46785   7.611  17.952   2.440
42718W        W46786  10.406  16.178   0.548
42719W        W46787  10.501  15.094   3.234
42720W        W46788   9.937  17.303   1.197
42721W        W46789   7.535  16.227   3.374
42722W        W46790  10.501  14.691   0.670
42723W        W46791  10.021  17.166   0.681
42724W        W46792   8.923  16.224   0.766
42725W        W46793  10.110  15.028   0.289
42726W        W46794  10.175  15.635   2.475
42727W        W46795   7.884  16.228   1.682
42728W        W46796   8.178  17.167   1.331
42729W        W46797   9.941  15.787   1.296
42730W        W46798   8.964  15.166   1.992
42731W        W46799  10.926  17.077   2.503
42732W        W46800  10.844  15.064   2.064
42733W        W46801   7.383  17.894   1.440
42734W        W46802   7.892  17.081   0.976
42735W        W46803   7.807  14.698   3.529
42736W        W46804   8.926  17.551   3.631
42737W        W46805  10.681  16.519   1.421
42738W        W46806  10.035  16.696   0.301
42739W        W46807   9.330  18.217   2.513
42740W        W46808  10.187  16.939   3.550
42741W        W46809   9.002  14.649   0.830
42742W        W46810   9.715  15.518   1.689
42743W        W46811   7.401  17.105   2.021
42744W        W46812   8.654  15.067   0.662
42745W        W46813   8.458  16.551   3.511
42746W        W46814   9.452  15.532   1.225
42747W        W46815   9.657  16.942   2.347
42748W        W46816   7.811  17.547   2.782
42749W        W46817   8.402  17.530   3.505
42750W        W46818   8.253  15.327   0.519
42751W        W46819   9.770  15.469   0.844
42752W        W46820   9.728  17.577   3.081
42753W        W46821   8.413  16.169   1.680
42754W        W46822   8.068  17.867   2.545
42755W        W46823  10.813  17.984   0.146
42756W        W46824   7.676  16.656   3.142
42757W        W46825   9.671  16.918   1.830
42758W        W46826   8.107  16.567   1.072
42759W        W46827   8.478  17.574   2.467
42760W        W46828   8.856  14.993   1.508
42761W        W46829   7.467  16.977   0.438
42762W        W46830   8.986  15.928   0.308
42763W        W46831   7.632  16.477   1.327
42764W        W46832   8.922  15.119   2.791
42765W        W46833  10.594  14.828   0.218
42766W        W46834  10.687  16.574   3.317
42767W        W46835   9.341  17.831   3.469
42768W        W46836  10.899  16.925   2.991
42769W        W46837  10.307  17.723   3.602
42770W        W46838   8.046  18.179   2.080
42771W        W46839  10.905  16.801   0.954
42772W        W46840   9.435  16.068   1.467
42773W        W46841   9.202  14.680   1.357
42774W        W46842   8.261  17.664   1.194
42775W        W46843   8.760  15.405   2.419
42776W        W46844   8.460  14.774   1.888
42777W        W46845   7.523  17.596   0.436
42778W        W46846   9.339  16.960   1.154
42779W        W46847   8.214  17.755   3.033
42780W        W46848   7.691  16.578   0.729
42781W        W46849   7.576  15.121   1.728
42782W        W46850   9.124  17.086   1.785
42783W        W46851   7.376  14.940   0.805
42784W        W46852  10.040  16.146   2.732
42785W        W46853   9.917  15.532   0.304
42786W        W46854  10.434  17.204   1.952
42787W        W46855   9.095  17.688   1.783
42788W        W46856   8.507  17.792   0.694
42789W        W46857   9.789  14.695   0.124
42790W        W46858   7.589  17.955   1.865
42791W        W46859   9.786  15.713   3.500
42792W        W46860   7.769  15.243   3.499
42793W        W46861   7.500  15.843   0.832
42794W        W46862   8.191  15.832   0.557
42795W        W46863   9.954  16.159   3.374
42796W        W46864   8.297  16.440   2.083
42797W        W46865   9.771  14.726   1.203
42798W        W46866   8.902  18.157   1.706
42799W        W46867  10.116  17.619   2.643
42800W        W46868   9.700  17.768   1.754
42801W        W46869   9.719  16.748   1.348
42802W        W46870   9.181  14.973   0.419
42803W        W46871  10.862  14.601   1.141
42804W        W46872   8.550  16.236   0.304
42805W        W46873  10.716  15.573   1.294
42806W        W46874   9.408  16.743   0.171
42807W        W46875  10.344  16.943   2.919
42808W        W46876   9.998  17.644   0.386
42809W        W46877   8.613  15.319   3.292
42810W        W46878   8.433  15.903   2.533
42811W        W46879  10.525  17.398   2.810
42812W        W46880   9.625  15.348   3.187
42813W        W46881   7.469  15.819   2.964
42814W        W46882   9.229  16.296   2.690
42815W        W46883   7.586  17.054   1.347
42816W        W46884   7.733  16.351   2.237
42817W        W46885  10.050  16.637   2.587
42818W        W46886   9.822  18.017   3.398
42819W        W46887   9.718  15.756   2.951
42820W        W46888   9.995  17.810   1.356
42821W        W46889   8.997  17.530   2.679
42822W        W46890   8.482  17.885   1.948
42823W        W46891  10.287  17.056   2.367
42824W        W46892   9.337  17.128   3.504
42825W        W46893   7.942  17.081   1.843
42826W        W46894  10.288  16.840   1.488
42827W        W46895   9.929  17.906   2.239
42828W        W46896   7.907  17.635   2.109
42829W        W46897   8.928  15.687   3.319
42830W        W46898   9.379  17.853   0.830
42831W        W46899   8.687  17.108   3.468
42832W        W46900   8.813  17.346   0.845
42833W        W46901   8.034  16.086   0.104
42834W        W46902   7.373  18.172   7.003
42835W        W46903   7.749  17.065   6.526
42836W        W46904  10.454  16.795   4.296
42837W        W46905  10.584  17.880   6.323
42838W        W46906   8.502  17.871   3.849
42839W        W46907   8.585  16.023   4.832
42840W        W46908   8.100  15.871   4.996
42841W        W46909   9.091  16.686   4.430
42842W        W46910   8.766  17.778   6.785
42843W        W46911   7.415  15.339   6.748
42844W        W46912   8.177  14.619   6.550
42845W        W46913   9.871  15.007   5.437
42846W        W46914   9.520  15.878   4.007
42847W        W46915  10.090  15.312   7.098
42848W        W46916   7.456  15.104   6.223
42849W        W46917   7.555  17.723   7.244
42850W        W46918   9.077  17.113   3.976
42851W        W46919   7.509  15.896   5.669
42852W        W46920   8.402  15.787   6.906
42853W        W46921  10.861  15.646   5.405
42854W        W46922  10.625  16.689   6.264
42855W        W46923   8.933  16.022   5.291
42856W        W46924   9.479  17.361   5.660
42857W        W46925   7.979  16.795   5.892
42858W        W46926   7.338  16.323   5.463
42859W        W46927   8.374  16.295   6.655
42860W        W46928  10.645  16.078   6.909
42861W        W46929   8.261  17.522   5.354
42862W        W46930   9.382  17.211   6.488
42863W        W46931   8.602  15.851   5.713
42864W        W46932   8.894  16.635   5.356
42865W        W46933   9.891  17.408   7.204
42866W        W46934   8.970  16.728   7.214
42867W        W46935   8.951  16.444   6.692
42868W        W46936   7.360  15.835   7.214
42869W        W46937  10.192  17.370   6.813
42870W        W46938   7.773  14.952   4.811
42871W        W46939   8.300  17.210   5.810
42872W        W46940  10.763  16.993   5.100
42873W        W46941  10.176  15.393   5.667
42874W        W46942  10.461  15.346   3.762
42875W        W46943  10.926  16.147   6.068
42876W        W46944   8.893  17.854   5.821
42877W        W46945  10.667  17.320   4.259
42878W        W46946   7.796  18.106   4.013
42879W        W46947   8.189  18.152   4.689
42880W        W46948   7.986  14.906   6.115
42881W        W46949  10.609  15.924   6.390
42882W        W46950  10.014  16.346   4.849
42883W        W46951   9.980  16.034   3.876
42884W        W46952   9.188  17.178   6.016
42885W        W46953   8.994  15.508   5.215
42886W        W46954   9.594  17.595   6.209
42887W        W46955  10.465  16.386   4.631
42888W        W46956   9.367  15.044   4.647
42889W        W46957   8.024  17.738   4.330
42890W        W46958   7.395  15.237   4.929
42891W        W46959  10.181  15.844   5.403
42892W        W46960   7.639  17.461   5.318
42893W        W46961   8.980  17.811   4.188
42894W        W46962  10.372  15.837   3.652
42895W        W46963   7.395  17.595   5.816
42896W        W46964   8.186  17.167   6.296
42897W        W46965   8.559  16.527   4.915
42898W        W46966   8.581  14.932   6.008
42899W        W46967  10.810  14.694   5.305
42900W        W46968   8.029  16.566   3.773
42901W        W46969   7.684  15.599   3.952
42902W        W46970   7.746  17.555   4.746
42903W        W46971   8.877  17.038   4.994
42904W        W46972  10.209  17.897   6.708
42905W        W46973   9.135  15.539   4.392
42906W        W46974  10.518  17.937   5.164
42907W        W46975  10.195  15.790   6.762
42908W        W46976  10.908  17.446   4.896
42909W        W46977   9.535  16.738   6.380
42910W        W46978   7.301  16.289   4.586
42911W        W46979   8.412  16.704   6.159
42912W        W46980   9.616  15.968   4.537
42913W        W46981   9.493  16.458   4.641
42914W        W46982   7.836  15.878   6.115
42915W        W46983   7.821  15.754   7.037
42916W        W46984   7.711  14.671   5.196
42917W        W46985   9.479  15.018   5.757
42918W        W46986   9.127  15.203   6.920
42919W        W46987   9.482  15.352   4.098
42920W        W46988  10.665  17.745   6.852
42921W        W46989   9.632  14.826   6.891
42922W        W46990  10.651  17.127   7.013
42923W        W46991  10.081  15.294   6.609
42924W        W46992   9.881  15.232   4.879
42925W        W46993  10.274  16.366   7.283
42926W        W46994   8.014  17.942   5.269
42927W        W46995   8.672  15.659   4.255
42928W        W46996   8.241  14.943   6.919
42929W        W46997  10.293  15.427   4.600
42930W        W46998  10.660  15.909   4.545
42931W        W46999   8.403  18.126   7.016
42932W        W47000   8.329  14.662   4.251
42933W        W47001  10.650  15.196   5.286
42934W        W47002  10.800  17.445   3.731
42935W        W47003   7.707  16.648   5.433
42936W        W47004   9.624  15.235   3.663
42937W        W47005  10.758  17.567   5.383
42938W        W47006  10.797  14.761   6.133
42939W        W47007   9.242  15.973   6.687
42940W        W47008   9.335  17.312   4.390
42941W        W47009   9.735  16.606   7.130
42942W        W47010   9.409  14.583   5.439
42943W        W47011   8.021  15.486   5.502
42944W        W47012   7.575  16.686   6.276
42945W        W47013   9.434  17.879   4.982
42946W        W47014  10.628  15.476   5.854
42947W        W47015   9.265  17.823   6.621
42948W        W47016  10.608  16.882   3.826
42949W        W47017   9.043  16.365   4.887
42950W        W47018  10.895  14.876   6.628
42951W        W47019   9.044  16.711   6.222
42952W        W47020   9.261  15.597   5.667
42953W        W47021  10.113  15.895   4.505
42954W        W47022  10.400  15.628   4.147
42955W        W47023  10.209  17.668   4.536
42956W        W47024  10.043  17.271   5.332
42957W        W47025   9.939  16.350   4.310
42958W        W47026   9.372  16.560   5.296
42959W        W47027  10.253  16.348   5.363
42960W        W47028   7.628  15.363   5.787
42961W        W47029  10.406  16.415   6.614
42962W        W47030  10.757  18.033   5.760
42963W        W47031   8.687  17.477   5.162
42964W        W47032   9.694  18.010   6.486
42965W        W47033   9.688  15.340   6.250
42966W        W47034   8.895  18.048   6.311
42967W        W47035  10.592  15.002   4.777
42968W        W47036  10.383  16.321   6.078
42969W        W47037   7.366  15.642   6.116
42970W        W47038  10.226  15.437   5.134
42971W        W47039  10.637  15.588   6.911
42972W        W47040   9.522  17.287   5.129
42973W        W47041   8.778  17.878   4.742
42974W        W47042   7.893  15.058   4.000
42975W        W47043   8.997  14.712   5.810
42976W        W47044   8.025  17.832   3.658
42977W        W47045   8.399  16.298   4.409
42978W        W47046   9.053  16.927   6.722
42979W        W47047   8.883  15.285   4.712
42980W        W47048  10.239  14.882   5.140
42981W        W47049   9.959  18.164   5.468
42982W        W47050   9.371  17.812   5.808
42983W        W47051   8.767  16.849   5.769
42984W        W47052  10.537  17.572   5.895
42985W        W47053   8.231  15.075   4.664
42986W        W47054   8.753  17.372   5.624
42987W        W47055   8.236  15.303   3.689
42988W        W47056   9.037  15.912   6.083
42989W        W47057   7.305  16.621   5.838
42990W        W47058   9.009  16.439   3.996
42991W        W47059   8.277  14.754   3.766
42992W        W47060   9.015  15.835   4.817
42993W        W47061   9.985  14.811   6.516
42994W        W47062   8.573  16.823   6.625
42995W        W47063   9.377  16.605   6.842
42996W        W47064   9.994  16.635   6.735
42997W        W47065   9.278  14.775   7.240
42998W        W47066   8.500  15.391   5.633
42999W        W47067   7.926  15.347   5.031
43000W        W47068   7.712  18.059   4.707
43001W        W47069   9.044  17.389   6.832
43002W        W47070   8.079  16.874   4.191
43003W        W47071   9.759  16.259   5.412
43004W        W47072  10.039  16.058   5.811
43005W        W47073   9.244  16.732   5.745
43006W        W47074   9.714  17.106   3.877
43007W        W47075   9.386  15.127   5.205
43008W        W47076  10.865  15.405   4.473
43009W        W47077   7.359  17.994   6.504
43010W        W47078   7.776  17.220   6.036
43011W        W47079   7.343  18.066   4.268
43012W        W47080   9.242  15.336   6.074
43013W        W47081   8.605  17.359   3.923
43014W        W47082  10.510  17.741   4.109
43015W        W47083   9.485  16.394   4.123
43016W        W47084   8.328  15.585   4.640
43017W        W47085   9.160  15.495   3.692
43018W        W47086   9.744  17.060   6.870
43019W        W47087  10.097  14.966   4.487
43020W        W47088   7.427  14.814   3.935
43021W        W47089   8.713  17.133   6.225
43022W        W47090   8.512  17.049   5.317
43023W        W47091   8.254  17.001   3.715
43024W        W47092   7.495  17.242   4.483
43025W        W47093   7.999  16.312   6.925
43026W        W47094   8.703  14.872   7.111
43027W        W47095   9.412  15.014   6.467
43028W        W47096   8.607  14.782   4.748
43029W        W47097   9.666  14.859   4.253
43030W        W47098   7.611  14.791   5.830
43031W        W47099   7.659  15.754   5.200
43032W        W47100  10.348  14.862   5.606
43033W        W47101   7.770  15.360   4.420
43034W        W47102  10.341  15.048   6.036
43035W        W47103  10.737  16.251   3.721
43036W        W47104   8.029  15.009   5.540
43037W        W47105   9.143  15.581   6.480
43038W        W47106   7.291  15.271   3.958
43039W        W47107   8.077  16.660   6.519
43040W        W47108   9.435  16.058   5.698
43041W        W47109   9.302  18.137   3.994
43042W        W47110   7.448  16.644   3.691
43043W        W47111   8.183  17.055   6.817
43044W        W47112   7.704  16.222   6.448
43045W        W47113   8.695  16.327   6.242
43046W        W47114  10.463  14.686   6.504
43047W        W47115  10.861  16.296   6.495
43048W        W47116  10.849  16.496   4.181
43049W        W47117   9.712  16.828   4.280
43050W        W47118  10.186  18.128   3.975
43051W        W47119   9.363  16.118   7.117
43052W        W47120   7.693  17.085   7.157
43053W        W47121  10.899  15.007   7.109
43054W        W47122  10.617  15.935   5.730
43055W        W47123   8.925  18.065   7.207
43056W        W47124   8.780  14.694   3.934
43057W        W47125  10.319  17.293   3.877
43058W        W47126   8.088  15.386   6.763
43059W        W47127   8.522  17.380   6.625
43060W        W47128  10.648  15.371   6.423
43061W        W47129   9.859  18.030   4.391
43062W        W47130  10.098  16.649   5.758
43063W        W47131   8.348  15.065   6.425
43064W        W47132   8.817  16.134   7.182
43065W        W47133   8.320  17.313   4.376
43066W        W47134  10.075  16.811   4.640
43067W        W47135   7.843  15.437   6.364
43068W        W47136   9.172  17.499   4.828
43069W        W47137  10.922  16.059   5.009
43070W        W47138   9.144  14.692   6.728
43071W        W47139   9.924  17.397   5.807
43072W        W47140  10.227  17.741   5.515
43073W        W47141   9.446  17.543   3.943
43074W        W47142   7.456  17.435   6.785
43075W        W47143   8.199  15.427   6.023
43076W        W47144   8.169  14.775   5.133
43077W        W47145   9.790  15.617   5.825
43078W        W47146   8.588  16.788   4.025
43079W        W47147  10.586  16.730   5.524
43080W        W47148   7.913  17.488   6.947
43081W        W47149  10.300  18.170   4.744
43082W        W47150   8.399  15.190   5.189
43083W        W47151   8.168  16.683   5.279
43084W        W47152   8.481  18.094   6.029
43085W        W47153  10.548  18.190   7.061
43086W        W47154   9.707  16.378   5.994
43087W        W47155   7.556  16.176   3.909
43088W        W47156  10.690  17.834   4.606
43089W        W47157  10.527  15.158   4.225
43090W        W47158   8.666  14.677   6.628
43091W        W47159  10.372  17.479   5.086
43092W        W47160  10.401  16.035   4.991
43093W        W47161   8.518  15.708   5.207
43094W        W47162   8.763  15.970   6.531
43095W        W47163   9.874  17.123   6.394
43096W        W47164   8.524  15.577   6.506
43097W        W47165   8.503  18.043   5.122
43098W        W47166   7.820  18.002   6.756
43099W        W47167   7.932  17.363   3.886
43100W        W47168  10.449  17.121   4.696
43101W        W47169   8.053  15.913   6.582
43102W        W47170  10.826  15.843   4.063
43103W        W47171   8.571  16.900   4.534
43104W        W47172   9.670  16.282   6.615
43105W        W47173   9.561  15.910   6.159
43106W        W47174   8.121  16.282   6.188
43107W        W47175  10.331  18.170   6.017
43108W        W47176  10.122  14.804   7.011
43109W        W47177   7.786  14.954   6.598
43110W        W47178   8.125  15.977   5.651
43111W        W47179   8.494  15.791   3.773
43112W        W47180   7.297  17.550   6.318
43113W        W47181   8.882  16.259   5.761
43114W        W47182   8.705  15.284   3.866
43115W        W47183   7.840  16.100   4.647
43116W        W47184   7.611  17.952   6.084
43117W        W47185  10.406  16.178   4.192
43118W        W47186  10.501  15.094   6.878
43119W        W47187   9.937  17.303   4.841
43120W        W47188   7.535  16.227   7.018
43121W        W47189  10.501  14.691   4.314
43122W        W47190  10.021  17.166   4.325
43123W        W47191   8.923  16.224   4.410
43124W        W47192  10.110  15.028   3.933
43125W        W47193  10.175  15.635   6.119
43126W        W47194   7.884  16.228   5.326
43127W        W47195   8.178  17.167   4.975
43128W        W47196   9.941  15.787   4.940
43129W        W47197   8.964  15.166   5.636
43130W        W47198  10.926  17.077   6.147
43131W        W47199  10.844  15.064   5.708
43132W        W47200   7.383  17.894   5.084
43133W        W47201   7.892  17.081   4.620
43134W        W47202   7.807  14.698   7.173
43135W        W47203   8.926  17.551   7.275
43136W        W47204  10.681  16.519   5.065
43137W        W47205  10.035  16.696   3.945
43138W        W47206   9.330  18.217   6.157
43139W        W47207  10.187  16.939   7.194
43140W        W47208   9.002  14.649   4.474
43141W        W47209   9.715  15.518   5.333
43142W        W47210   7.401  17.105   5.665
43143W        W47211   8.654  15.067   4.306
43144W        W47212   8.458  16.551   7.155
43145W        W47213   9.452  15.532   4.869
43146W        W47214   9.657  16.942   5.991
43147W        W47215   7.811  17.547   6.426
43148W        W47216   8.402  17.530   7.149
43149W        W47217   8.253  15.327   4.163
43150W        W47218   9.770  15.469   4.488
43151W        W47219   9.728  17.577   6.725
43152W        W47220   8.413  16.169   5.324
43153W        W47221   8.068  17.867   6.189
43154W        W47222  10.813  17.984   3.790
43155W        W47223   7.676  16.656   6.786
43156W        W47224   9.671  16.918   5.474
43157W        W47225   8.107  16.567   4.716
43158W        W47226   8.478  17.574   6.111
43159W        W47227   8.856  14.993   5.152
43160W        W47228   7.467  16.977   4.082
43161W        W47229   8.986  15.928   3.952
43162W        W47230   7.632  16.477   4.971
43163W        W47231   8.922  15.119   6.435
43164W        W47232  10.594  14.828   3.862
43165W        W47233  10.687  16.574   6.961
43166W        W47234   9.341  17.831   7.113
43167W        W47235  10.899  16.925   6.635
43168W        W47236  10.307  17.723   7.246
43169W        W47237   8.046  18.179   5.724
43170W        W47238  10.905  16.801   4.598
43171W        W47239   9.435  16.068   5.111
43172W        W47240   9.202  14.680   5.001
43173W        W47241   8.261  17.664   4.838
43174W        W47242   8.760  15.405   6.063
43175W        W47243   8.460  14.774   5.532
43176W        W47244   7.523  17.596   4.080
43177W        W47245   9.339  16.960   4.798
43178W        W47246   8.214  17.755   6.677
43179W        W47247   7.691  16.578   4.373
43180W        W47248   7.576  15.121   5.372
43181W        W47249   9.124  17.086   5.429
43182W        W47250   7.376  14.940   4.449
43183W        W47251  10.040  16.146   6.376
43184W        W47252   9.917  15.532   3.948
43185W        W47253  10.434  17.204   5.596
43186W        W47254   9.095  17.688   5.427
43187W        W47255   8.507  17.792   4.338
43188W        W47256   9.789  14.695   3.768
43189W        W47257   7.589  17.955   5.509
43190W        W47258   9.786  15.713   7.144
43191W        W47259   7.769  15.243   7.143
43192W        W47260   7.500  15.843   4.476
43193W        W47261   8.191  15.832   4.201
43194W        W47262   9.954  16.159   7.018
43195W        W47263   8.297  16.440   5.727
43196W        W47264   9.771  14.726   4.847
43197W        W47265   8.902  18.157   5.350
43198W        W47266  10.116  17.619   6.287
43199W        W47267   9.700  17.768   5.398
43200W        W47268   9.719  16.748   4.992
43201W        W47269   9.181  14.973   4.063
43202W        W47270  10.862  14.601   4.785
43203W        W47271   8.550  16.236   3.948
43204W        W47272  10.716  15.573   4.938
43205W        W47273   9.408  16.743   3.815
43206W        W47274  10.344  16.943   6.563
43207W        W47275   9.998  17.644   4.030
43208W        W47276   8.613  15.319   6.936
43209W        W47277   8.433  15.903   6.177
43210W        W47278  10.525  17.398   6.454
43211W        W47279   9.625  15.348   6.831
43212W        W47280   7.469  15.819   6.608
43213W        W47281   9.229  16.296   6.334
43214W        W47282   7.586  17.054   4.991
43215W        W47283   7.733  16.351   5.881
43216W        W47284  10.050  16.637   6.231
43217W        W47285   9.822  18.017   7.042
43218W        W47286   9.718  15.756   6.595
43219W        W47287   9.995  17.810   5.000
43220W        W47288   8.997  17.530   6.323
43221W        W47289   8.482  17.885   5.592
43222W        W47290  10.287  17.056   6.011
43223W        W47291   9.337  17.128   7.148
43224W        W47292   7.942  17.081   5.487
43225W        W47293  10.288  16.840   5.132
43226W        W47294   9.929  17.906   5.883
43227W        W47295   7.907  17.635   5.753
43228W        W47296   8.928  15.687   6.963
43229W        W47297   9.379  17.853   4.474
43230W        W47298   8.687  17.108   7.112
43231W        W47299   8.813  17.346   4.489
43232W        W47300   8.034  16.086   3.748
43233W        W47301   7.373  18.172  10.648
43234W        W47302   7.749  17.065  10.171
43235W        W47303  10.454  16.795   7.941
43236W        W47304  10.584  17.880   9.968
43237W        W47305   8.502  17.871   7.494
43238W        W47306   8.585  16.023   8.477
43239W        W47307   8.100  15.871   8.641
43240W        W47308   9.091  16.686   8.075
43241W        W47309   8.766  17.778  10.430
43242W        W47310   7.415  15.339  10.393
43243W        W47311   8.177  14.619  10.195
43244W        W47312   9.871  15.007   9.082
43245W        W47313   9.520  15.878   7.652
43246W        W47314  10.090  15.312  10.743
43247W        W47315   7.456  15.104   9.868
43248W        W47316   7.555  17.723  10.889
43249W        W47317   9.077  17.113   7.621
43250W        W47318   7.509  15.896   9.314
43251W        W47319   8.402  15.787  10.551
43252W        W47320  10.861  15.646   9.050
43253W        W47321  10.625  16.689   9.909
43254W        W47322   8.933  16.022   8.936
43255W        W47323   9.479  17.361   9.305
43256W        W47324   7.979  16.795   9.537
43257W        W47325   7.338  16.323   9.108
43258W        W47326   8.374  16.295  10.300
43259W        W47327  10.645  16.078  10.554
43260W        W47328   8.261  17.522   8.999
43261W        W47329   9.382  17.211  10.133
43262W        W47330   8.602  15.851   9.358
43263W        W47331   8.894  16.635   9.001
43264W        W47332   9.891  17.408  10.849
43265W        W47333   8.970  16.728  10.859
43266W        W47334   8.951  16.444  10.337
43267W        W47335   7.360  15.835  10.859
43268W        W47336  10.192  17.370  10.458
43269W        W47337   7.773  14.952   8.456
43270W        W47338   8.300  17.210   9.455
43271W        W47339  10.763  16.993   8.745
43272W        W47340  10.176  15.393   9.312
43273W        W47341  10.461  15.346   7.407
43274W        W47342  10.926  16.147   9.713
43275W        W47343   8.893  17.854   9.466
43276W        W47344  10.667  17.320   7.904
43277W        W47345   8.189  18.152   8.334
43278W        W47346   7.986  14.906   9.760
43279W        W47347  10.609  15.924  10.035
43280W        W47348  10.014  16.346   8.494
43281W        W47349   9.980  16.034   7.521
43282W        W47350   9.188  17.178   9.661
43283W        W47351   8.994  15.508   8.860
43284W        W47352   9.594  17.595   9.854
43285W        W47353  10.465  16.386   8.276
43286W        W47354   9.367  15.044   8.292
43287W        W47355   7.395  15.237   8.574
43288W        W47356  10.181  15.844   9.048
43289W        W47357   7.639  17.461   8.963
43290W        W47358   8.980  17.811   7.833
43291W        W47359  10.372  15.837   7.297
43292W        W47360   7.395  17.595   9.461
43293W        W47361   8.186  17.167   9.941
43294W        W47362   8.559  16.527   8.560
43295W        W47363   8.581  14.932   9.653
43296W        W47364  10.810  14.694   8.950
43297W        W47365   8.029  16.566   7.418
43298W        W47366   7.684  15.599   7.597
43299W        W47367   7.746  17.555   8.391
43300W        W47368   8.877  17.038   8.639
43301W        W47369  10.209  17.897  10.353
43302W        W47370   9.135  15.539   8.037
43303W        W47371  10.518  17.937   8.809
43304W        W47372  10.195  15.790  10.407
43305W        W47373  10.908  17.446   8.541
43306W        W47374   9.535  16.738  10.025
43307W        W47375   7.301  16.289   8.231
43308W        W47376   8.412  16.704   9.804
43309W        W47377   9.616  15.968   8.182
43310W        W47378   9.493  16.458   8.286
43311W        W47379   7.836  15.878   9.760
43312W        W47380   7.821  15.754  10.682
43313W        W47381   7.711  14.671   8.841
43314W        W47382   9.479  15.018   9.402
43315W        W47383   9.127  15.203  10.565
43316W        W47384   9.482  15.352   7.743
43317W        W47385  10.665  17.745  10.497
43318W        W47386   9.632  14.826  10.536
43319W        W47387  10.651  17.127  10.658
43320W        W47388  10.081  15.294  10.254
43321W        W47389   9.881  15.232   8.524
43322W        W47390  10.274  16.366  10.928
43323W        W47391   8.014  17.942   8.914
43324W        W47392   8.672  15.659   7.900
43325W        W47393   8.241  14.943  10.564
43326W        W47394  10.293  15.427   8.245
43327W        W47395  10.660  15.909   8.190
43328W        W47396   8.403  18.126  10.661
43329W        W47397   8.329  14.662   7.896
43330W        W47398  10.650  15.196   8.931
43331W        W47399  10.800  17.445   7.376
43332W        W47400   7.707  16.648   9.078
43333W        W47401   9.624  15.235   7.308
43334W        W47402  10.758  17.567   9.028
43335W        W47403  10.797  14.761   9.778
43336W        W47404   9.242  15.973  10.332
43337W        W47405   9.335  17.312   8.035
43338W        W47406   9.735  16.606  10.775
43339W        W47407   9.409  14.583   9.084
43340W        W47408   8.021  15.486   9.147
43341W        W47409   7.575  16.686   9.921
43342W        W47410   9.434  17.879   8.627
43343W        W47411  10.628  15.476   9.499
43344W        W47412   9.265  17.823  10.266
43345W        W47413  10.608  16.882   7.471
43346W        W47414   9.043  16.365   8.532
43347W        W47415  10.895  14.876  10.273
43348W        W47416   9.044  16.711   9.867
43349W        W47417   9.261  15.597   9.312
43350W        W47418  10.113  15.895   8.150
43351W        W47419  10.400  15.628   7.792
43352W        W47420  10.209  17.668   8.181
43353W        W47421  10.043  17.271   8.977
43354W        W47422   9.939  16.350   7.955
43355W        W47423   9.372  16.560   8.941
43356W        W47424  10.253  16.348   9.008
43357W        W47425   7.628  15.363   9.432
43358W        W47426  10.406  16.415  10.259
43359W        W47427  10.757  18.033   9.405
43360W        W47428   8.687  17.477   8.807
43361W        W47429   9.694  18.010  10.131
43362W        W47430   9.688  15.340   9.895
43363W        W47431   8.895  18.048   9.956
43364W        W47432  10.592  15.002   8.422
43365W        W47433  10.383  16.321   9.723
43366W        W47434   7.366  15.642   9.761
43367W        W47435  10.226  15.437   8.779
43368W        W47436  10.637  15.588  10.556
43369W        W47437   9.522  17.287   8.774
43370W        W47438   8.778  17.878   8.387
43371W        W47439   7.893  15.058   7.645
43372W        W47440   8.997  14.712   9.455
43373W        W47441   8.025  17.832   7.303
43374W        W47442   8.399  16.298   8.054
43375W        W47443   9.053  16.927  10.367
43376W        W47444   8.883  15.285   8.357
43377W        W47445  10.239  14.882   8.785
43378W        W47446   9.959  18.164   9.113
43379W        W47447   9.371  17.812   9.453
43380W        W47448   8.767  16.849   9.414
43381W        W47449  10.537  17.572   9.540
43382W        W47450   8.231  15.075   8.309
43383W        W47451   8.753  17.372   9.269
43384W        W47452   8.236  15.303   7.334
43385W        W47453   9.037  15.912   9.728
43386W        W47454   9.885  14.778   9.598
43387W        W47455   7.305  16.621   9.483
43388W        W47456   9.009  16.439   7.641
43389W        W47457   8.277  14.754   7.411
43390W        W47458   9.015  15.835   8.462
43391W        W47459   9.985  14.811  10.161
43392W        W47460   8.573  16.823  10.270
43393W        W47461   9.377  16.605  10.487
43394W        W47462   9.994  16.635  10.380
43395W        W47463   9.278  14.775  10.885
43396W        W47464   8.500  15.391   9.278
43397W        W47465   7.926  15.347   8.676
43398W        W47466   7.712  18.059   8.352
43399W        W47467   9.044  17.389  10.477
43400W        W47468   8.079  16.874   7.836
43401W        W47469   9.759  16.259   9.057
43402W        W47470  10.039  16.058   9.456
43403W        W47471   9.244  16.732   9.390
43404W        W47472   9.714  17.106   7.522
43405W        W47473   9.386  15.127   8.850
43406W        W47474  10.865  15.405   8.118
43407W        W47475   7.776  17.220   9.681
43408W        W47476   9.242  15.336   9.719
43409W        W47477   8.605  17.359   7.568
43410W        W47478  10.510  17.741   7.754
43411W        W47479   9.485  16.394   7.768
43412W        W47480   8.328  15.585   8.285
43413W        W47481   9.160  15.495   7.337
43414W        W47482   9.744  17.060  10.515
43415W        W47483  10.097  14.966   8.132
43416W        W47484   7.427  14.814   7.580
43417W        W47485   8.713  17.133   9.870
43418W        W47486   8.512  17.049   8.962
43419W        W47487   8.254  17.001   7.360
43420W        W47488   7.495  17.242   8.128
43421W        W47489   7.999  16.312  10.570
43422W        W47490   8.703  14.872  10.756
43423W        W47491   9.412  15.014  10.112
43424W        W47492   8.607  14.782   8.393
43425W        W47493   9.666  14.859   7.898
43426W        W47494   7.611  14.791   9.475
43427W        W47495   7.659  15.754   8.845
43428W        W47496  10.348  14.862   9.251
43429W        W47497   7.770  15.360   8.065
43430W        W47498  10.341  15.048   9.681
43431W        W47499  10.737  16.251   7.366
43432W        W47500   8.029  15.009   9.185
43433W        W47501   9.143  15.581  10.125
43434W        W47502   7.291  15.271   7.603
43435W        W47503   8.077  16.660  10.164
43436W        W47504   9.435  16.058   9.343
43437W        W47505   9.302  18.137   7.639
43438W        W47506   7.448  16.644   7.336
43439W        W47507   8.183  17.055  10.462
43440W        W47508   7.704  16.222  10.093
43441W        W47509   8.695  16.327   9.887
43442W        W47510  10.463  14.686  10.149
43443W        W47511  10.861  16.296  10.140
43444W        W47512  10.849  16.496   7.826
43445W        W47513   9.712  16.828   7.925
43446W        W47514  10.186  18.128   7.620
43447W        W47515   9.363  16.118  10.762
43448W        W47516   7.693  17.085  10.802
43449W        W47517  10.899  15.007  10.754
43450W        W47518  10.617  15.935   9.375
43451W        W47519   8.925  18.065  10.852
43452W        W47520   8.780  14.694   7.579
43453W        W47521  10.319  17.293   7.522
43454W        W47522   8.088  15.386  10.408
43455W        W47523   8.522  17.380  10.270
43456W        W47524  10.648  15.371  10.068
43457W        W47525   9.859  18.030   8.036
43458W        W47526  10.098  16.649   9.403
43459W        W47527   8.348  15.065  10.070
43460W        W47528   8.817  16.134  10.827
43461W        W47529   8.320  17.313   8.021
43462W        W47530  10.075  16.811   8.285
43463W        W47531   7.843  15.437  10.009
43464W        W47532   9.172  17.499   8.473
43465W        W47533  10.922  16.059   8.654
43466W        W47534   9.144  14.692  10.373
43467W        W47535   9.924  17.397   9.452
43468W        W47536  10.227  17.741   9.160
43469W        W47537   9.446  17.543   7.588
43470W        W47538   7.456  17.435  10.430
43471W        W47539   8.199  15.427   9.668
43472W        W47540   8.169  14.775   8.778
43473W        W47541   9.790  15.617   9.470
43474W        W47542   8.588  16.788   7.670
43475W        W47543  10.586  16.730   9.169
43476W        W47544   7.913  17.488  10.592
43477W        W47545  10.300  18.170   8.389
43478W        W47546   8.399  15.190   8.834
43479W        W47547   8.168  16.683   8.924
43480W        W47548   8.481  18.094   9.674
43481W        W47549  10.548  18.190  10.706
43482W        W47550   9.707  16.378   9.639
43483W        W47551   7.556  16.176   7.554
43484W        W47552  10.690  17.834   8.251
43485W        W47553  10.527  15.158   7.870
43486W        W47554   8.666  14.677  10.273
43487W        W47555  10.372  17.479   8.731
43488W        W47556  10.401  16.035   8.636
43489W        W47557   8.518  15.708   8.852
43490W        W47558   8.763  15.970  10.176
43491W        W47559   9.874  17.123  10.039
43492W        W47560   8.524  15.577  10.151
43493W        W47561   8.503  18.043   8.767
43494W        W47562   7.820  18.002  10.401
43495W        W47563   7.932  17.363   7.531
43496W        W47564  10.449  17.121   8.341
43497W        W47565   8.053  15.913  10.227
43498W        W47566  10.826  15.843   7.708
43499W        W47567   8.571  16.900   8.179
43500W        W47568   9.670  16.282  10.260
43501W        W47569   9.561  15.910   9.804
43502W        W47570   8.121  16.282   9.833
43503W        W47571  10.331  18.170   9.662
43504W        W47572  10.122  14.804  10.656
43505W        W47573   7.786  14.954  10.243
43506W        W47574   8.125  15.977   9.296
43507W        W47575   8.494  15.791   7.418
43508W        W47576   7.297  17.550   9.963
43509W        W47577   8.882  16.259   9.406
43510W        W47578   8.705  15.284   7.511
43511W        W47579   7.840  16.100   8.292
43512W        W47580   7.611  17.952   9.729
43513W        W47581  10.406  16.178   7.837
43514W        W47582  10.501  15.094  10.523
43515W        W47583   9.937  17.303   8.486
43516W        W47584   7.535  16.227  10.663
43517W        W47585  10.501  14.691   7.959
43518W        W47586  10.021  17.166   7.970
43519W        W47587   8.923  16.224   8.055
43520W        W47588  10.110  15.028   7.578
43521W        W47589  10.175  15.635   9.764
43522W        W47590   7.884  16.228   8.971
43523W        W47591   8.178  17.167   8.620
43524W        W47592   9.941  15.787   8.585
43525W        W47593   8.964  15.166   9.281
43526W        W47594  10.926  17.077   9.792
43527W        W47595  10.844  15.064   9.353
43528W        W47596   7.892  17.081   8.265
43529W        W47597   7.807  14.698  10.818
43530W        W47598   8.926  17.551  10.920
43531W        W47599  10.681  16.519   8.710
43532W        W47600  10.035  16.696   7.590
43533W        W47601   9.330  18.217   9.802
43534W        W47602  10.187  16.939  10.839
43535W        W47603   9.002  14.649   8.119
43536W        W47604   9.715  15.518   8.978
43537W        W47605   7.401  17.105   9.310
43538W        W47606   8.654  15.067   7.951
43539W        W47607   8.458  16.551  10.800
43540W        W47608   9.452  15.532   8.514
43541W        W47609   9.657  16.942   9.636
43542W        W47610   7.811  17.547  10.071
43543W        W47611   8.402  17.530  10.794
43544W        W47612   8.253  15.327   7.808
43545W        W47613   9.770  15.469   8.133
43546W        W47614   9.728  17.577  10.370
43547W        W47615   8.413  16.169   8.969
43548W        W47616   8.068  17.867   9.834
43549W        W47617  10.813  17.984   7.435
43550W        W47618   7.676  16.656  10.431
43551W        W47619   9.671  16.918   9.119
43552W        W47620   8.107  16.567   8.361
43553W        W47621   8.478  17.574   9.756
43554W        W47622   8.856  14.993   8.797
43555W        W47623   7.467  16.977   7.727
43556W        W47624   8.986  15.928   7.597
43557W        W47625   7.632  16.477   8.616
43558W        W47626   8.922  15.119  10.080
43559W        W47627  10.594  14.828   7.507
43560W        W47628  10.687  16.574  10.606
43561W        W47629   9.341  17.831  10.758
43562W        W47630  10.899  16.925  10.280
43563W        W47631  10.307  17.723  10.891
43564W        W47632   8.046  18.179   9.369
43565W        W47633  10.905  16.801   8.243
43566W        W47634   9.435  16.068   8.756
43567W        W47635   9.202  14.680   8.646
43568W        W47636   8.261  17.664   8.483
43569W        W47637   8.760  15.405   9.708
43570W        W47638   8.460  14.774   9.177
43571W        W47639   9.339  16.960   8.443
43572W        W47640   8.214  17.755  10.322
43573W        W47641   7.691  16.578   8.018
43574W        W47642   7.576  15.121   9.017
43575W        W47643   9.124  17.086   9.074
43576W        W47644   7.376  14.940   8.094
43577W        W47645  10.040  16.146  10.021
43578W        W47646   9.917  15.532   7.593
43579W        W47647  10.434  17.204   9.241
43580W        W47648   9.095  17.688   9.072
43581W        W47649   8.507  17.792   7.983
43582W        W47650   9.789  14.695   7.413
43583W        W47651   7.589  17.955   9.154
43584W        W47652   9.786  15.713  10.789
43585W        W47653   7.769  15.243  10.788
43586W        W47654   7.500  15.843   8.121
43587W        W47655   8.191  15.832   7.846
43588W        W47656   9.954  16.159  10.663
43589W        W47657   8.297  16.440   9.372
43590W        W47658   9.771  14.726   8.492
43591W        W47659   8.902  18.157   8.995
43592W        W47660  10.116  17.619   9.932
43593W        W47661   9.700  17.768   9.043
43594W        W47662   9.719  16.748   8.637
43595W        W47663   9.181  14.973   7.708
43596W        W47664  10.862  14.601   8.430
43597W        W47665   8.550  16.236   7.593
43598W        W47666  10.716  15.573   8.583
43599W        W47667   9.408  16.743   7.460
43600W        W47668  10.344  16.943  10.208
43601W        W47669   9.998  17.644   7.675
43602W        W47670   8.613  15.319  10.581
43603W        W47671   8.433  15.903   9.822
43604W        W47672  10.525  17.398  10.099
43605W        W47673   9.625  15.348  10.476
43606W        W47674   7.469  15.819  10.253
43607W        W47675   9.229  16.296   9.979
43608W        W47676   7.586  17.054   8.636
43609W        W47677   7.733  16.351   9.526
43610W        W47678  10.050  16.637   9.876
43611W        W47679   9.822  18.017  10.687
43612W        W47680   9.718  15.756  10.240
43613W        W47681   9.995  17.810   8.645
43614W        W47682   8.997  17.530   9.968
43615W        W47683   8.482  17.885   9.237
43616W        W47684  10.287  17.056   9.656
43617W        W47685   9.337  17.128  10.793
43618W        W47686   7.942  17.081   9.132
43619W        W47687  10.288  16.840   8.777
43620W        W47688   9.929  17.906   9.528
43621W        W47689   7.907  17.635   9.398
43622W        W47690   8.928  15.687  10.608
43623W        W47691   9.379  17.853   8.119
43624W        W47692   8.687  17.108  10.757
43625W        W47693   8.813  17.346   8.134
43626W        W47694   8.034  16.086   7.393
43627W        W47695   7.373  18.172  14.292
43628W        W47696   7.749  17.065  13.815
43629W        W47697  10.454  16.795  11.585
43630W        W47698  10.584  17.880  13.612
43631W        W47699   8.585  16.023  12.121
43632W        W47700   8.100  15.871  12.285
43633W        W47701   9.091  16.686  11.719
43634W        W47702   8.766  17.778  14.074
43635W        W47703   7.415  15.339  14.037
43636W        W47704   8.177  14.619  13.839
43637W        W47705   9.871  15.007  12.726
43638W        W47706   9.520  15.878  11.296
43639W        W47707  10.090  15.312  14.387
43640W        W47708   7.456  15.104  13.512
43641W        W47709   7.555  17.723  14.533
43642W        W47710   9.077  17.113  11.265
43643W        W47711   7.509  15.896  12.958
43644W        W47712   8.402  15.787  14.195
43645W        W47713  10.861  15.646  12.694
43646W        W47714  10.625  16.689  13.553
43647W        W47715   8.933  16.022  12.580
43648W        W47716   9.479  17.361  12.949
43649W        W47717   7.979  16.795  13.181
43650W        W47718   7.338  16.323  12.752
43651W        W47719   8.374  16.295  13.944
43652W        W47720  10.645  16.078  14.198
43653W        W47721   8.261  17.522  12.643
43654W        W47722   9.382  17.211  13.777
43655W        W47723   8.602  15.851  13.002
43656W        W47724   8.894  16.635  12.645
43657W        W47725   9.891  17.408  14.493
43658W        W47726   8.970  16.728  14.503
43659W        W47727   8.951  16.444  13.981
43660W        W47728   7.360  15.835  14.503
43661W        W47729  10.192  17.370  14.102
43662W        W47730   7.773  14.952  12.100
43663W        W47731   8.300  17.210  13.099
43664W        W47732  10.763  16.993  12.389
43665W        W47733  10.176  15.393  12.956
43666W        W47734  10.461  15.346  11.051
43667W        W47735  10.926  16.147  13.357
43668W        W47736   8.893  17.854  13.110
43669W        W47737  10.667  17.320  11.548
43670W        W47738   7.796  18.106  11.302
43671W        W47739   8.189  18.152  11.978
43672W        W47740   7.986  14.906  13.404
43673W        W47741  10.609  15.924  13.679
43674W        W47742  10.014  16.346  12.138
43675W        W47743   9.980  16.034  11.165
43676W        W47744   9.188  17.178  13.305
43677W        W47745   8.994  15.508  12.504
43678W        W47746   9.594  17.595  13.498
43679W        W47747  10.465  16.386  11.920
43680W        W47748   9.367  15.044  11.936
43681W        W47749   8.024  17.738  11.619
43682W        W47750   7.395  15.237  12.218
43683W        W47751  10.181  15.844  12.692
43684W        W47752   7.639  17.461  12.607
43685W        W47753   8.980  17.811  11.477
43686W        W47754  10.372  15.837  10.941
43687W        W47755   7.395  17.595  13.105
43688W        W47756   8.186  17.167  13.585
43689W        W47757   8.559  16.527  12.204
43690W        W47758   8.581  14.932  13.297
43691W        W47759  10.810  14.694  12.594
43692W        W47760   8.029  16.566  11.062
43693W        W47761   7.684  15.599  11.241
43694W        W47762   7.746  17.555  12.035
43695W        W47763   8.877  17.038  12.283
43696W        W47764  10.209  17.897  13.997
43697W        W47765   9.135  15.539  11.681
43698W        W47766  10.518  17.937  12.453
43699W        W47767  10.195  15.790  14.051
43700W        W47768  10.908  17.446  12.185
43701W        W47769   9.535  16.738  13.669
43702W        W47770   7.301  16.289  11.875
43703W        W47771   8.412  16.704  13.448
43704W        W47772   9.616  15.968  11.826
43705W        W47773   9.493  16.458  11.930
43706W        W47774   7.836  15.878  13.404
43707W        W47775   7.821  15.754  14.326
43708W        W47776   7.711  14.671  12.485
43709W        W47777   9.479  15.018  13.046
43710W        W47778   9.127  15.203  14.209
43711W        W47779   9.482  15.352  11.387
43712W        W47780  10.665  17.745  14.141
43713W        W47781   9.632  14.826  14.180
43714W        W47782  10.651  17.127  14.302
43715W        W47783  10.081  15.294  13.898
43716W        W47784   9.881  15.232  12.168
43717W        W47785  10.274  16.366  14.572
43718W        W47786   8.014  17.942  12.558
43719W        W47787   8.672  15.659  11.544
43720W        W47788   8.241  14.943  14.208
43721W        W47789  10.293  15.427  11.889
43722W        W47790  10.660  15.909  11.834
43723W        W47791   8.403  18.126  14.305
43724W        W47792   8.329  14.662  11.540
43725W        W47793  10.650  15.196  12.575
43726W        W47794  10.800  17.445  11.020
43727W        W47795   7.707  16.648  12.722
43728W        W47796   9.624  15.235  10.952
43729W        W47797  10.758  17.567  12.672
43730W        W47798  10.797  14.761  13.422
43731W        W47799   9.242  15.973  13.976
43732W        W47800   9.335  17.312  11.679
43733W        W47801   9.735  16.606  14.419
43734W        W47802   9.409  14.583  12.728
43735W        W47803   8.021  15.486  12.791
43736W        W47804   7.575  16.686  13.565
43737W        W47805   9.434  17.879  12.271
43738W        W47806  10.628  15.476  13.143
43739W        W47807   9.265  17.823  13.910
43740W        W47808  10.608  16.882  11.115
43741W        W47809   9.043  16.365  12.176
43742W        W47810  10.895  14.876  13.917
43743W        W47811   9.044  16.711  13.511
43744W        W47812   9.261  15.597  12.956
43745W        W47813  10.113  15.895  11.794
43746W        W47814  10.400  15.628  11.436
43747W        W47815  10.209  17.668  11.825
43748W        W47816  10.043  17.271  12.621
43749W        W47817   9.939  16.350  11.599
43750W        W47818   9.372  16.560  12.585
43751W        W47819  10.253  16.348  12.652
43752W        W47820   7.628  15.363  13.076
43753W        W47821  10.406  16.415  13.903
43754W        W47822  10.757  18.033  13.049
43755W        W47823   8.687  17.477  12.451
43756W        W47824   9.694  18.010  13.775
43757W        W47825   9.688  15.340  13.539
43758W        W47826   8.895  18.048  13.600
43759W        W47827  10.592  15.002  12.066
43760W        W47828  10.383  16.321  13.367
43761W        W47829   7.366  15.642  13.405
43762W        W47830  10.226  15.437  12.423
43763W        W47831  10.637  15.588  14.200
43764W        W47832   9.522  17.287  12.418
43765W        W47833   8.778  17.878  12.031
43766W        W47834   7.893  15.058  11.289
43767W        W47835   8.997  14.712  13.099
43768W        W47836   8.025  17.832  10.947
43769W        W47837   8.399  16.298  11.698
43770W        W47838   9.053  16.927  14.011
43771W        W47839   8.883  15.285  12.001
43772W        W47840  10.239  14.882  12.429
43773W        W47841   9.959  18.164  12.757
43774W        W47842   9.371  17.812  13.097
43775W        W47843   8.767  16.849  13.058
43776W        W47844  10.537  17.572  13.184
43777W        W47845   8.231  15.075  11.953
43778W        W47846   8.753  17.372  12.913
43779W        W47847   8.236  15.303  10.978
43780W        W47848   9.037  15.912  13.372
43781W        W47849   9.885  14.778  13.242
43782W        W47850   7.305  16.621  13.127
43783W        W47851   9.009  16.439  11.285
43784W        W47852   8.277  14.754  11.055
43785W        W47853   9.015  15.835  12.106
43786W        W47854   9.985  14.811  13.805
43787W        W47855   8.573  16.823  13.914
43788W        W47856   9.377  16.605  14.131
43789W        W47857   9.994  16.635  14.024
43790W        W47858   9.278  14.775  14.529
43791W        W47859   8.500  15.391  12.922
43792W        W47860   7.926  15.347  12.320
43793W        W47861   7.712  18.059  11.996
43794W        W47862   9.044  17.389  14.121
43795W        W47863   8.079  16.874  11.480
43796W        W47864   9.759  16.259  12.701
43797W        W47865  10.039  16.058  13.100
43798W        W47866   9.244  16.732  13.034
43799W        W47867   9.714  17.106  11.166
43800W        W47868   9.386  15.127  12.494
43801W        W47869  10.865  15.405  11.762
43802W        W47870   7.359  17.994  13.793
43803W        W47871   7.776  17.220  13.325
43804W        W47872   7.343  18.066  11.557
43805W        W47873   9.242  15.336  13.363
43806W        W47874   8.605  17.359  11.212
43807W        W47875  10.510  17.741  11.398
43808W        W47876   9.485  16.394  11.412
43809W        W47877   8.328  15.585  11.929
43810W        W47878   9.160  15.495  10.981
43811W        W47879   9.744  17.060  14.159
43812W        W47880  10.097  14.966  11.776
43813W        W47881   7.427  14.814  11.224
43814W        W47882   8.713  17.133  13.514
43815W        W47883   8.512  17.049  12.606
43816W        W47884   8.254  17.001  11.004
43817W        W47885   7.495  17.242  11.772
43818W        W47886   7.999  16.312  14.214
43819W        W47887   8.703  14.872  14.400
43820W        W47888   9.412  15.014  13.756
43821W        W47889   8.607  14.782  12.037
43822W        W47890   9.666  14.859  11.542
43823W        W47891   7.611  14.791  13.119
43824W        W47892   7.659  15.754  12.489
43825W        W47893  10.348  14.862  12.895
43826W        W47894   7.770  15.360  11.709
43827W        W47895  10.341  15.048  13.325
43828W        W47896  10.737  16.251  11.010
43829W        W47897   8.029  15.009  12.829
43830W        W47898   9.143  15.581  13.769
43831W        W47899   7.291  15.271  11.247
43832W        W47900   8.077  16.660  13.808
43833W        W47901   9.435  16.058  12.987
43834W        W47902   9.302  18.137  11.283
43835W        W47903   7.448  16.644  10.980
43836W        W47904   8.183  17.055  14.106
43837W        W47905   7.704  16.222  13.737
43838W        W47906   8.695  16.327  13.531
43839W        W47907  10.463  14.686  13.793
43840W        W47908  10.861  16.296  13.784
43841W        W47909  10.849  16.496  11.470
43842W        W47910   9.712  16.828  11.569
43843W        W47911  10.186  18.128  11.264
43844W        W47912   9.363  16.118  14.406
43845W        W47913   7.693  17.085  14.446
43846W        W47914  10.899  15.007  14.398
43847W        W47915  10.617  15.935  13.019
43848W        W47916   8.925  18.065  14.496
43849W        W47917   8.780  14.694  11.223
43850W        W47918  10.319  17.293  11.166
43851W        W47919   8.088  15.386  14.052
43852W        W47920   8.522  17.380  13.914
43853W        W47921  10.648  15.371  13.712
43854W        W47922   9.859  18.030  11.680
43855W        W47923  10.098  16.649  13.047
43856W        W47924   8.348  15.065  13.714
43857W        W47925   8.817  16.134  14.471
43858W        W47926   8.320  17.313  11.665
43859W        W47927  10.075  16.811  11.929
43860W        W47928   7.843  15.437  13.653
43861W        W47929   9.172  17.499  12.117
43862W        W47930  10.922  16.059  12.298
43863W        W47931   9.144  14.692  14.017
43864W        W47932   9.924  17.397  13.096
43865W        W47933  10.227  17.741  12.804
43866W        W47934   9.446  17.543  11.232
43867W        W47935   7.456  17.435  14.074
43868W        W47936   8.199  15.427  13.312
43869W        W47937   8.169  14.775  12.422
43870W        W47938   9.790  15.617  13.114
43871W        W47939   8.588  16.788  11.314
43872W        W47940  10.586  16.730  12.813
43873W        W47941   7.913  17.488  14.236
43874W        W47942  10.300  18.170  12.033
43875W        W47943   8.399  15.190  12.478
43876W        W47944   8.168  16.683  12.568
43877W        W47945   8.481  18.094  13.318
43878W        W47946  10.548  18.190  14.350
43879W        W47947   9.707  16.378  13.283
43880W        W47948   7.556  16.176  11.198
43881W        W47949  10.690  17.834  11.895
43882W        W47950  10.527  15.158  11.514
43883W        W47951   8.666  14.677  13.917
43884W        W47952  10.372  17.479  12.375
43885W        W47953  10.401  16.035  12.280
43886W        W47954   8.518  15.708  12.496
43887W        W47955   8.763  15.970  13.820
43888W        W47956   9.874  17.123  13.683
43889W        W47957   8.524  15.577  13.795
43890W        W47958   8.503  18.043  12.411
43891W        W47959   7.820  18.002  14.045
43892W        W47960   7.932  17.363  11.175
43893W        W47961  10.449  17.121  11.985
43894W        W47962   8.053  15.913  13.871
43895W        W47963  10.826  15.843  11.352
43896W        W47964   8.571  16.900  11.823
43897W        W47965   9.670  16.282  13.904
43898W        W47966   9.561  15.910  13.448
43899W        W47967   8.121  16.282  13.477
43900W        W47968  10.331  18.170  13.306
43901W        W47969  10.122  14.804  14.300
43902W        W47970   7.786  14.954  13.887
43903W        W47971   8.125  15.977  12.940
43904W        W47972   8.494  15.791  11.062
43905W        W47973   7.297  17.550  13.607
43906W        W47974   8.882  16.259  13.050
43907W        W47975   8.705  15.284  11.155
43908W        W47976   7.840  16.100  11.936
43909W        W47977   7.611  17.952  13.373
43910W        W47978  10.406  16.178  11.481
43911W        W47979  10.501  15.094  14.167
43912W        W47980   9.937  17.303  12.130
43913W        W47981   7.535  16.227  14.307
43914W        W47982  10.501  14.691  11.603
43915W        W47983  10.021  17.166  11.614
43916W        W47984   8.923  16.224  11.699
43917W        W47985  10.110  15.028  11.222
43918W        W47986  10.175  15.635  13.408
43919W        W47987   7.884  16.228  12.615
43920W        W47988   8.178  17.167  12.264
43921W        W47989   9.941  15.787  12.229
43922W        W47990   8.964  15.166  12.925
43923W        W47991  10.926  17.077  13.436
43924W        W47992  10.844  15.064  12.997
43925W        W47993   7.383  17.894  12.373
43926W        W47994   7.892  17.081  11.909
43927W        W47995   7.807  14.698  14.462
43928W        W47996   8.926  17.551  14.564
43929W        W47997  10.681  16.519  12.354
43930W        W47998  10.035  16.696  11.234
43931W        W47999   9.330  18.217  13.446
43932W        W48000  10.187  16.939  14.483
43933W        W48001   9.002  14.649  11.763
43934W        W48002   9.715  15.518  12.622
43935W        W48003   7.401  17.105  12.954
43936W        W48004   8.654  15.067  11.595
43937W        W48005   8.458  16.551  14.444
43938W        W48006   9.452  15.532  12.158
43939W        W48007   9.657  16.942  13.280
43940W        W48008   7.811  17.547  13.715
43941W        W48009   8.402  17.530  14.438
43942W        W48010   8.253  15.327  11.452
43943W        W48011   9.770  15.469  11.777
43944W        W48012   9.728  17.577  14.014
43945W        W48013   8.413  16.169  12.613
43946W        W48014   8.068  17.867  13.478
43947W        W48015  10.813  17.984  11.079
43948W        W48016   7.676  16.656  14.075
43949W        W48017   9.671  16.918  12.763
43950W        W48018   8.107  16.567  12.005
43951W        W48019   8.478  17.574  13.400
43952W        W48020   8.856  14.993  12.441
43953W        W48021   7.467  16.977  11.371
43954W        W48022   8.986  15.928  11.241
43955W        W48023   7.632  16.477  12.260
43956W        W48024   8.922  15.119  13.724
43957W        W48025  10.594  14.828  11.151
43958W        W48026  10.687  16.574  14.250
43959W        W48027   9.341  17.831  14.402
43960W        W48028  10.899  16.925  13.924
43961W        W48029  10.307  17.723  14.535
43962W        W48030   8.046  18.179  13.013
43963W        W48031  10.905  16.801  11.887
43964W        W48032   9.435  16.068  12.400
43965W        W48033   9.202  14.680  12.290
43966W        W48034   8.261  17.664  12.127
43967W        W48035   8.760  15.405  13.352
43968W        W48036   8.460  14.774  12.821
43969W        W48037   7.523  17.596  11.369
43970W        W48038   9.339  16.960  12.087
43971W        W48039   8.214  17.755  13.966
43972W        W48040   7.691  16.578  11.662
43973W        W48041   7.576  15.121  12.661
43974W        W48042   9.124  17.086  12.718
43975W        W48043   7.376  14.940  11.738
43976W        W48044  10.040  16.146  13.665
43977W        W48045   9.917  15.532  11.237
43978W        W48046  10.434  17.204  12.885
43979W        W48047   9.095  17.688  12.716
43980W        W48048   8.507  17.792  11.627
43981W        W48049   9.789  14.695  11.057
43982W        W48050   7.589  17.955  12.798
43983W        W48051   9.786  15.713  14.433
43984W        W48052   7.769  15.243  14.432
43985W        W48053   7.500  15.843  11.765
43986W        W48054   8.191  15.832  11.490
43987W        W48055   9.954  16.159  14.307
43988W        W48056   8.297  16.440  13.016
43989W        W48057   9.771  14.726  12.136
43990W        W48058   8.902  18.157  12.639
43991W        W48059  10.116  17.619  13.576
43992W        W48060   9.700  17.768  12.687
43993W        W48061   9.719  16.748  12.281
43994W        W48062   9.181  14.973  11.352
43995W        W48063  10.862  14.601  12.074
43996W        W48064   8.550  16.236  11.237
43997W        W48065  10.716  15.573  12.227
43998W        W48066   9.408  16.743  11.104
43999W        W48067  10.344  16.943  13.852
44000W        W48068   9.998  17.644  11.319
44001W        W48069   8.613  15.319  14.225
44002W        W48070   8.433  15.903  13.466
44003W        W48071  10.525  17.398  13.743
44004W        W48072   9.625  15.348  14.120
44005W        W48073   7.469  15.819  13.897
44006W        W48074   9.229  16.296  13.623
44007W        W48075   7.586  17.054  12.280
44008W        W48076   7.733  16.351  13.170
44009W        W48077  10.050  16.637  13.520
44010W        W48078   9.822  18.017  14.331
44011W        W48079   9.718  15.756  13.884
44012W        W48080   9.995  17.810  12.289
44013W        W48081   8.997  17.530  13.612
44014W        W48082   8.482  17.885  12.881
44015W        W48083  10.287  17.056  13.300
44016W        W48084   9.337  17.128  14.437
44017W        W48085   7.942  17.081  12.776
44018W        W48086  10.288  16.840  12.421
44019W        W48087   9.929  17.906  13.172
44020W        W48088   7.907  17.635  13.042
44021W        W48089   8.928  15.687  14.252
44022W        W48090   9.379  17.853  11.763
44023W        W48091   8.687  17.108  14.401
44024W        W48092   8.813  17.346  11.778
44025W        W48093   8.034  16.086  11.037
44026W        W48094   7.373  18.172  17.936
44027W        W48095   7.749  17.065  17.459
44028W        W48096  10.454  16.795  15.229
44029W        W48097  10.584  17.880  17.256
44030W        W48098   8.502  17.871  14.782
44031W        W48099   8.585  16.023  15.765
44032W        W48100   8.100  15.871  15.929
44033W        W48101   9.091  16.686  15.363
44034W        W48102   8.766  17.778  17.718
44035W        W48103   7.415  15.339  17.681
44036W        W48104   8.177  14.619  17.483
44037W        W48105   9.871  15.007  16.370
44038W        W48106   9.520  15.878  14.940
44039W        W48107  10.090  15.312  18.031
44040W        W48108   7.456  15.104  17.156
44041W        W48109   7.555  17.723  18.177
44042W        W48110   9.077  17.113  14.909
44043W        W48111   7.509  15.896  16.602
44044W        W48112   8.402  15.787  17.839
44045W        W48113  10.861  15.646  16.338
44046W        W48114  10.625  16.689  17.197
44047W        W48115   8.933  16.022  16.224
44048W        W48116   9.479  17.361  16.593
44049W        W48117   7.979  16.795  16.825
44050W        W48118   7.338  16.323  16.396
44051W        W48119   8.374  16.295  17.588
44052W        W48120  10.645  16.078  17.842
44053W        W48121   8.261  17.522  16.287
44054W        W48122   9.382  17.211  17.421
44055W        W48123   8.602  15.851  16.646
44056W        W48124   8.894  16.635  16.289
44057W        W48125   9.891  17.408  18.137
44058W        W48126   8.970  16.728  18.147
44059W        W48127   8.951  16.444  17.625
44060W        W48128   7.360  15.835  18.147
44061W        W48129  10.192  17.370  17.746
44062W        W48130   7.773  14.952  15.744
44063W        W48131   8.300  17.210  16.743
44064W        W48132  10.763  16.993  16.033
44065W        W48133  10.176  15.393  16.600
44066W        W48134  10.461  15.346  14.695
44067W        W48135  10.926  16.147  17.001
44068W        W48136   8.893  17.854  16.754
44069W        W48137  10.667  17.320  15.192
44070W        W48138   7.796  18.106  14.946
44071W        W48139   8.189  18.152  15.622
44072W        W48140   7.986  14.906  17.048
44073W        W48141  10.609  15.924  17.323
44074W        W48142  10.014  16.346  15.782
44075W        W48143   9.980  16.034  14.809
44076W        W48144   9.188  17.178  16.949
44077W        W48145   8.994  15.508  16.148
44078W        W48146   9.594  17.595  17.142
44079W        W48147  10.465  16.386  15.564
44080W        W48148   9.367  15.044  15.580
44081W        W48149   8.024  17.738  15.263
44082W        W48150   7.395  15.237  15.862
44083W        W48151  10.181  15.844  16.336
44084W        W48152   7.639  17.461  16.251
44085W        W48153   8.980  17.811  15.121
44086W        W48154  10.372  15.837  14.585
44087W        W48155   7.395  17.595  16.749
44088W        W48156   8.186  17.167  17.229
44089W        W48157   8.559  16.527  15.848
44090W        W48158   8.581  14.932  16.941
44091W        W48159  10.810  14.694  16.238
44092W        W48160   8.029  16.566  14.706
44093W        W48161   7.684  15.599  14.885
44094W        W48162   7.746  17.555  15.679
44095W        W48163   8.877  17.038  15.927
44096W        W48164  10.209  17.897  17.641
44097W        W48165   9.135  15.539  15.325
44098W        W48166  10.518  17.937  16.097
44099W        W48167  10.195  15.790  17.695
44100W        W48168  10.908  17.446  15.829
44101W        W48169   9.535  16.738  17.313
44102W        W48170   8.412  16.704  17.092
44103W        W48171   9.616  15.968  15.470
44104W        W48172   9.493  16.458  15.574
44105W        W48173   7.836  15.878  17.048
44106W        W48174   7.821  15.754  17.970
44107W        W48175   7.711  14.671  16.129
44108W        W48176   9.479  15.018  16.690
44109W        W48177   9.127  15.203  17.853
44110W        W48178   9.482  15.352  15.031
44111W        W48179  10.665  17.745  17.785
44112W        W48180   9.632  14.826  17.824
44113W        W48181  10.651  17.127  17.946
44114W        W48182  10.081  15.294  17.542
44115W        W48183   9.881  15.232  15.812
44116W        W48184  10.274  16.366  18.216
44117W        W48185   8.014  17.942  16.202
44118W        W48186   8.672  15.659  15.188
44119W        W48187   8.241  14.943  17.852
44120W        W48188  10.293  15.427  15.533
44121W        W48189  10.660  15.909  15.478
44122W        W48190   8.403  18.126  17.949
44123W        W48191   8.329  14.662  15.184
44124W        W48192  10.650  15.196  16.219
44125W        W48193  10.800  17.445  14.664
44126W        W48194   7.707  16.648  16.366
44127W        W48195   9.624  15.235  14.596
44128W        W48196  10.758  17.567  16.316
44129W        W48197  10.797  14.761  17.066
44130W        W48198   9.242  15.973  17.620
44131W        W48199   9.335  17.312  15.323
44132W        W48200   9.735  16.606  18.063
44133W        W48201   9.409  14.583  16.372
44134W        W48202   8.021  15.486  16.435
44135W        W48203   7.575  16.686  17.209
44136W        W48204   9.434  17.879  15.915
44137W        W48205  10.628  15.476  16.787
44138W        W48206   9.265  17.823  17.554
44139W        W48207  10.608  16.882  14.759
44140W        W48208   9.043  16.365  15.820
44141W        W48209  10.895  14.876  17.561
44142W        W48210   9.044  16.711  17.155
44143W        W48211   9.261  15.597  16.600
44144W        W48212  10.113  15.895  15.438
44145W        W48213  10.400  15.628  15.080
44146W        W48214  10.209  17.668  15.469
44147W        W48215  10.043  17.271  16.265
44148W        W48216   9.939  16.350  15.243
44149W        W48217   9.372  16.560  16.229
44150W        W48218  10.253  16.348  16.296
44151W        W48219   7.628  15.363  16.720
44152W        W48220  10.406  16.415  17.547
44153W        W48221  10.757  18.033  16.693
44154W        W48222   8.687  17.477  16.095
44155W        W48223   9.694  18.010  17.419
44156W        W48224   9.688  15.340  17.183
44157W        W48225   8.895  18.048  17.244
44158W        W48226  10.592  15.002  15.710
44159W        W48227  10.383  16.321  17.011
44160W        W48228   7.366  15.642  17.049
44161W        W48229  10.226  15.437  16.067
44162W        W48230  10.637  15.588  17.844
44163W        W48231   9.522  17.287  16.062
44164W        W48232   8.778  17.878  15.675
44165W        W48233   7.893  15.058  14.933
44166W        W48234   8.997  14.712  16.743
44167W        W48235   8.025  17.832  14.591
44168W        W48236   8.399  16.298  15.342
44169W        W48237   9.053  16.927  17.655
44170W        W48238   8.883  15.285  15.645
44171W        W48239  10.239  14.882  16.073
44172W        W48240   9.959  18.164  16.401
44173W        W48241   9.371  17.812  16.741
44174W        W48242   8.767  16.849  16.702
44175W        W48243  10.537  17.572  16.828
44176W        W48244   8.231  15.075  15.597
44177W        W48245   8.753  17.372  16.557
44178W        W48246   8.236  15.303  14.622
44179W        W48247   9.037  15.912  17.016
44180W        W48248   9.885  14.778  16.886
44181W        W48249   7.305  16.621  16.771
44182W        W48250   9.009  16.439  14.929
44183W        W48251   8.277  14.754  14.699
44184W        W48252   9.015  15.835  15.750
44185W        W48253   9.985  14.811  17.449
44186W        W48254   8.573  16.823  17.558
44187W        W48255   9.377  16.605  17.775
44188W        W48256   9.994  16.635  17.668
44189W        W48257   9.278  14.775  18.173
44190W        W48258   8.500  15.391  16.566
44191W        W48259   7.926  15.347  15.964
44192W        W48260   7.712  18.059  15.640
44193W        W48261   9.044  17.389  17.765
44194W        W48262   8.079  16.874  15.124
44195W        W48263   9.759  16.259  16.345
44196W        W48264  10.039  16.058  16.744
44197W        W48265   9.244  16.732  16.678
44198W        W48266   9.714  17.106  14.810
44199W        W48267   9.386  15.127  16.138
44200W        W48268  10.865  15.405  15.406
44201W        W48269   7.359  17.994  17.437
44202W        W48270   7.776  17.220  16.969
44203W        W48271   7.343  18.066  15.201
44204W        W48272   9.242  15.336  17.007
44205W        W48273   8.605  17.359  14.856
44206W        W48274  10.510  17.741  15.042
44207W        W48275   9.485  16.394  15.056
44208W        W48276   8.328  15.585  15.573
44209W        W48277   9.160  15.495  14.625
44210W        W48278   9.744  17.060  17.803
44211W        W48279  10.097  14.966  15.420
44212W        W48280   7.427  14.814  14.868
44213W        W48281   8.713  17.133  17.158
44214W        W48282   8.512  17.049  16.250
44215W        W48283   8.254  17.001  14.648
44216W        W48284   7.495  17.242  15.416
44217W        W48285   7.999  16.312  17.858
44218W        W48286   8.703  14.872  18.044
44219W        W48287   9.412  15.014  17.400
44220W        W48288   8.607  14.782  15.681
44221W        W48289   9.666  14.859  15.186
44222W        W48290   7.611  14.791  16.763
44223W        W48291   7.659  15.754  16.133
44224W        W48292  10.348  14.862  16.539
44225W        W48293   7.770  15.360  15.353
44226W        W48294  10.341  15.048  16.969
44227W        W48295  10.737  16.251  14.654
44228W        W48296   8.029  15.009  16.473
44229W        W48297   9.143  15.581  17.413
44230W        W48298   7.291  15.271  14.891
44231W        W48299   8.077  16.660  17.452
44232W        W48300   9.435  16.058  16.631
44233W        W48301   9.302  18.137  14.927
44234W        W48302   7.448  16.644  14.624
44235W        W48303   8.183  17.055  17.750
44236W        W48304   7.704  16.222  17.381
44237W        W48305   8.695  16.327  17.175
44238W        W48306  10.463  14.686  17.437
44239W        W48307  10.861  16.296  17.428
44240W        W48308  10.849  16.496  15.114
44241W        W48309   9.712  16.828  15.213
44242W        W48310  10.186  18.128  14.908
44243W        W48311   9.363  16.118  18.050
44244W        W48312   7.693  17.085  18.090
44245W        W48313  10.899  15.007  18.042
44246W        W48314  10.617  15.935  16.663
44247W        W48315   8.925  18.065  18.140
44248W        W48316   8.780  14.694  14.867
44249W        W48317  10.319  17.293  14.810
44250W        W48318   8.088  15.386  17.696
44251W        W48319   8.522  17.380  17.558
44252W        W48320  10.648  15.371  17.356
44253W        W48321   9.859  18.030  15.324
44254W        W48322  10.098  16.649  16.691
44255W        W48323   8.348  15.065  17.358
44256W        W48324   8.817  16.134  18.115
44257W        W48325   8.320  17.313  15.309
44258W        W48326  10.075  16.811  15.573
44259W        W48327   7.843  15.437  17.297
44260W        W48328   9.172  17.499  15.761
44261W        W48329  10.922  16.059  15.942
44262W        W48330   9.144  14.692  17.661
44263W        W48331   9.924  17.397  16.740
44264W        W48332  10.227  17.741  16.448
44265W        W48333   9.446  17.543  14.876
44266W        W48334   7.456  17.435  17.718
44267W        W48335   8.199  15.427  16.956
44268W        W48336   8.169  14.775  16.066
44269W        W48337   9.790  15.617  16.758
44270W        W48338   8.588  16.788  14.958
44271W        W48339  10.586  16.730  16.457
44272W        W48340   7.913  17.488  17.880
44273W        W48341  10.300  18.170  15.677
44274W        W48342   8.399  15.190  16.122
44275W        W48343   8.168  16.683  16.212
44276W        W48344   8.481  18.094  16.962
44277W        W48345  10.548  18.190  17.994
44278W        W48346   9.707  16.378  16.927
44279W        W48347   7.556  16.176  14.842
44280W        W48348  10.690  17.834  15.539
44281W        W48349  10.527  15.158  15.158
44282W        W48350   8.666  14.677  17.561
44283W        W48351  10.372  17.479  16.019
44284W        W48352  10.401  16.035  15.924
44285W        W48353   8.518  15.708  16.140
44286W        W48354   8.763  15.970  17.464
44287W        W48355   9.874  17.123  17.327
44288W        W48356   8.524  15.577  17.439
44289W        W48357   8.503  18.043  16.055
44290W        W48358   7.820  18.002  17.689
44291W        W48359   7.932  17.363  14.819
44292W        W48360  10.449  17.121  15.629
44293W        W48361   8.053  15.913  17.515
44294W        W48362  10.826  15.843  14.996
44295W        W48363   8.571  16.900  15.467
44296W        W48364   9.670  16.282  17.548
44297W        W48365   9.561  15.910  17.092
44298W        W48366   8.121  16.282  17.121
44299W        W48367  10.331  18.170  16.950
44300W        W48368  10.122  14.804  17.944
44301W        W48369   7.786  14.954  17.531
44302W        W48370   8.125  15.977  16.584
44303W        W48371   8.494  15.791  14.706
44304W        W48372   7.297  17.550  17.251
44305W        W48373   8.882  16.259  16.694
44306W        W48374   8.705  15.284  14.799
44307W        W48375   7.840  16.100  15.580
44308W        W48376   7.611  17.952  17.017
44309W        W48377  10.406  16.178  15.125
44310W        W48378  10.501  15.094  17.811
44311W        W48379   9.937  17.303  15.774
44312W        W48380   7.535  16.227  17.951
44313W        W48381  10.501  14.691  15.247
44314W        W48382  10.021  17.166  15.258
44315W        W48383   8.923  16.224  15.343
44316W        W48384  10.110  15.028  14.866
44317W        W48385  10.175  15.635  17.052
44318W        W48386   7.884  16.228  16.259
44319W        W48387   8.178  17.167  15.908
44320W        W48388   9.941  15.787  15.873
44321W        W48389   8.964  15.166  16.569
44322W        W48390  10.926  17.077  17.080
44323W        W48391  10.844  15.064  16.641
44324W        W48392   7.383  17.894  16.017
44325W        W48393   7.892  17.081  15.553
44326W        W48394   7.807  14.698  18.106
44327W        W48395  10.681  16.519  15.998
44328W        W48396  10.035  16.696  14.878
44329W        W48397   9.330  18.217  17.090
44330W        W48398  10.187  16.939  18.127
44331W        W48399   9.002  14.649  15.407
44332W        W48400   9.715  15.518  16.266
44333W        W48401   7.401  17.105  16.598
44334W        W48402   8.654  15.067  15.239
44335W        W48403   8.458  16.551  18.088
44336W        W48404   9.452  15.532  15.802
44337W        W48405   9.657  16.942  16.924
44338W        W48406   7.811  17.547  17.359
44339W        W48407   8.402  17.530  18.082
44340W        W48408   8.253  15.327  15.096
44341W        W48409   9.770  15.469  15.421
44342W        W48410   9.728  17.577  17.658
44343W        W48411   8.413  16.169  16.257
44344W        W48412   8.068  17.867  17.122
44345W        W48413  10.813  17.984  14.723
44346W        W48414   7.676  16.656  17.719
44347W        W48415   9.671  16.918  16.407
44348W        W48416   8.107  16.567  15.649
44349W        W48417   8.478  17.574  17.044
44350W        W48418   8.856  14.993  16.085
44351W        W48419   7.467  16.977  15.015
44352W        W48420   8.986  15.928  14.885
44353W        W48421   7.632  16.477  15.904
44354W        W48422   8.922  15.119  17.368
44355W        W48423  10.594  14.828  14.795
44356W        W48424  10.687  16.574  17.894
44357W        W48425   9.341  17.831  18.046
44358W        W48426  10.899  16.925  17.568
44359W        W48427  10.307  17.723  18.179
44360W        W48428   8.046  18.179  16.657
44361W        W48429  10.905  16.801  15.531
44362W        W48430   9.435  16.068  16.044
44363W        W48431   9.202  14.680  15.934
44364W        W48432   8.261  17.664  15.771
44365W        W48433   8.760  15.405  16.996
44366W        W48434   8.460  14.774  16.465
44367W        W48435   7.523  17.596  15.013
44368W        W48436   9.339  16.960  15.731
44369W        W48437   8.214  17.755  17.610
44370W        W48438   7.576  15.121  16.305
44371W        W48439   9.124  17.086  16.362
44372W        W48440   7.376  14.940  15.382
44373W        W48441  10.040  16.146  17.309
44374W        W48442   9.917  15.532  14.881
44375W        W48443  10.434  17.204  16.529
44376W        W48444   9.095  17.688  16.360
44377W        W48445   8.507  17.792  15.271
44378W        W48446   9.789  14.695  14.701
44379W        W48447   7.589  17.955  16.442
44380W        W48448   9.786  15.713  18.077
44381W        W48449   7.769  15.243  18.076
44382W        W48450   8.191  15.832  15.134
44383W        W48451   9.954  16.159  17.951
44384W        W48452   8.297  16.440  16.660
44385W        W48453   9.771  14.726  15.780
44386W        W48454   8.902  18.157  16.283
44387W        W48455  10.116  17.619  17.220
44388W        W48456   9.700  17.768  16.331
44389W        W48457   9.719  16.748  15.925
44390W        W48458   9.181  14.973  14.996
44391W        W48459  10.862  14.601  15.718
44392W        W48460   8.550  16.236  14.881
44393W        W48461  10.716  15.573  15.871
44394W        W48462   9.408  16.743  14.748
44395W        W48463  10.344  16.943  17.496
44396W        W48464   9.998  17.644  14.963
44397W        W48465   8.613  15.319  17.869
44398W        W48466   8.433  15.903  17.110
44399W        W48467  10.525  17.398  17.387
44400W        W48468   9.625  15.348  17.764
44401W        W48469   7.469  15.819  17.541
44402W        W48470   9.229  16.296  17.267
44403W        W48471   7.586  17.054  15.924
44404W        W48472   7.733  16.351  16.814
44405W        W48473  10.050  16.637  17.164
44406W        W48474   9.822  18.017  17.975
44407W        W48475   9.718  15.756  17.528
44408W        W48476   9.995  17.810  15.933
44409W        W48477   8.997  17.530  17.256
44410W        W48478   8.482  17.885  16.525
44411W        W48479  10.287  17.056  16.944
44412W        W48480   9.337  17.128  18.081
44413W        W48481   7.942  17.081  16.420
44414W        W48482  10.288  16.840  16.065
44415W        W48483   9.929  17.906  16.816
44416W        W48484   7.907  17.635  16.686
44417W        W48485   8.928  15.687  17.896
44418W        W48486   9.379  17.853  15.407
44419W        W48487   8.687  17.108  18.045
44420W        W48488   8.813  17.346  15.422
44421W        W48489   8.034  16.086  14.681
44422W        W48490   7.373  18.172  21.580
44423W        W48491   7.749  17.065  21.103
44424W        W48492  10.454  16.795  18.873
44425W        W48493  10.584  17.880  20.900
44426W        W48494   8.502  17.871  18.426
44427W        W48495   8.585  16.023  19.409
44428W        W48496   8.100  15.871  19.573
44429W        W48497   9.091  16.686  19.007
44430W        W48498   8.766  17.778  21.362
44431W        W48499   7.415  15.339  21.325
44432W        W48500   8.177  14.619  21.127
44433W        W48501   9.871  15.007  20.014
44434W        W48502   9.520  15.878  18.584
44435W        W48503  10.090  15.312  21.675
44436W        W48504   7.456  15.104  20.800
44437W        W48505   7.555  17.723  21.821
44438W        W48506   9.077  17.113  18.553
44439W        W48507   7.509  15.896  20.246
44440W        W48508   8.402  15.787  21.483
44441W        W48509  10.861  15.646  19.982
44442W        W48510  10.625  16.689  20.841
44443W        W48511   8.933  16.022  19.868
44444W        W48512   9.479  17.361  20.237
44445W        W48513   7.979  16.795  20.469
44446W        W48514   7.338  16.323  20.040
44447W        W48515   8.374  16.295  21.232
44448W        W48516  10.645  16.078  21.486
44449W        W48517   8.261  17.522  19.931
44450W        W48518   9.382  17.211  21.065
44451W        W48519   8.602  15.851  20.290
44452W        W48520   8.894  16.635  19.933
44453W        W48521   9.891  17.408  21.781
44454W        W48522   8.970  16.728  21.791
44455W        W48523   8.951  16.444  21.269
44456W        W48524   7.360  15.835  21.791
44457W        W48525  10.192  17.370  21.390
44458W        W48526   7.773  14.952  19.388
44459W        W48527   8.300  17.210  20.387
44460W        W48528  10.763  16.993  19.677
44461W        W48529  10.176  15.393  20.244
44462W        W48530  10.461  15.346  18.339
44463W        W48531  10.926  16.147  20.645
44464W        W48532   8.893  17.854  20.398
44465W        W48533  10.667  17.320  18.836
44466W        W48534   7.796  18.106  18.590
44467W        W48535   8.189  18.152  19.266
44468W        W48536   7.986  14.906  20.692
44469W        W48537  10.609  15.924  20.967
44470W        W48538  10.014  16.346  19.426
44471W        W48539   9.980  16.034  18.453
44472W        W48540   9.188  17.178  20.593
44473W        W48541   8.994  15.508  19.792
44474W        W48542   9.594  17.595  20.786
44475W        W48543  10.465  16.386  19.208
44476W        W48544   9.367  15.044  19.224
44477W        W48545   8.024  17.738  18.907
44478W        W48546   7.395  15.237  19.506
44479W        W48547  10.181  15.844  19.980
44480W        W48548   7.639  17.461  19.895
44481W        W48549  10.372  15.837  18.229
44482W        W48550   7.395  17.595  20.393
44483W        W48551   8.186  17.167  20.873
44484W        W48552   8.559  16.527  19.492
44485W        W48553   8.581  14.932  20.585
44486W        W48554  10.810  14.694  19.882
44487W        W48555   8.029  16.566  18.350
44488W        W48556   7.684  15.599  18.529
44489W        W48557   7.746  17.555  19.323
44490W        W48558   8.877  17.038  19.571
44491W        W48559  10.209  17.897  21.285
44492W        W48560   9.135  15.539  18.969
44493W        W48561  10.518  17.937  19.741
44494W        W48562  10.195  15.790  21.339
44495W        W48563  10.908  17.446  19.473
44496W        W48564   9.535  16.738  20.957
44497W        W48565   7.301  16.289  19.163
44498W        W48566   8.412  16.704  20.736
44499W        W48567   9.616  15.968  19.114
44500W        W48568   9.493  16.458  19.218
44501W        W48569   7.836  15.878  20.692
44502W        W48570   7.821  15.754  21.614
44503W        W48571   7.711  14.671  19.773
44504W        W48572   9.479  15.018  20.334
44505W        W48573   9.127  15.203  21.497
44506W        W48574   9.482  15.352  18.675
44507W        W48575  10.665  17.745  21.429
44508W        W48576   9.632  14.826  21.468
44509W        W48577  10.651  17.127  21.590
44510W        W48578  10.081  15.294  21.186
44511W        W48579   9.881  15.232  19.456
44512W        W48580  10.274  16.366  21.860
44513W        W48581   8.014  17.942  19.846
44514W        W48582   8.672  15.659  18.832
44515W        W48583   8.241  14.943  21.496
44516W        W48584  10.293  15.427  19.177
44517W        W48585  10.660  15.909  19.122
44518W        W48586   8.403  18.126  21.593
44519W        W48587   8.329  14.662  18.828
44520W        W48588  10.650  15.196  19.863
44521W        W48589  10.800  17.445  18.308
44522W        W48590   7.707  16.648  20.010
44523W        W48591   9.624  15.235  18.240
44524W        W48592  10.758  17.567  19.960
44525W        W48593  10.797  14.761  20.710
44526W        W48594   9.242  15.973  21.264
44527W        W48595   9.735  16.606  21.707
44528W        W48596   9.409  14.583  20.016
44529W        W48597   8.021  15.486  20.079
44530W        W48598   7.575  16.686  20.853
44531W        W48599   9.434  17.879  19.559
44532W        W48600  10.628  15.476  20.431
44533W        W48601   9.265  17.823  21.198
44534W        W48602  10.608  16.882  18.403
44535W        W48603   9.043  16.365  19.464
44536W        W48604  10.895  14.876  21.205
44537W        W48605   9.044  16.711  20.799
44538W        W48606   9.261  15.597  20.244
44539W        W48607  10.113  15.895  19.082
44540W        W48608  10.400  15.628  18.724
44541W        W48609  10.209  17.668  19.113
44542W        W48610  10.043  17.271  19.909
44543W        W48611   9.939  16.350  18.887
44544W        W48612   9.372  16.560  19.873
44545W        W48613  10.253  16.348  19.940
44546W        W48614   7.628  15.363  20.364
44547W        W48615  10.406  16.415  21.191
44548W        W48616  10.757  18.033  20.337
44549W        W48617   8.687  17.477  19.739
44550W        W48618   9.694  18.010  21.063
44551W        W48619   9.688  15.340  20.827
44552W        W48620   8.895  18.048  20.888
44553W        W48621  10.592  15.002  19.354
44554W        W48622  10.383  16.321  20.655
44555W        W48623   7.366  15.642  20.693
44556W        W48624  10.226  15.437  19.711
44557W        W48625  10.637  15.588  21.488
44558W        W48626   9.522  17.287  19.706
44559W        W48627   8.778  17.878  19.319
44560W        W48628   7.893  15.058  18.577
44561W        W48629   8.997  14.712  20.387
44562W        W48630   8.025  17.832  18.235
44563W        W48631   8.399  16.298  18.986
44564W        W48632   9.053  16.927  21.299
44565W        W48633   8.883  15.285  19.289
44566W        W48634  10.239  14.882  19.717
44567W        W48635   9.959  18.164  20.045
44568W        W48636   9.371  17.812  20.385
44569W        W48637   8.767  16.849  20.346
44570W        W48638  10.537  17.572  20.472
44571W        W48639   8.231  15.075  19.241
44572W        W48640   8.753  17.372  20.201
44573W        W48641   8.236  15.303  18.266
44574W        W48642   9.037  15.912  20.660
44575W        W48643   9.885  14.778  20.530
44576W        W48644   7.305  16.621  20.415
44577W        W48645   9.009  16.439  18.573
44578W        W48646   8.277  14.754  18.343
44579W        W48647   9.015  15.835  19.394
44580W        W48648   9.985  14.811  21.093
44581W        W48649   8.573  16.823  21.202
44582W        W48650   9.377  16.605  21.419
44583W        W48651   9.994  16.635  21.312
44584W        W48652   9.278  14.775  21.817
44585W        W48653   8.500  15.391  20.210
44586W        W48654   7.926  15.347  19.608
44587W        W48655   7.712  18.059  19.284
44588W        W48656   9.044  17.389  21.409
44589W        W48657   8.079  16.874  18.768
44590W        W48658   9.759  16.259  19.989
44591W        W48659  10.039  16.058  20.388
44592W        W48660   9.244  16.732  20.322
44593W        W48661   9.714  17.106  18.454
44594W        W48662   9.386  15.127  19.782
44595W        W48663  10.865  15.405  19.050
44596W        W48664   7.359  17.994  21.081
44597W        W48665   7.776  17.220  20.613
44598W        W48666   7.343  18.066  18.845
44599W        W48667   9.242  15.336  20.651
44600W        W48668   8.605  17.359  18.500
44601W        W48669  10.510  17.741  18.686
44602W        W48670   9.485  16.394  18.700
44603W        W48671   8.328  15.585  19.217
44604W        W48672   9.160  15.495  18.269
44605W        W48673   9.744  17.060  21.447
44606W        W48674  10.097  14.966  19.064
44607W        W48675   7.427  14.814  18.512
44608W        W48676   8.713  17.133  20.802
44609W        W48677   8.512  17.049  19.894
44610W        W48678   8.254  17.001  18.292
44611W        W48679   7.495  17.242  19.060
44612W        W48680   7.999  16.312  21.502
44613W        W48681   8.703  14.872  21.688
44614W        W48682   9.412  15.014  21.044
44615W        W48683   8.607  14.782  19.325
44616W        W48684   9.666  14.859  18.830
44617W        W48685   7.611  14.791  20.407
44618W        W48686   7.659  15.754  19.777
44619W        W48687  10.348  14.862  20.183
44620W        W48688   7.770  15.360  18.997
44621W        W48689  10.341  15.048  20.613
44622W        W48690  10.737  16.251  18.298
44623W        W48691   8.029  15.009  20.117
44624W        W48692   9.143  15.581  21.057
44625W        W48693   7.291  15.271  18.535
44626W        W48694   8.077  16.660  21.096
44627W        W48695   9.435  16.058  20.275
44628W        W48696   7.448  16.644  18.268
44629W        W48697   8.183  17.055  21.394
44630W        W48698   7.704  16.222  21.025
44631W        W48699   8.695  16.327  20.819
44632W        W48700  10.463  14.686  21.081
44633W        W48701  10.861  16.296  21.072
44634W        W48702  10.849  16.496  18.758
44635W        W48703   9.712  16.828  18.857
44636W        W48704  10.186  18.128  18.552
44637W        W48705   9.363  16.118  21.694
44638W        W48706   7.693  17.085  21.734
44639W        W48707  10.899  15.007  21.686
44640W        W48708  10.617  15.935  20.307
44641W        W48709   8.925  18.065  21.784
44642W        W48710   8.780  14.694  18.511
44643W        W48711  10.319  17.293  18.454
44644W        W48712   8.088  15.386  21.340
44645W        W48713   8.522  17.380  21.202
44646W        W48714  10.648  15.371  21.000
44647W        W48715   9.859  18.030  18.968
44648W        W48716  10.098  16.649  20.335
44649W        W48717   8.348  15.065  21.002
44650W        W48718   8.817  16.134  21.759
44651W        W48719   8.320  17.313  18.953
44652W        W48720  10.075  16.811  19.217
44653W        W48721   7.843  15.437  20.941
44654W        W48722   9.172  17.499  19.405
44655W        W48723  10.922  16.059  19.586
44656W        W48724   9.144  14.692  21.305
44657W        W48725   9.924  17.397  20.384
44658W        W48726  10.227  17.741  20.092
44659W        W48727   7.456  17.435  21.362
44660W        W48728   8.199  15.427  20.600
44661W        W48729   8.169  14.775  19.710
44662W        W48730   9.790  15.617  20.402
44663W        W48731   8.588  16.788  18.602
44664W        W48732  10.586  16.730  20.101
44665W        W48733   7.913  17.488  21.524
44666W        W48734  10.300  18.170  19.321
44667W        W48735   8.399  15.190  19.766
44668W        W48736   8.168  16.683  19.856
44669W        W48737   8.481  18.094  20.606
44670W        W48738  10.548  18.190  21.638
44671W        W48739   9.707  16.378  20.571
44672W        W48740   7.556  16.176  18.486
44673W        W48741  10.690  17.834  19.183
44674W        W48742  10.527  15.158  18.802
44675W        W48743   8.666  14.677  21.205
44676W        W48744  10.372  17.479  19.663
44677W        W48745  10.401  16.035  19.568
44678W        W48746   8.518  15.708  19.784
44679W        W48747   8.763  15.970  21.108
44680W        W48748   9.874  17.123  20.971
44681W        W48749   8.524  15.577  21.083
44682W        W48750   8.503  18.043  19.699
44683W        W48751   7.820  18.002  21.333
44684W        W48752   7.932  17.363  18.463
44685W        W48753  10.449  17.121  19.273
44686W        W48754   8.053  15.913  21.159
44687W        W48755  10.826  15.843  18.640
44688W        W48756   8.571  16.900  19.111
44689W        W48757   9.670  16.282  21.192
44690W        W48758   9.561  15.910  20.736
44691W        W48759   8.121  16.282  20.765
44692W        W48760  10.331  18.170  20.594
44693W        W48761  10.122  14.804  21.588
44694W        W48762   7.786  14.954  21.175
44695W        W48763   8.125  15.977  20.228
44696W        W48764   8.494  15.791  18.350
44697W        W48765   7.297  17.550  20.895
44698W        W48766   8.882  16.259  20.338
44699W        W48767   8.705  15.284  18.443
44700W        W48768   7.840  16.100  19.224
44701W        W48769   7.611  17.952  20.661
44702W        W48770  10.406  16.178  18.769
44703W        W48771  10.501  15.094  21.455
44704W        W48772   9.937  17.303  19.418
44705W        W48773   7.535  16.227  21.595
44706W        W48774  10.501  14.691  18.891
44707W        W48775  10.021  17.166  18.902
44708W        W48776   8.923  16.224  18.987
44709W        W48777  10.110  15.028  18.510
44710W        W48778  10.175  15.635  20.696
44711W        W48779   7.884  16.228  19.903
44712W        W48780   8.178  17.167  19.552
44713W        W48781   9.941  15.787  19.517
44714W        W48782   8.964  15.166  20.213
44715W        W48783  10.926  17.077  20.724
44716W        W48784  10.844  15.064  20.285
44717W        W48785   7.383  17.894  19.661
44718W        W48786   7.892  17.081  19.197
44719W        W48787   7.807  14.698  21.750
44720W        W48788   8.926  17.551  21.852
44721W        W48789  10.681  16.519  19.642
44722W        W48790  10.035  16.696  18.522
44723W        W48791   9.330  18.217  20.734
44724W        W48792  10.187  16.939  21.771
44725W        W48793   9.002  14.649  19.051
44726W        W48794   9.715  15.518  19.910
44727W        W48795   7.401  17.105  20.242
44728W        W48796   8.654  15.067  18.883
44729W        W48797   8.458  16.551  21.732
44730W        W48798   9.452  15.532  19.446
44731W        W48799   9.657  16.942  20.568
44732W        W48800   7.811  17.547  21.003
44733W        W48801   8.402  17.530  21.726
44734W        W48802   8.253  15.327  18.740
44735W        W48803   9.770  15.469  19.065
44736W        W48804   9.728  17.577  21.302
44737W        W48805   8.413  16.169  19.901
44738W        W48806   8.068  17.867  20.766
44739W        W48807  10.813  17.984  18.367
44740W        W48808   7.676  16.656  21.363
44741W        W48809   9.671  16.918  20.051
44742W        W48810   8.107  16.567  19.293
44743W        W48811   8.478  17.574  20.688
44744W        W48812   8.856  14.993  19.729
44745W        W48813   7.467  16.977  18.659
44746W        W48814   8.986  15.928  18.529
44747W        W48815   7.632  16.477  19.548
44748W        W48816   8.922  15.119  21.012
44749W        W48817  10.594  14.828  18.439
44750W        W48818  10.687  16.574  21.538
44751W        W48819   9.341  17.831  21.690
44752W        W48820  10.899  16.925  21.212
44753W        W48821  10.307  17.723  21.823
44754W        W48822   8.046  18.179  20.301
44755W        W48823  10.905  16.801  19.175
44756W        W48824   9.435  16.068  19.688
44757W        W48825   9.202  14.680  19.578
44758W        W48826   8.261  17.664  19.415
44759W        W48827   8.760  15.405  20.640
44760W        W48828   8.460  14.774  20.109
44761W        W48829   7.523  17.596  18.657
44762W        W48830   9.339  16.960  19.375
44763W        W48831   8.214  17.755  21.254
44764W        W48832   7.691  16.578  18.950
44765W        W48833   7.576  15.121  19.949
44766W        W48834   9.124  17.086  20.006
44767W        W48835   7.376  14.940  19.026
44768W        W48836  10.040  16.146  20.953
44769W        W48837   9.917  15.532  18.525
44770W        W48838  10.434  17.204  20.173
44771W        W48839   9.095  17.688  20.004
44772W        W48840   8.507  17.792  18.915
44773W        W48841   9.789  14.695  18.345
44774W        W48842   7.589  17.955  20.086
44775W        W48843   9.786  15.713  21.721
44776W        W48844   7.769  15.243  21.720
44777W        W48845   7.500  15.843  19.053
44778W        W48846   8.191  15.832  18.778
44779W        W48847   9.954  16.159  21.595
44780W        W48848   8.297  16.440  20.304
44781W        W48849   9.771  14.726  19.424
44782W        W48850   8.902  18.157  19.927
44783W        W48851  10.116  17.619  20.864
44784W        W48852   9.700  17.768  19.975
44785W        W48853   9.719  16.748  19.569
44786W        W48854   9.181  14.973  18.640
44787W        W48855  10.862  14.601  19.362
44788W        W48856   8.550  16.236  18.525
44789W        W48857  10.716  15.573  19.515
44790W        W48858   9.408  16.743  18.392
44791W        W48859  10.344  16.943  21.140
44792W        W48860   9.998  17.644  18.607
44793W        W48861   8.613  15.319  21.513
44794W        W48862   8.433  15.903  20.754
44795W        W48863  10.525  17.398  21.031
44796W        W48864   9.625  15.348  21.408
44797W        W48865   7.469  15.819  21.185
44798W        W48866   9.229  16.296  20.911
44799W        W48867   7.586  17.054  19.568
44800W        W48868   7.733  16.351  20.458
44801W        W48869  10.050  16.637  20.808
44802W        W48870   9.822  18.017  21.619
44803W        W48871   9.718  15.756  21.172
44804W        W48872   9.995  17.810  19.577
44805W        W48873   8.997  17.530  20.900
44806W        W48874   8.482  17.885  20.169
44807W        W48875  10.287  17.056  20.588
44808W        W48876   9.337  17.128  21.725
44809W        W48877   7.942  17.081  20.064
44810W        W48878  10.288  16.840  19.709
44811W        W48879   9.929  17.906  20.460
44812W        W48880   7.907  17.635  20.330
44813W        W48881   8.928  15.687  21.540
44814W        W48882   9.379  17.853  19.051
44815W        W48883   8.687  17.108  21.689
44816W        W48884   8.813  17.346  19.066
44817W        W48885   8.034  16.086  18.325
44818W        W48886  10.454  16.795  22.518
44819W        W48887   8.502  17.871  22.071
44820W        W48888   8.585  16.023  23.054
44821W        W48889   8.100  15.871  23.218
44822W        W48890   9.091  16.686  22.652
44823W        W48891   9.520  15.878  22.229
44824W        W48892   9.077  17.113  22.198
44825W        W48893   7.773  14.952  23.033
44826W        W48894  10.461  15.346  21.984
44827W        W48895  10.667  17.320  22.481
44828W        W48896   7.796  18.106  22.235
44829W        W48897   8.189  18.152  22.911
44830W        W48898  10.014  16.346  23.071
44831W        W48899   9.980  16.034  22.098
44832W        W48900  10.465  16.386  22.853
44833W        W48901   9.367  15.044  22.869
44834W        W48902   8.024  17.738  22.552
44835W        W48903   8.980  17.811  22.410
44836W        W48904  10.372  15.837  21.874
44837W        W48905   8.559  16.527  23.137
44838W        W48906   8.029  16.566  21.995
44839W        W48907   7.684  15.599  22.174
44840W        W48908   7.746  17.555  22.968
44841W        W48909   8.877  17.038  23.216
44842W        W48910   9.135  15.539  22.614
44843W        W48911   7.301  16.289  22.808
44844W        W48912   9.616  15.968  22.759
44845W        W48913   9.493  16.458  22.863
44846W        W48914   9.482  15.352  22.320
44847W        W48915   9.881  15.232  23.101
44848W        W48916   8.672  15.659  22.477
44849W        W48917  10.293  15.427  22.822
44850W        W48918  10.660  15.909  22.767
44851W        W48919   8.329  14.662  22.473
44852W        W48920  10.800  17.445  21.953
44853W        W48921   9.624  15.235  21.885
44854W        W48922   9.335  17.312  22.612
44855W        W48923   9.434  17.879  23.204
44856W        W48924  10.608  16.882  22.048
44857W        W48925   9.043  16.365  23.109
44858W        W48926  10.113  15.895  22.727
44859W        W48927  10.400  15.628  22.369
44860W        W48928  10.209  17.668  22.758
44861W        W48929   9.939  16.350  22.532
44862W        W48930  10.592  15.002  22.999
44863W        W48931   8.778  17.878  22.964
44864W        W48932   7.893  15.058  22.222
44865W        W48933   8.025  17.832  21.880
44866W        W48934   8.399  16.298  22.631
44867W        W48935   8.883  15.285  22.934
44868W        W48936   8.231  15.075  22.886
44869W        W48937   8.236  15.303  21.911
44870W        W48938   9.009  16.439  22.218
44871W        W48939   8.277  14.754  21.988
44872W        W48940   9.015  15.835  23.039
44873W        W48941   7.926  15.347  23.253
44874W        W48942   7.712  18.059  22.929
44875W        W48943   8.079  16.874  22.413
44876W        W48944   9.714  17.106  22.099
44877W        W48945  10.865  15.405  22.695
44878W        W48946   7.343  18.066  22.490
44879W        W48947   8.605  17.359  22.145
44880W        W48948  10.510  17.741  22.331
44881W        W48949   9.485  16.394  22.345
44882W        W48950   8.328  15.585  22.862
44883W        W48951   9.160  15.495  21.914
44884W        W48952  10.097  14.966  22.709
44885W        W48953   7.427  14.814  22.157
44886W        W48954   8.254  17.001  21.937
44887W        W48955   7.495  17.242  22.705
44888W        W48956   8.607  14.782  22.970
44889W        W48957   9.666  14.859  22.475
44890W        W48958   7.770  15.360  22.642
44891W        W48959  10.737  16.251  21.943
44892W        W48960   7.291  15.271  22.180
44893W        W48961   9.302  18.137  22.216
44894W        W48962   7.448  16.644  21.913
44895W        W48963  10.849  16.496  22.403
44896W        W48964   9.712  16.828  22.502
44897W        W48965  10.186  18.128  22.197
44898W        W48966   8.780  14.694  22.156
44899W        W48967  10.319  17.293  22.099
44900W        W48968   9.859  18.030  22.613
44901W        W48969   8.320  17.313  22.598
44902W        W48970  10.075  16.811  22.862
44903W        W48971   9.172  17.499  23.050
44904W        W48972  10.922  16.059  23.231
44905W        W48973   9.446  17.543  22.165
44906W        W48974   8.588  16.788  22.247
44907W        W48975  10.300  18.170  22.966
44908W        W48976   7.556  16.176  22.131
44909W        W48977  10.690  17.834  22.828
44910W        W48978  10.527  15.158  22.447
44911W        W48979  10.401  16.035  23.213
44912W        W48980   7.932  17.363  22.108
44913W        W48981  10.449  17.121  22.918
44914W        W48982  10.826  15.843  22.285
44915W        W48983   8.571  16.900  22.756
44916W        W48984   8.494  15.791  21.995
44917W        W48985   8.705  15.284  22.088
44918W        W48986   7.840  16.100  22.869
44919W        W48987  10.406  16.178  22.414
44920W        W48988   9.937  17.303  23.063
44921W        W48989  10.501  14.691  22.536
44922W        W48990  10.021  17.166  22.547
44923W        W48991   8.923  16.224  22.632
44924W        W48992  10.110  15.028  22.155
44925W        W48993   8.178  17.167  23.197
44926W        W48994   9.941  15.787  23.162
44927W        W48995   7.383  17.894  23.306
44928W        W48996   7.892  17.081  22.842
44929W        W48997  10.681  16.519  23.287
44930W        W48998  10.035  16.696  22.167
44931W        W48999   9.002  14.649  22.696
44932W        W49000   8.654  15.067  22.528
44933W        W49001   9.452  15.532  23.091
44934W        W49002   8.253  15.327  22.385
44935W        W49003   9.770  15.469  22.710
44936W        W49004  10.813  17.984  22.012
44937W        W49005   7.467  16.977  22.304
44938W        W49006   8.986  15.928  22.174
44939W        W49007   7.632  16.477  23.193
44940W        W49008  10.594  14.828  22.084
44941W        W49009  10.905  16.801  22.820
44942W        W49010   9.202  14.680  23.223
44943W        W49011   8.261  17.664  23.060
44944W        W49012   7.523  17.596  22.302
44945W        W49013   9.339  16.960  23.020
44946W        W49014   7.691  16.578  22.595
44947W        W49015   7.376  14.940  22.671
44948W        W49016   9.917  15.532  22.170
44949W        W49017   8.507  17.792  22.560
44950W        W49018   9.789  14.695  21.990
44951W        W49019   7.500  15.843  22.698
44952W        W49020   8.191  15.832  22.423
44953W        W49021   9.719  16.748  23.214
44954W        W49022   9.181  14.973  22.285
44955W        W49023  10.862  14.601  23.007
44956W        W49024   8.550  16.236  22.170
44957W        W49025  10.716  15.573  23.160
44958W        W49026   9.408  16.743  22.037
44959W        W49027   9.998  17.644  22.252
44960W        W49028   7.586  17.054  23.213
44961W        W49029   9.995  17.810  23.222
44962W        W49030   9.379  17.853  22.696
44963W        W49031   8.813  17.346  22.711
44964W        W49032   8.034  16.086  21.970
44965W        W49033   7.373  21.816   3.359
44966W        W49034   7.749  20.709   2.882
44967W        W49035  10.454  20.439   0.652
44968W        W49036  10.584  21.524   2.679
44969W        W49037   8.502  21.515   0.205
44970W        W49038   8.585  19.667   1.188
44971W        W49039   8.100  19.515   1.352
44972W        W49040   9.091  20.330   0.786
44973W        W49041   8.766  21.422   3.141
44974W        W49042   7.415  18.983   3.104
44975W        W49043   8.177  18.263   2.906
44976W        W49044   9.871  18.651   1.793
44977W        W49045   9.520  19.522   0.363
44978W        W49046  10.090  18.956   3.454
44979W        W49047   7.456  18.748   2.579
44980W        W49048   7.555  21.367   3.600
44981W        W49049   9.077  20.757   0.332
44982W        W49050   7.509  19.540   2.025
44983W        W49051   8.402  19.431   3.262
44984W        W49052  10.861  19.290   1.761
44985W        W49053  10.625  20.333   2.620
44986W        W49054   8.933  19.666   1.647
44987W        W49055   9.479  21.005   2.016
44988W        W49056   7.979  20.439   2.248
44989W        W49057   7.338  19.967   1.819
44990W        W49058   8.374  19.939   3.011
44991W        W49059  10.645  19.722   3.265
44992W        W49060   8.261  21.166   1.710
44993W        W49061   9.382  20.855   2.844
44994W        W49062   8.602  19.495   2.069
44995W        W49063   8.894  20.279   1.712
44996W        W49064   9.891  21.052   3.560
44997W        W49065   8.970  20.372   3.570
44998W        W49066   8.951  20.088   3.048
44999W        W49067   7.360  19.479   3.570
45000W        W49068  10.192  21.014   3.169
45001W        W49069   7.773  18.596   1.167
45002W        W49070   8.300  20.854   2.166
45003W        W49071  10.763  20.637   1.456
45004W        W49072  10.176  19.037   2.023
45005W        W49073  10.461  18.990   0.118
45006W        W49074  10.926  19.791   2.424
45007W        W49075   8.893  21.498   2.177
45008W        W49076  10.667  20.964   0.615
45009W        W49077   7.796  21.750   0.369
45010W        W49078   8.189  21.796   1.045
45011W        W49079   7.986  18.550   2.471
45012W        W49080  10.609  19.568   2.746
45013W        W49081  10.014  19.990   1.205
45014W        W49082   9.980  19.678   0.232
45015W        W49083   9.188  20.822   2.372
45016W        W49084   8.994  19.152   1.571
45017W        W49085   9.594  21.239   2.565
45018W        W49086  10.465  20.030   0.987
45019W        W49087   9.367  18.688   1.003
45020W        W49088   8.024  21.382   0.686
45021W        W49089   7.395  18.881   1.285
45022W        W49090  10.181  19.488   1.759
45023W        W49091   7.639  21.105   1.674
45024W        W49092   8.980  21.455   0.544
45025W        W49093  10.372  19.481   0.008
45026W        W49094   7.395  21.239   2.172
45027W        W49095   8.186  20.811   2.652
45028W        W49096   8.559  20.171   1.271
45029W        W49097   8.581  18.576   2.364
45030W        W49098  10.810  18.338   1.661
45031W        W49099   8.029  20.210   0.129
45032W        W49100   7.684  19.243   0.308
45033W        W49101   7.746  21.199   1.102
45034W        W49102   8.877  20.682   1.350
45035W        W49103  10.209  21.541   3.064
45036W        W49104   9.135  19.183   0.748
45037W        W49105  10.518  21.581   1.520
45038W        W49106  10.195  19.434   3.118
45039W        W49107  10.908  21.090   1.252
45040W        W49108   9.535  20.382   2.736
45041W        W49109   7.301  19.933   0.942
45042W        W49110   8.412  20.348   2.515
45043W        W49111   9.616  19.612   0.893
45044W        W49112   9.493  20.102   0.997
45045W        W49113   7.836  19.522   2.471
45046W        W49114   7.821  19.398   3.393
45047W        W49115   7.711  18.315   1.552
45048W        W49116   9.479  18.662   2.113
45049W        W49117   9.127  18.847   3.276
45050W        W49118   9.482  18.996   0.454
45051W        W49119  10.665  21.389   3.208
45052W        W49120   9.632  18.470   3.247
45053W        W49121  10.651  20.771   3.369
45054W        W49122  10.081  18.938   2.965
45055W        W49123   9.881  18.876   1.235
45056W        W49124  10.274  20.010   3.639
45057W        W49125   8.014  21.586   1.625
45058W        W49126   8.672  19.303   0.611
45059W        W49127   8.241  18.587   3.275
45060W        W49128  10.293  19.071   0.956
45061W        W49129  10.660  19.553   0.901
45062W        W49130   8.403  21.770   3.372
45063W        W49131   8.329  18.306   0.607
45064W        W49132  10.650  18.840   1.642
45065W        W49133  10.800  21.089   0.087
45066W        W49134   7.707  20.292   1.789
45067W        W49135   9.624  18.879   0.019
45068W        W49136  10.758  21.211   1.739
45069W        W49137  10.797  18.405   2.489
45070W        W49138   9.242  19.617   3.043
45071W        W49139   9.335  20.956   0.746
45072W        W49140   9.735  20.250   3.486
45073W        W49141   9.409  18.227   1.795
45074W        W49142   8.021  19.130   1.858
45075W        W49143   7.575  20.330   2.632
45076W        W49144   9.434  21.523   1.338
45077W        W49145  10.628  19.120   2.210
45078W        W49146   9.265  21.467   2.977
45079W        W49147  10.608  20.526   0.182
45080W        W49148   9.043  20.009   1.243
45081W        W49149  10.895  18.520   2.984
45082W        W49150   9.044  20.355   2.578
45083W        W49151   9.261  19.241   2.023
45084W        W49152  10.113  19.539   0.861
45085W        W49153  10.400  19.272   0.503
45086W        W49154  10.209  21.312   0.892
45087W        W49155  10.043  20.915   1.688
45088W        W49156   9.939  19.994   0.666
45089W        W49157   9.372  20.204   1.652
45090W        W49158  10.253  19.992   1.719
45091W        W49159   7.628  19.007   2.143
45092W        W49160  10.406  20.059   2.970
45093W        W49161  10.757  21.677   2.116
45094W        W49162   8.687  21.121   1.518
45095W        W49163   9.694  21.654   2.842
45096W        W49164   9.688  18.984   2.606
45097W        W49165   8.895  21.692   2.667
45098W        W49166  10.592  18.646   1.133
45099W        W49167  10.383  19.965   2.434
45100W        W49168   7.366  19.286   2.472
45101W        W49169  10.226  19.081   1.490
45102W        W49170  10.637  19.232   3.267
45103W        W49171   9.522  20.931   1.485
45104W        W49172   8.778  21.522   1.098
45105W        W49173   7.893  18.702   0.356
45106W        W49174   8.997  18.356   2.166
45107W        W49175   8.025  21.476   0.014
45108W        W49176   8.399  19.942   0.765
45109W        W49177   9.053  20.571   3.078
45110W        W49178   8.883  18.929   1.068
45111W        W49179  10.239  18.526   1.496
45112W        W49180   9.959  21.808   1.824
45113W        W49181   9.371  21.456   2.164
45114W        W49182   8.767  20.493   2.125
45115W        W49183  10.537  21.216   2.251
45116W        W49184   8.231  18.719   1.020
45117W        W49185   8.753  21.016   1.980
45118W        W49186   8.236  18.947   0.045
45119W        W49187   9.037  19.556   2.439
45120W        W49188   9.885  18.422   2.309
45121W        W49189   7.305  20.265   2.194
45122W        W49190   9.009  20.083   0.352
45123W        W49191   8.277  18.398   0.122
45124W        W49192   9.015  19.479   1.173
45125W        W49193   9.985  18.455   2.872
45126W        W49194   8.573  20.467   2.981
45127W        W49195   9.377  20.249   3.198
45128W        W49196   9.994  20.279   3.091
45129W        W49197   9.278  18.419   3.596
45130W        W49198   8.500  19.035   1.989
45131W        W49199   7.926  18.991   1.387
45132W        W49200   7.712  21.703   1.063
45133W        W49201   9.044  21.033   3.188
45134W        W49202   8.079  20.518   0.547
45135W        W49203   9.759  19.903   1.768
45136W        W49204  10.039  19.702   2.167
45137W        W49205   9.244  20.376   2.101
45138W        W49206   9.714  20.750   0.233
45139W        W49207   9.386  18.771   1.561
45140W        W49208  10.865  19.049   0.829
45141W        W49209   7.359  21.638   2.860
45142W        W49210   7.776  20.864   2.392
45143W        W49211   7.343  21.710   0.624
45144W        W49212   9.242  18.980   2.430
45145W        W49213   8.605  21.003   0.279
45146W        W49214  10.510  21.385   0.465
45147W        W49215   9.485  20.038   0.479
45148W        W49216   8.328  19.229   0.996
45149W        W49217   9.160  19.139   0.048
45150W        W49218   9.744  20.704   3.226
45151W        W49219  10.097  18.610   0.843
45152W        W49220   7.427  18.458   0.291
45153W        W49221   8.713  20.777   2.581
45154W        W49222   8.512  20.693   1.673
45155W        W49223   8.254  20.645   0.071
45156W        W49224   7.495  20.886   0.839
45157W        W49225   7.999  19.956   3.281
45158W        W49226   8.703  18.516   3.467
45159W        W49227   9.412  18.658   2.823
45160W        W49228   8.607  18.426   1.104
45161W        W49229   9.666  18.503   0.609
45162W        W49230   7.611  18.435   2.186
45163W        W49231   7.659  19.398   1.556
45164W        W49232  10.348  18.506   1.962
45165W        W49233   7.770  19.004   0.776
45166W        W49234  10.341  18.692   2.392
45167W        W49235  10.737  19.895   0.077
45168W        W49236   8.029  18.653   1.896
45169W        W49237   9.143  19.225   2.836
45170W        W49238   7.291  18.915   0.314
45171W        W49239   8.077  20.304   2.875
45172W        W49240   9.435  19.702   2.054
45173W        W49241   9.302  21.781   0.350
45174W        W49242   7.448  20.288   0.047
45175W        W49243   8.183  20.699   3.173
45176W        W49244   7.704  19.866   2.804
45177W        W49245   8.695  19.971   2.598
45178W        W49246  10.463  18.330   2.860
45179W        W49247  10.861  19.940   2.851
45180W        W49248  10.849  20.140   0.537
45181W        W49249   9.712  20.472   0.636
45182W        W49250  10.186  21.772   0.331
45183W        W49251   9.363  19.762   3.473
45184W        W49252   7.693  20.729   3.513
45185W        W49253  10.899  18.651   3.465
45186W        W49254  10.617  19.579   2.086
45187W        W49255   8.925  21.709   3.563
45188W        W49256   8.780  18.338   0.290
45189W        W49257  10.319  20.937   0.233
45190W        W49258   8.088  19.030   3.119
45191W        W49259   8.522  21.024   2.981
45192W        W49260  10.648  19.015   2.779
45193W        W49261   9.859  21.674   0.747
45194W        W49262  10.098  20.293   2.114
45195W        W49263   8.348  18.709   2.781
45196W        W49264   8.817  19.778   3.538
45197W        W49265   8.320  20.957   0.732
45198W        W49266  10.075  20.455   0.996
45199W        W49267   7.843  19.081   2.720
45200W        W49268   9.172  21.143   1.184
45201W        W49269  10.922  19.703   1.365
45202W        W49270   9.144  18.336   3.084
45203W        W49271   9.924  21.041   2.163
45204W        W49272  10.227  21.385   1.871
45205W        W49273   9.446  21.187   0.299
45206W        W49274   7.456  21.079   3.141
45207W        W49275   8.199  19.071   2.379
45208W        W49276   8.169  18.419   1.489
45209W        W49277   9.790  19.261   2.181
45210W        W49278   8.588  20.432   0.381
45211W        W49279  10.586  20.374   1.880
45212W        W49280   7.913  21.132   3.303
45213W        W49281  10.300  21.814   1.100
45214W        W49282   8.399  18.834   1.545
45215W        W49283   8.168  20.327   1.635
45216W        W49284   8.481  21.738   2.385
45217W        W49285  10.548  21.834   3.417
45218W        W49286   9.707  20.022   2.350
45219W        W49287   7.556  19.820   0.265
45220W        W49288  10.690  21.478   0.962
45221W        W49289  10.527  18.802   0.581
45222W        W49290   8.666  18.321   2.984
45223W        W49291  10.372  21.123   1.442
45224W        W49292  10.401  19.679   1.347
45225W        W49293   8.518  19.352   1.563
45226W        W49294   8.763  19.614   2.887
45227W        W49295   9.874  20.767   2.750
45228W        W49296   8.524  19.221   2.862
45229W        W49297   8.503  21.687   1.478
45230W        W49298   7.820  21.646   3.112
45231W        W49299   7.932  21.007   0.242
45232W        W49300  10.449  20.765   1.052
45233W        W49301   8.053  19.557   2.938
45234W        W49302  10.826  19.487   0.419
45235W        W49303   8.571  20.544   0.890
45236W        W49304   9.670  19.926   2.971
45237W        W49305   9.561  19.554   2.515
45238W        W49306   8.121  19.926   2.544
45239W        W49307  10.331  21.814   2.373
45240W        W49308  10.122  18.448   3.367
45241W        W49309   7.786  18.598   2.954
45242W        W49310   8.125  19.621   2.007
45243W        W49311   8.494  19.435   0.129
45244W        W49312   7.297  21.194   2.674
45245W        W49313   8.882  19.903   2.117
45246W        W49314   8.705  18.928   0.222
45247W        W49315   7.840  19.744   1.003
45248W        W49316   7.611  21.596   2.440
45249W        W49317  10.406  19.822   0.548
45250W        W49318  10.501  18.738   3.234
45251W        W49319   9.937  20.947   1.197
45252W        W49320   7.535  19.871   3.374
45253W        W49321  10.501  18.335   0.670
45254W        W49322  10.021  20.810   0.681
45255W        W49323   8.923  19.868   0.766
45256W        W49324  10.110  18.672   0.289
45257W        W49325  10.175  19.279   2.475
45258W        W49326   7.884  19.872   1.682
45259W        W49327   8.178  20.811   1.331
45260W        W49328   9.941  19.431   1.296
45261W        W49329   8.964  18.810   1.992
45262W        W49330  10.926  20.721   2.503
45263W        W49331  10.844  18.708   2.064
45264W        W49332   7.383  21.538   1.440
45265W        W49333   7.892  20.725   0.976
45266W        W49334   7.807  18.342   3.529
45267W        W49335   8.926  21.195   3.631
45268W        W49336  10.681  20.163   1.421
45269W        W49337  10.035  20.340   0.301
45270W        W49338   9.330  21.861   2.513
45271W        W49339  10.187  20.583   3.550
45272W        W49340   9.002  18.293   0.830
45273W        W49341   9.715  19.162   1.689
45274W        W49342   7.401  20.749   2.021
45275W        W49343   8.654  18.711   0.662
45276W        W49344   8.458  20.195   3.511
45277W        W49345   9.452  19.176   1.225
45278W        W49346   9.657  20.586   2.347
45279W        W49347   7.811  21.191   2.782
45280W        W49348   8.402  21.174   3.505
45281W        W49349   8.253  18.971   0.519
45282W        W49350   9.770  19.113   0.844
45283W        W49351   9.728  21.221   3.081
45284W        W49352   8.413  19.813   1.680
45285W        W49353   8.068  21.511   2.545
45286W        W49354  10.813  21.628   0.146
45287W        W49355   7.676  20.300   3.142
45288W        W49356   9.671  20.562   1.830
45289W        W49357   8.107  20.211   1.072
45290W        W49358   8.478  21.218   2.467
45291W        W49359   8.856  18.637   1.508
45292W        W49360   7.467  20.621   0.438
45293W        W49361   8.986  19.572   0.308
45294W        W49362   7.632  20.121   1.327
45295W        W49363   8.922  18.763   2.791
45296W        W49364  10.594  18.472   0.218
45297W        W49365  10.687  20.218   3.317
45298W        W49366   9.341  21.475   3.469
45299W        W49367  10.899  20.569   2.991
45300W        W49368  10.307  21.367   3.602
45301W        W49369   8.046  21.823   2.080
45302W        W49370  10.905  20.445   0.954
45303W        W49371   9.435  19.712   1.467
45304W        W49372   9.202  18.324   1.357
45305W        W49373   8.261  21.308   1.194
45306W        W49374   8.760  19.049   2.419
45307W        W49375   8.460  18.418   1.888
45308W        W49376   7.523  21.240   0.436
45309W        W49377   9.339  20.604   1.154
45310W        W49378   8.214  21.399   3.033
45311W        W49379   7.691  20.222   0.729
45312W        W49380   7.576  18.765   1.728
45313W        W49381   9.124  20.730   1.785
45314W        W49382   7.376  18.584   0.805
45315W        W49383  10.040  19.790   2.732
45316W        W49384   9.917  19.176   0.304
45317W        W49385  10.434  20.848   1.952
45318W        W49386   9.095  21.332   1.783
45319W        W49387   8.507  21.436   0.694
45320W        W49388   9.789  18.339   0.124
45321W        W49389   7.589  21.599   1.865
45322W        W49390   9.786  19.357   3.500
45323W        W49391   7.769  18.887   3.499
45324W        W49392   7.500  19.487   0.832
45325W        W49393   8.191  19.476   0.557
45326W        W49394   9.954  19.803   3.374
45327W        W49395   8.297  20.084   2.083
45328W        W49396   9.771  18.370   1.203
45329W        W49397   8.902  21.801   1.706
45330W        W49398  10.116  21.263   2.643
45331W        W49399   9.700  21.412   1.754
45332W        W49400   9.719  20.392   1.348
45333W        W49401   9.181  18.617   0.419
45334W        W49402  10.862  18.245   1.141
45335W        W49403   8.550  19.880   0.304
45336W        W49404  10.716  19.217   1.294
45337W        W49405   9.408  20.387   0.171
45338W        W49406  10.344  20.587   2.919
45339W        W49407   9.998  21.288   0.386
45340W        W49408   8.613  18.963   3.292
45341W        W49409   8.433  19.547   2.533
45342W        W49410  10.525  21.042   2.810
45343W        W49411   9.625  18.992   3.187
45344W        W49412   7.469  19.463   2.964
45345W        W49413   9.229  19.940   2.690
45346W        W49414   7.586  20.698   1.347
45347W        W49415   7.733  19.995   2.237
45348W        W49416  10.050  20.281   2.587
45349W        W49417   9.822  21.661   3.398
45350W        W49418   9.718  19.400   2.951
45351W        W49419   9.995  21.454   1.356
45352W        W49420   8.997  21.174   2.679
45353W        W49421   8.482  21.529   1.948
45354W        W49422  10.287  20.700   2.367
45355W        W49423   9.337  20.772   3.504
45356W        W49424   7.942  20.725   1.843
45357W        W49425  10.288  20.484   1.488
45358W        W49426   9.929  21.550   2.239
45359W        W49427   7.907  21.279   2.109
45360W        W49428   8.928  19.331   3.319
45361W        W49429   9.379  21.497   0.830
45362W        W49430   8.687  20.752   3.468
45363W        W49431   8.813  20.990   0.845
45364W        W49432   8.034  19.730   0.104
45365W        W49433   7.373  21.816   7.003
45366W        W49434   7.749  20.709   6.526
45367W        W49435  10.454  20.439   4.296
45368W        W49436  10.584  21.524   6.323
45369W        W49437   8.502  21.515   3.849
45370W        W49438   8.585  19.667   4.832
45371W        W49439   8.100  19.515   4.996
45372W        W49440   9.091  20.330   4.430
45373W        W49441   8.766  21.422   6.785
45374W        W49442   7.415  18.983   6.748
45375W        W49443   8.177  18.263   6.550
45376W        W49444   9.871  18.651   5.437
45377W        W49445   9.520  19.522   4.007
45378W        W49446  10.090  18.956   7.098
45379W        W49447   7.456  18.748   6.223
45380W        W49448   9.077  20.757   3.976
45381W        W49449   7.509  19.540   5.669
45382W        W49450   8.402  19.431   6.906
45383W        W49451  10.861  19.290   5.405
45384W        W49452  10.625  20.333   6.264
45385W        W49453   8.933  19.666   5.291
45386W        W49454   9.479  21.005   5.660
45387W        W49455   7.979  20.439   5.892
45388W        W49456   7.338  19.967   5.463
45389W        W49457   8.374  19.939   6.655
45390W        W49458  10.645  19.722   6.909
45391W        W49459   8.261  21.166   5.354
45392W        W49460   9.382  20.855   6.488
45393W        W49461   8.602  19.495   5.713
45394W        W49462   8.894  20.279   5.356
45395W        W49463   9.891  21.052   7.204
45396W        W49464   8.970  20.372   7.214
45397W        W49465   8.951  20.088   6.692
45398W        W49466   7.360  19.479   7.214
45399W        W49467  10.192  21.014   6.813
45400W        W49468   7.773  18.596   4.811
45401W        W49469   8.300  20.854   5.810
45402W        W49470  10.763  20.637   5.100
45403W        W49471  10.176  19.037   5.667
45404W        W49472  10.461  18.990   3.762
45405W        W49473  10.926  19.791   6.068
45406W        W49474   8.893  21.498   5.821
45407W        W49475  10.667  20.964   4.259
45408W        W49476   7.796  21.750   4.013
45409W        W49477   8.189  21.796   4.689
45410W        W49478   7.986  18.550   6.115
45411W        W49479  10.609  19.568   6.390
45412W        W49480  10.014  19.990   4.849
45413W        W49481   9.980  19.678   3.876
45414W        W49482   9.188  20.822   6.016
45415W        W49483   8.994  19.152   5.215
45416W        W49484   9.594  21.239   6.209
45417W        W49485  10.465  20.030   4.631
45418W        W49486   9.367  18.688   4.647
45419W        W49487   8.024  21.382   4.330
45420W        W49488   7.395  18.881   4.929
45421W        W49489  10.181  19.488   5.403
45422W        W49490   7.639  21.105   5.318
45423W        W49491   8.980  21.455   4.188
45424W        W49492  10.372  19.481   3.652
45425W        W49493   7.395  21.239   5.816
45426W        W49494   8.186  20.811   6.296
45427W        W49495   8.559  20.171   4.915
45428W        W49496   8.581  18.576   6.008
45429W        W49497  10.810  18.338   5.305
45430W        W49498   8.029  20.210   3.773
45431W        W49499   7.684  19.243   3.952
45432W        W49500   7.746  21.199   4.746
45433W        W49501   8.877  20.682   4.994
45434W        W49502  10.209  21.541   6.708
45435W        W49503   9.135  19.183   4.392
45436W        W49504  10.518  21.581   5.164
45437W        W49505  10.195  19.434   6.762
45438W        W49506  10.908  21.090   4.896
45439W        W49507   9.535  20.382   6.380
45440W        W49508   7.301  19.933   4.586
45441W        W49509   8.412  20.348   6.159
45442W        W49510   9.616  19.612   4.537
45443W        W49511   9.493  20.102   4.641
45444W        W49512   7.836  19.522   6.115
45445W        W49513   7.821  19.398   7.037
45446W        W49514   7.711  18.315   5.196
45447W        W49515   9.479  18.662   5.757
45448W        W49516   9.127  18.847   6.920
45449W        W49517   9.482  18.996   4.098
45450W        W49518  10.665  21.389   6.852
45451W        W49519   9.632  18.470   6.891
45452W        W49520  10.651  20.771   7.013
45453W        W49521  10.081  18.938   6.609
45454W        W49522   9.881  18.876   4.879
45455W        W49523  10.274  20.010   7.283
45456W        W49524   8.014  21.586   5.269
45457W        W49525   8.672  19.303   4.255
45458W        W49526   8.241  18.587   6.919
45459W        W49527  10.293  19.071   4.600
45460W        W49528  10.660  19.553   4.545
45461W        W49529   8.403  21.770   7.016
45462W        W49530   8.329  18.306   4.251
45463W        W49531  10.650  18.840   5.286
45464W        W49532  10.800  21.089   3.731
45465W        W49533   7.707  20.292   5.433
45466W        W49534   9.624  18.879   3.663
45467W        W49535  10.758  21.211   5.383
45468W        W49536  10.797  18.405   6.133
45469W        W49537   9.242  19.617   6.687
45470W        W49538   9.335  20.956   4.390
45471W        W49539   9.735  20.250   7.130
45472W        W49540   9.409  18.227   5.439
45473W        W49541   8.021  19.130   5.502
45474W        W49542   7.575  20.330   6.276
45475W        W49543   9.434  21.523   4.982
45476W        W49544  10.628  19.120   5.854
45477W        W49545   9.265  21.467   6.621
45478W        W49546  10.608  20.526   3.826
45479W        W49547   9.043  20.009   4.887
45480W        W49548  10.895  18.520   6.628
45481W        W49549   9.044  20.355   6.222
45482W        W49550   9.261  19.241   5.667
45483W        W49551  10.113  19.539   4.505
45484W        W49552  10.400  19.272   4.147
45485W        W49553  10.209  21.312   4.536
45486W        W49554  10.043  20.915   5.332
45487W        W49555   9.939  19.994   4.310
45488W        W49556   9.372  20.204   5.296
45489W        W49557  10.253  19.992   5.363
45490W        W49558   7.628  19.007   5.787
45491W        W49559  10.406  20.059   6.614
45492W        W49560  10.757  21.677   5.760
45493W        W49561   8.687  21.121   5.162
45494W        W49562   9.694  21.654   6.486
45495W        W49563   9.688  18.984   6.250
45496W        W49564   8.895  21.692   6.311
45497W        W49565  10.592  18.646   4.777
45498W        W49566  10.383  19.965   6.078
45499W        W49567   7.366  19.286   6.116
45500W        W49568  10.226  19.081   5.134
45501W        W49569  10.637  19.232   6.911
45502W        W49570   9.522  20.931   5.129
45503W        W49571   8.778  21.522   4.742
45504W        W49572   7.893  18.702   4.000
45505W        W49573   8.997  18.356   5.810
45506W        W49574   8.025  21.476   3.658
45507W        W49575   8.399  19.942   4.409
45508W        W49576   9.053  20.571   6.722
45509W        W49577   8.883  18.929   4.712
45510W        W49578  10.239  18.526   5.140
45511W        W49579   9.959  21.808   5.468
45512W        W49580   9.371  21.456   5.808
45513W        W49581   8.767  20.493   5.769
45514W        W49582  10.537  21.216   5.895
45515W        W49583   8.231  18.719   4.664
45516W        W49584   8.753  21.016   5.624
45517W        W49585   8.236  18.947   3.689
45518W        W49586   9.037  19.556   6.083
45519W        W49587   9.885  18.422   5.953
45520W        W49588   7.305  20.265   5.838
45521W        W49589   9.009  20.083   3.996
45522W        W49590   8.277  18.398   3.766
45523W        W49591   9.015  19.479   4.817
45524W        W49592   9.985  18.455   6.516
45525W        W49593   8.573  20.467   6.625
45526W        W49594   9.377  20.249   6.842
45527W        W49595   9.994  20.279   6.735
45528W        W49596   9.278  18.419   7.240
45529W        W49597   8.500  19.035   5.633
45530W        W49598   7.926  18.991   5.031
45531W        W49599   7.712  21.703   4.707
45532W        W49600   9.044  21.033   6.832
45533W        W49601   8.079  20.518   4.191
45534W        W49602   9.759  19.903   5.412
45535W        W49603  10.039  19.702   5.811
45536W        W49604   9.244  20.376   5.745
45537W        W49605   9.714  20.750   3.877
45538W        W49606   9.386  18.771   5.205
45539W        W49607  10.865  19.049   4.473
45540W        W49608   7.359  21.638   6.504
45541W        W49609   7.776  20.864   6.036
45542W        W49610   7.343  21.710   4.268
45543W        W49611   9.242  18.980   6.074
45544W        W49612   8.605  21.003   3.923
45545W        W49613  10.510  21.385   4.109
45546W        W49614   9.485  20.038   4.123
45547W        W49615   8.328  19.229   4.640
45548W        W49616   9.160  19.139   3.692
45549W        W49617   9.744  20.704   6.870
45550W        W49618  10.097  18.610   4.487
45551W        W49619   7.427  18.458   3.935
45552W        W49620   8.713  20.777   6.225
45553W        W49621   8.512  20.693   5.317
45554W        W49622   8.254  20.645   3.715
45555W        W49623   7.495  20.886   4.483
45556W        W49624   7.999  19.956   6.925
45557W        W49625   8.703  18.516   7.111
45558W        W49626   9.412  18.658   6.467
45559W        W49627   8.607  18.426   4.748
45560W        W49628   9.666  18.503   4.253
45561W        W49629   7.611  18.435   5.830
45562W        W49630   7.659  19.398   5.200
45563W        W49631  10.348  18.506   5.606
45564W        W49632   7.770  19.004   4.420
45565W        W49633  10.341  18.692   6.036
45566W        W49634  10.737  19.895   3.721
45567W        W49635   8.029  18.653   5.540
45568W        W49636   9.143  19.225   6.480
45569W        W49637   7.291  18.915   3.958
45570W        W49638   8.077  20.304   6.519
45571W        W49639   9.435  19.702   5.698
45572W        W49640   9.302  21.781   3.994
45573W        W49641   7.448  20.288   3.691
45574W        W49642   8.183  20.699   6.817
45575W        W49643   7.704  19.866   6.448
45576W        W49644   8.695  19.971   6.242
45577W        W49645  10.463  18.330   6.504
45578W        W49646  10.861  19.940   6.495
45579W        W49647  10.849  20.140   4.181
45580W        W49648   9.712  20.472   4.280
45581W        W49649  10.186  21.772   3.975
45582W        W49650   9.363  19.762   7.117
45583W        W49651   7.693  20.729   7.157
45584W        W49652  10.899  18.651   7.109
45585W        W49653  10.617  19.579   5.730
45586W        W49654   8.925  21.709   7.207
45587W        W49655   8.780  18.338   3.934
45588W        W49656  10.319  20.937   3.877
45589W        W49657   8.088  19.030   6.763
45590W        W49658   8.522  21.024   6.625
45591W        W49659  10.648  19.015   6.423
45592W        W49660   9.859  21.674   4.391
45593W        W49661  10.098  20.293   5.758
45594W        W49662   8.348  18.709   6.425
45595W        W49663   8.817  19.778   7.182
45596W        W49664   8.320  20.957   4.376
45597W        W49665  10.075  20.455   4.640
45598W        W49666   7.843  19.081   6.364
45599W        W49667   9.172  21.143   4.828
45600W        W49668  10.922  19.703   5.009
45601W        W49669   9.144  18.336   6.728
45602W        W49670   9.924  21.041   5.807
45603W        W49671  10.227  21.385   5.515
45604W        W49672   9.446  21.187   3.943
45605W        W49673   7.456  21.079   6.785
45606W        W49674   8.199  19.071   6.023
45607W        W49675   8.169  18.419   5.133
45608W        W49676   9.790  19.261   5.825
45609W        W49677   8.588  20.432   4.025
45610W        W49678  10.586  20.374   5.524
45611W        W49679   7.913  21.132   6.947
45612W        W49680  10.300  21.814   4.744
45613W        W49681   8.399  18.834   5.189
45614W        W49682   8.168  20.327   5.279
45615W        W49683   8.481  21.738   6.029
45616W        W49684  10.548  21.834   7.061
45617W        W49685   9.707  20.022   5.994
45618W        W49686   7.556  19.820   3.909
45619W        W49687  10.690  21.478   4.606
45620W        W49688  10.527  18.802   4.225
45621W        W49689   8.666  18.321   6.628
45622W        W49690  10.372  21.123   5.086
45623W        W49691  10.401  19.679   4.991
45624W        W49692   8.518  19.352   5.207
45625W        W49693   8.763  19.614   6.531
45626W        W49694   9.874  20.767   6.394
45627W        W49695   8.524  19.221   6.506
45628W        W49696   8.503  21.687   5.122
45629W        W49697   7.820  21.646   6.756
45630W        W49698   7.932  21.007   3.886
45631W        W49699  10.449  20.765   4.696
45632W        W49700   8.053  19.557   6.582
45633W        W49701  10.826  19.487   4.063
45634W        W49702   8.571  20.544   4.534
45635W        W49703   9.670  19.926   6.615
45636W        W49704   9.561  19.554   6.159
45637W        W49705   8.121  19.926   6.188
45638W        W49706  10.331  21.814   6.017
45639W        W49707  10.122  18.448   7.011
45640W        W49708   7.786  18.598   6.598
45641W        W49709   8.125  19.621   5.651
45642W        W49710   8.494  19.435   3.773
45643W        W49711   7.297  21.194   6.318
45644W        W49712   8.882  19.903   5.761
45645W        W49713   8.705  18.928   3.866
45646W        W49714   7.840  19.744   4.647
45647W        W49715   7.611  21.596   6.084
45648W        W49716  10.406  19.822   4.192
45649W        W49717  10.501  18.738   6.878
45650W        W49718   9.937  20.947   4.841
45651W        W49719   7.535  19.871   7.018
45652W        W49720  10.501  18.335   4.314
45653W        W49721  10.021  20.810   4.325
45654W        W49722   8.923  19.868   4.410
45655W        W49723  10.110  18.672   3.933
45656W        W49724  10.175  19.279   6.119
45657W        W49725   7.884  19.872   5.326
45658W        W49726   8.178  20.811   4.975
45659W        W49727   9.941  19.431   4.940
45660W        W49728   8.964  18.810   5.636
45661W        W49729  10.926  20.721   6.147
45662W        W49730  10.844  18.708   5.708
45663W        W49731   7.383  21.538   5.084
45664W        W49732   7.892  20.725   4.620
45665W        W49733   7.807  18.342   7.173
45666W        W49734   8.926  21.195   7.275
45667W        W49735  10.681  20.163   5.065
45668W        W49736  10.035  20.340   3.945
45669W        W49737   9.330  21.861   6.157
45670W        W49738  10.187  20.583   7.194
45671W        W49739   9.002  18.293   4.474
45672W        W49740   9.715  19.162   5.333
45673W        W49741   7.401  20.749   5.665
45674W        W49742   8.654  18.711   4.306
45675W        W49743   8.458  20.195   7.155
45676W        W49744   9.452  19.176   4.869
45677W        W49745   9.657  20.586   5.991
45678W        W49746   7.811  21.191   6.426
45679W        W49747   8.402  21.174   7.149
45680W        W49748   8.253  18.971   4.163
45681W        W49749   9.770  19.113   4.488
45682W        W49750   9.728  21.221   6.725
45683W        W49751   8.413  19.813   5.324
45684W        W49752   8.068  21.511   6.189
45685W        W49753  10.813  21.628   3.790
45686W        W49754   7.676  20.300   6.786
45687W        W49755   9.671  20.562   5.474
45688W        W49756   8.107  20.211   4.716
45689W        W49757   8.478  21.218   6.111
45690W        W49758   8.856  18.637   5.152
45691W        W49759   7.467  20.621   4.082
45692W        W49760   8.986  19.572   3.952
45693W        W49761   7.632  20.121   4.971
45694W        W49762   8.922  18.763   6.435
45695W        W49763  10.594  18.472   3.862
45696W        W49764  10.687  20.218   6.961
45697W        W49765   9.341  21.475   7.113
45698W        W49766  10.899  20.569   6.635
45699W        W49767  10.307  21.367   7.246
45700W        W49768   8.046  21.823   5.724
45701W        W49769  10.905  20.445   4.598
45702W        W49770   9.435  19.712   5.111
45703W        W49771   9.202  18.324   5.001
45704W        W49772   8.261  21.308   4.838
45705W        W49773   8.760  19.049   6.063
45706W        W49774   8.460  18.418   5.532
45707W        W49775   7.523  21.240   4.080
45708W        W49776   9.339  20.604   4.798
45709W        W49777   8.214  21.399   6.677
45710W        W49778   7.691  20.222   4.373
45711W        W49779   7.576  18.765   5.372
45712W        W49780   9.124  20.730   5.429
45713W        W49781   7.376  18.584   4.449
45714W        W49782  10.040  19.790   6.376
45715W        W49783   9.917  19.176   3.948
45716W        W49784  10.434  20.848   5.596
45717W        W49785   9.095  21.332   5.427
45718W        W49786   8.507  21.436   4.338
45719W        W49787   9.789  18.339   3.768
45720W        W49788   7.589  21.599   5.509
45721W        W49789   9.786  19.357   7.144
45722W        W49790   7.769  18.887   7.143
45723W        W49791   7.500  19.487   4.476
45724W        W49792   8.191  19.476   4.201
45725W        W49793   9.954  19.803   7.018
45726W        W49794   8.297  20.084   5.727
45727W        W49795   9.771  18.370   4.847
45728W        W49796   8.902  21.801   5.350
45729W        W49797  10.116  21.263   6.287
45730W        W49798   9.700  21.412   5.398
45731W        W49799   9.719  20.392   4.992
45732W        W49800   9.181  18.617   4.063
45733W        W49801  10.862  18.245   4.785
45734W        W49802   8.550  19.880   3.948
45735W        W49803  10.716  19.217   4.938
45736W        W49804   9.408  20.387   3.815
45737W        W49805  10.344  20.587   6.563
45738W        W49806   9.998  21.288   4.030
45739W        W49807   8.613  18.963   6.936
45740W        W49808   8.433  19.547   6.177
45741W        W49809  10.525  21.042   6.454
45742W        W49810   9.625  18.992   6.831
45743W        W49811   7.469  19.463   6.608
45744W        W49812   9.229  19.940   6.334
45745W        W49813   7.586  20.698   4.991
45746W        W49814   7.733  19.995   5.881
45747W        W49815  10.050  20.281   6.231
45748W        W49816   9.822  21.661   7.042
45749W        W49817   9.718  19.400   6.595
45750W        W49818   9.995  21.454   5.000
45751W        W49819   8.997  21.174   6.323
45752W        W49820   8.482  21.529   5.592
45753W        W49821  10.287  20.700   6.011
45754W        W49822   9.337  20.772   7.148
45755W        W49823   7.942  20.725   5.487
45756W        W49824  10.288  20.484   5.132
45757W        W49825   9.929  21.550   5.883
45758W        W49826   7.907  21.279   5.753
45759W        W49827   8.928  19.331   6.963
45760W        W49828   9.379  21.497   4.474
45761W        W49829   8.687  20.752   7.112
45762W        W49830   8.813  20.990   4.489
45763W        W49831   8.034  19.730   3.748
45764W        W49832   7.373  21.816  10.648
45765W        W49833   7.749  20.709  10.171
45766W        W49834  10.454  20.439   7.941
45767W        W49835  10.584  21.524   9.968
45768W        W49836   8.502  21.515   7.494
45769W        W49837   8.585  19.667   8.477
45770W        W49838   8.100  19.515   8.641
45771W        W49839   9.091  20.330   8.075
45772W        W49840   8.766  21.422  10.430
45773W        W49841   7.415  18.983  10.393
45774W        W49842   8.177  18.263  10.195
45775W        W49843   9.871  18.651   9.082
45776W        W49844   9.520  19.522   7.652
45777W        W49845  10.090  18.956  10.743
45778W        W49846   7.555  21.367  10.889
45779W        W49847   9.077  20.757   7.621
45780W        W49848   7.509  19.540   9.314
45781W        W49849   8.402  19.431  10.551
45782W        W49850  10.861  19.290   9.050
45783W        W49851  10.625  20.333   9.909
45784W        W49852   8.933  19.666   8.936
45785W        W49853   9.479  21.005   9.305
45786W        W49854   7.979  20.439   9.537
45787W        W49855   7.338  19.967   9.108
45788W        W49856   8.374  19.939  10.300
45789W        W49857  10.645  19.722  10.554
45790W        W49858   8.261  21.166   8.999
45791W        W49859   9.382  20.855  10.133
45792W        W49860   8.602  19.495   9.358
45793W        W49861   8.894  20.279   9.001
45794W        W49862   9.891  21.052  10.849
45795W        W49863   8.970  20.372  10.859
45796W        W49864   8.951  20.088  10.337
45797W        W49865   7.360  19.479  10.859
45798W        W49866  10.192  21.014  10.458
45799W        W49867   7.773  18.596   8.456
45800W        W49868   8.300  20.854   9.455
45801W        W49869  10.763  20.637   8.745
45802W        W49870  10.176  19.037   9.312
45803W        W49871  10.461  18.990   7.407
45804W        W49872  10.926  19.791   9.713
45805W        W49873   8.893  21.498   9.466
45806W        W49874  10.667  20.964   7.904
45807W        W49875   7.796  21.750   7.658
45808W        W49876   8.189  21.796   8.334
45809W        W49877   7.986  18.550   9.760
45810W        W49878  10.609  19.568  10.035
45811W        W49879  10.014  19.990   8.494
45812W        W49880   9.980  19.678   7.521
45813W        W49881   9.188  20.822   9.661
45814W        W49882   8.994  19.152   8.860
45815W        W49883   9.594  21.239   9.854
45816W        W49884  10.465  20.030   8.276
45817W        W49885   9.367  18.688   8.292
45818W        W49886   8.024  21.382   7.975
45819W        W49887   7.395  18.881   8.574
45820W        W49888  10.181  19.488   9.048
45821W        W49889   7.639  21.105   8.963
45822W        W49890   8.980  21.455   7.833
45823W        W49891  10.372  19.481   7.297
45824W        W49892   7.395  21.239   9.461
45825W        W49893   8.186  20.811   9.941
45826W        W49894   8.559  20.171   8.560
45827W        W49895   8.581  18.576   9.653
45828W        W49896  10.810  18.338   8.950
45829W        W49897   8.029  20.210   7.418
45830W        W49898   7.684  19.243   7.597
45831W        W49899   7.746  21.199   8.391
45832W        W49900   8.877  20.682   8.639
45833W        W49901  10.209  21.541  10.353
45834W        W49902   9.135  19.183   8.037
45835W        W49903  10.518  21.581   8.809
45836W        W49904  10.195  19.434  10.407
45837W        W49905  10.908  21.090   8.541
45838W        W49906   9.535  20.382  10.025
45839W        W49907   7.301  19.933   8.231
45840W        W49908   8.412  20.348   9.804
45841W        W49909   9.616  19.612   8.182
45842W        W49910   9.493  20.102   8.286
45843W        W49911   7.821  19.398  10.682
45844W        W49912   7.711  18.315   8.841
45845W        W49913   9.479  18.662   9.402
45846W        W49914   9.127  18.847  10.565
45847W        W49915   9.482  18.996   7.743
45848W        W49916  10.665  21.389  10.497
45849W        W49917   9.632  18.470  10.536
45850W        W49918  10.651  20.771  10.658
45851W        W49919  10.081  18.938  10.254
45852W        W49920   9.881  18.876   8.524
45853W        W49921  10.274  20.010  10.928
45854W        W49922   8.014  21.586   8.914
45855W        W49923   8.672  19.303   7.900
45856W        W49924   8.241  18.587  10.564
45857W        W49925  10.293  19.071   8.245
45858W        W49926  10.660  19.553   8.190
45859W        W49927   8.403  21.770  10.661
45860W        W49928   8.329  18.306   7.896
45861W        W49929  10.650  18.840   8.931
45862W        W49930  10.800  21.089   7.376
45863W        W49931   7.707  20.292   9.078
45864W        W49932   9.624  18.879   7.308
45865W        W49933  10.758  21.211   9.028
45866W        W49934  10.797  18.405   9.778
45867W        W49935   9.242  19.617  10.332
45868W        W49936   9.335  20.956   8.035
45869W        W49937   9.735  20.250  10.775
45870W        W49938   9.409  18.227   9.084
45871W        W49939   8.021  19.130   9.147
45872W        W49940   7.575  20.330   9.921
45873W        W49941   9.434  21.523   8.627
45874W        W49942  10.628  19.120   9.499
45875W        W49943   9.265  21.467  10.266
45876W        W49944  10.608  20.526   7.471
45877W        W49945   9.043  20.009   8.532
45878W        W49946  10.895  18.520  10.273
45879W        W49947   9.044  20.355   9.867
45880W        W49948   9.261  19.241   9.312
45881W        W49949  10.113  19.539   8.150
45882W        W49950  10.400  19.272   7.792
45883W        W49951  10.209  21.312   8.181
45884W        W49952  10.043  20.915   8.977
45885W        W49953   9.939  19.994   7.955
45886W        W49954   9.372  20.204   8.941
45887W        W49955  10.253  19.992   9.008
45888W        W49956   7.628  19.007   9.432
45889W        W49957  10.406  20.059  10.259
45890W        W49958  10.757  21.677   9.405
45891W        W49959   8.687  21.121   8.807
45892W        W49960   9.694  21.654  10.131
45893W        W49961   9.688  18.984   9.895
45894W        W49962   8.895  21.692   9.956
45895W        W49963  10.592  18.646   8.422
45896W        W49964  10.383  19.965   9.723
45897W        W49965   7.366  19.286   9.761
45898W        W49966  10.226  19.081   8.779
45899W        W49967  10.637  19.232  10.556
45900W        W49968   9.522  20.931   8.774
45901W        W49969   8.778  21.522   8.387
45902W        W49970   7.893  18.702   7.645
45903W        W49971   8.997  18.356   9.455
45904W        W49972   8.025  21.476   7.303
45905W        W49973   8.399  19.942   8.054
45906W        W49974   9.053  20.571  10.367
45907W        W49975   8.883  18.929   8.357
45908W        W49976  10.239  18.526   8.785
45909W        W49977   9.959  21.808   9.113
45910W        W49978   9.371  21.456   9.453
45911W        W49979   8.767  20.493   9.414
45912W        W49980  10.537  21.216   9.540
45913W        W49981   8.231  18.719   8.309
45914W        W49982   8.753  21.016   9.269
45915W        W49983   8.236  18.947   7.334
45916W        W49984   9.037  19.556   9.728
45917W        W49985   9.885  18.422   9.598
45918W        W49986   9.009  20.083   7.641
45919W        W49987   8.277  18.398   7.411
45920W        W49988   9.015  19.479   8.462
45921W        W49989   9.985  18.455  10.161
45922W        W49990   8.573  20.467  10.270
45923W        W49991   9.377  20.249  10.487
45924W        W49992   9.994  20.279  10.380
45925W        W49993   9.278  18.419  10.885
45926W        W49994   8.500  19.035   9.278
45927W        W49995   7.926  18.991   8.676
45928W        W49996   7.712  21.703   8.352
45929W        W49997   9.044  21.033  10.477
45930W        W49998   8.079  20.518   7.836
45931W        W49999   9.759  19.903   9.057
45932W        W50000  10.039  19.702   9.456
45933W        W50001   9.244  20.376   9.390
45934W        W50002   9.714  20.750   7.522
45935W        W50003   9.386  18.771   8.850
45936W        W50004  10.865  19.049   8.118
45937W        W50005   7.359  21.638  10.149
45938W        W50006   7.776  20.864   9.681
45939W        W50007   7.343  21.710   7.913
45940W        W50008   9.242  18.980   9.719
45941W        W50009   8.605  21.003   7.568
45942W        W50010  10.510  21.385   7.754
45943W        W50011   9.485  20.038   7.768
45944W        W50012   8.328  19.229   8.285
45945W        W50013   9.160  19.139   7.337
45946W        W50014   9.744  20.704  10.515
45947W        W50015  10.097  18.610   8.132
45948W        W50016   7.427  18.458   7.580
45949W        W50017   8.713  20.777   9.870
45950W        W50018   8.512  20.693   8.962
45951W        W50019   8.254  20.645   7.360
45952W        W50020   7.495  20.886   8.128
45953W        W50021   7.999  19.956  10.570
45954W        W50022   9.412  18.658  10.112
45955W        W50023   8.607  18.426   8.393
45956W        W50024   9.666  18.503   7.898
45957W        W50025   7.659  19.398   8.845
45958W        W50026  10.348  18.506   9.251
45959W        W50027   7.770  19.004   8.065
45960W        W50028  10.341  18.692   9.681
45961W        W50029  10.737  19.895   7.366
45962W        W50030   8.029  18.653   9.185
45963W        W50031   9.143  19.225  10.125
45964W        W50032   7.291  18.915   7.603
45965W        W50033   8.077  20.304  10.164
45966W        W50034   9.435  19.702   9.343
45967W        W50035   9.302  21.781   7.639
45968W        W50036   7.448  20.288   7.336
45969W        W50037   8.183  20.699  10.462
45970W        W50038   7.704  19.866  10.093
45971W        W50039   8.695  19.971   9.887
45972W        W50040  10.463  18.330  10.149
45973W        W50041  10.861  19.940  10.140
45974W        W50042  10.849  20.140   7.826
45975W        W50043   9.712  20.472   7.925
45976W        W50044  10.186  21.772   7.620
45977W        W50045   9.363  19.762  10.762
45978W        W50046   7.693  20.729  10.802
45979W        W50047  10.899  18.651  10.754
45980W        W50048  10.617  19.579   9.375
45981W        W50049   8.925  21.709  10.852
45982W        W50050   8.780  18.338   7.579
45983W        W50051  10.319  20.937   7.522
45984W        W50052   8.088  19.030  10.408
45985W        W50053   8.522  21.024  10.270
45986W        W50054  10.648  19.015  10.068
45987W        W50055   9.859  21.674   8.036
45988W        W50056  10.098  20.293   9.403
45989W        W50057   8.348  18.709  10.070
45990W        W50058   8.817  19.778  10.827
45991W        W50059   8.320  20.957   8.021
45992W        W50060  10.075  20.455   8.285
45993W        W50061   7.843  19.081  10.009
45994W        W50062   9.172  21.143   8.473
45995W        W50063  10.922  19.703   8.654
45996W        W50064   9.144  18.336  10.373
45997W        W50065   9.924  21.041   9.452
45998W        W50066  10.227  21.385   9.160
45999W        W50067   9.446  21.187   7.588
46000W        W50068   7.456  21.079  10.430
46001W        W50069   8.199  19.071   9.668
46002W        W50070   8.169  18.419   8.778
46003W        W50071   9.790  19.261   9.470
46004W        W50072   8.588  20.432   7.670
46005W        W50073  10.586  20.374   9.169
46006W        W50074   7.913  21.132  10.592
46007W        W50075  10.300  21.814   8.389
46008W        W50076   8.399  18.834   8.834
46009W        W50077   8.168  20.327   8.924
46010W        W50078   8.481  21.738   9.674
46011W        W50079  10.548  21.834  10.706
46012W        W50080   9.707  20.022   9.639
46013W        W50081   7.556  19.820   7.554
46014W        W50082  10.690  21.478   8.251
46015W        W50083  10.527  18.802   7.870
46016W        W50084   8.666  18.321  10.273
46017W        W50085  10.372  21.123   8.731
46018W        W50086  10.401  19.679   8.636
46019W        W50087   8.518  19.352   8.852
46020W        W50088   8.763  19.614  10.176
46021W        W50089   9.874  20.767  10.039
46022W        W50090   8.524  19.221  10.151
46023W        W50091   8.503  21.687   8.767
46024W        W50092   7.820  21.646  10.401
46025W        W50093   7.932  21.007   7.531
46026W        W50094  10.449  20.765   8.341
46027W        W50095  10.826  19.487   7.708
46028W        W50096   8.571  20.544   8.179
46029W        W50097   9.670  19.926  10.260
46030W        W50098   9.561  19.554   9.804
46031W        W50099   8.121  19.926   9.833
46032W        W50100  10.331  21.814   9.662
46033W        W50101  10.122  18.448  10.656
46034W        W50102   8.494  19.435   7.418
46035W        W50103   7.297  21.194   9.963
46036W        W50104   8.882  19.903   9.406
46037W        W50105   8.705  18.928   7.511
46038W        W50106   7.840  19.744   8.292
46039W        W50107   7.611  21.596   9.729
46040W        W50108  10.406  19.822   7.837
46041W        W50109  10.501  18.738  10.523
46042W        W50110   9.937  20.947   8.486
46043W        W50111   7.535  19.871  10.663
46044W        W50112  10.501  18.335   7.959
46045W        W50113  10.021  20.810   7.970
46046W        W50114   8.923  19.868   8.055
46047W        W50115  10.110  18.672   7.578
46048W        W50116  10.175  19.279   9.764
46049W        W50117   7.884  19.872   8.971
46050W        W50118   8.178  20.811   8.620
46051W        W50119   9.941  19.431   8.585
46052W        W50120   8.964  18.810   9.281
46053W        W50121  10.926  20.721   9.792
46054W        W50122  10.844  18.708   9.353
46055W        W50123   7.383  21.538   8.729
46056W        W50124   7.892  20.725   8.265
46057W        W50125   7.807  18.342  10.818
46058W        W50126   8.926  21.195  10.920
46059W        W50127  10.681  20.163   8.710
46060W        W50128  10.035  20.340   7.590
46061W        W50129   9.330  21.861   9.802
46062W        W50130  10.187  20.583  10.839
46063W        W50131   9.002  18.293   8.119
46064W        W50132   9.715  19.162   8.978
46065W        W50133   7.401  20.749   9.310
46066W        W50134   8.654  18.711   7.951
46067W        W50135   8.458  20.195  10.800
46068W        W50136   9.452  19.176   8.514
46069W        W50137   9.657  20.586   9.636
46070W        W50138   7.811  21.191  10.071
46071W        W50139   8.402  21.174  10.794
46072W        W50140   8.253  18.971   7.808
46073W        W50141   9.770  19.113   8.133
46074W        W50142   9.728  21.221  10.370
46075W        W50143   8.068  21.511   9.834
46076W        W50144  10.813  21.628   7.435
46077W        W50145   7.676  20.300  10.431
46078W        W50146   9.671  20.562   9.119
46079W        W50147   8.107  20.211   8.361
46080W        W50148   8.478  21.218   9.756
46081W        W50149   8.856  18.637   8.797
46082W        W50150   7.467  20.621   7.727
46083W        W50151   8.986  19.572   7.597
46084W        W50152   7.632  20.121   8.616
46085W        W50153   8.922  18.763  10.080
46086W        W50154  10.594  18.472   7.507
46087W        W50155  10.687  20.218  10.606
46088W        W50156   9.341  21.475  10.758
46089W        W50157  10.899  20.569  10.280
46090W        W50158  10.307  21.367  10.891
46091W        W50159   8.046  21.823   9.369
46092W        W50160  10.905  20.445   8.243
46093W        W50161   9.435  19.712   8.756
46094W        W50162   9.202  18.324   8.646
46095W        W50163   8.261  21.308   8.483
46096W        W50164   8.760  19.049   9.708
46097W        W50165   8.460  18.418   9.177
46098W        W50166   7.523  21.240   7.725
46099W        W50167   9.339  20.604   8.443
46100W        W50168   8.214  21.399  10.322
46101W        W50169   7.691  20.222   8.018
46102W        W50170   7.576  18.765   9.017
46103W        W50171   9.124  20.730   9.074
46104W        W50172   7.376  18.584   8.094
46105W        W50173  10.040  19.790  10.021
46106W        W50174   9.917  19.176   7.593
46107W        W50175  10.434  20.848   9.241
46108W        W50176   9.095  21.332   9.072
46109W        W50177   8.507  21.436   7.983
46110W        W50178   9.789  18.339   7.413
46111W        W50179   7.589  21.599   9.154
46112W        W50180   9.786  19.357  10.789
46113W        W50181   7.769  18.887  10.788
46114W        W50182   7.500  19.487   8.121
46115W        W50183   8.191  19.476   7.846
46116W        W50184   9.954  19.803  10.663
46117W        W50185   8.297  20.084   9.372
46118W        W50186   9.771  18.370   8.492
46119W        W50187   8.902  21.801   8.995
46120W        W50188  10.116  21.263   9.932
46121W        W50189   9.700  21.412   9.043
46122W        W50190   9.719  20.392   8.637
46123W        W50191   9.181  18.617   7.708
46124W        W50192  10.862  18.245   8.430
46125W        W50193   8.550  19.880   7.593
46126W        W50194  10.716  19.217   8.583
46127W        W50195   9.408  20.387   7.460
46128W        W50196  10.344  20.587  10.208
46129W        W50197   9.998  21.288   7.675
46130W        W50198   8.613  18.963  10.581
46131W        W50199   8.433  19.547   9.822
46132W        W50200  10.525  21.042  10.099
46133W        W50201   9.625  18.992  10.476
46134W        W50202   7.469  19.463  10.253
46135W        W50203   9.229  19.940   9.979
46136W        W50204   7.586  20.698   8.636
46137W        W50205   7.733  19.995   9.526
46138W        W50206  10.050  20.281   9.876
46139W        W50207   9.822  21.661  10.687
46140W        W50208   9.718  19.400  10.240
46141W        W50209   9.995  21.454   8.645
46142W        W50210   8.997  21.174   9.968
46143W        W50211   8.482  21.529   9.237
46144W        W50212  10.287  20.700   9.656
46145W        W50213   9.337  20.772  10.793
46146W        W50214   7.942  20.725   9.132
46147W        W50215  10.288  20.484   8.777
46148W        W50216   9.929  21.550   9.528
46149W        W50217   7.907  21.279   9.398
46150W        W50218   8.928  19.331  10.608
46151W        W50219   9.379  21.497   8.119
46152W        W50220   8.687  20.752  10.757
46153W        W50221   8.813  20.990   8.134
46154W        W50222   8.034  19.730   7.393
46155W        W50223   7.373  21.816  14.292
46156W        W50224   7.749  20.709  13.815
46157W        W50225  10.454  20.439  11.585
46158W        W50226  10.584  21.524  13.612
46159W        W50227   8.502  21.515  11.138
46160W        W50228   8.585  19.667  12.121
46161W        W50229   8.100  19.515  12.285
46162W        W50230   9.091  20.330  11.719
46163W        W50231   8.766  21.422  14.074
46164W        W50232   7.415  18.983  14.037
46165W        W50233   8.177  18.263  13.839
46166W        W50234   9.871  18.651  12.726
46167W        W50235   9.520  19.522  11.296
46168W        W50236  10.090  18.956  14.387
46169W        W50237   7.456  18.748  13.512
46170W        W50238   7.555  21.367  14.533
46171W        W50239   9.077  20.757  11.265
46172W        W50240   7.509  19.540  12.958
46173W        W50241   8.402  19.431  14.195
46174W        W50242  10.861  19.290  12.694
46175W        W50243  10.625  20.333  13.553
46176W        W50244   8.933  19.666  12.580
46177W        W50245   9.479  21.005  12.949
46178W        W50246   7.979  20.439  13.181
46179W        W50247   7.338  19.967  12.752
46180W        W50248   8.374  19.939  13.944
46181W        W50249  10.645  19.722  14.198
46182W        W50250   8.261  21.166  12.643
46183W        W50251   9.382  20.855  13.777
46184W        W50252   8.602  19.495  13.002
46185W        W50253   8.894  20.279  12.645
46186W        W50254   9.891  21.052  14.493
46187W        W50255   8.970  20.372  14.503
46188W        W50256   8.951  20.088  13.981
46189W        W50257   7.360  19.479  14.503
46190W        W50258  10.192  21.014  14.102
46191W        W50259   7.773  18.596  12.100
46192W        W50260   8.300  20.854  13.099
46193W        W50261  10.763  20.637  12.389
46194W        W50262  10.176  19.037  12.956
46195W        W50263  10.461  18.990  11.051
46196W        W50264  10.926  19.791  13.357
46197W        W50265   8.893  21.498  13.110
46198W        W50266  10.667  20.964  11.548
46199W        W50267   7.796  21.750  11.302
46200W        W50268   8.189  21.796  11.978
46201W        W50269   7.986  18.550  13.404
46202W        W50270  10.609  19.568  13.679
46203W        W50271  10.014  19.990  12.138
46204W        W50272   9.980  19.678  11.165
46205W        W50273   9.188  20.822  13.305
46206W        W50274   8.994  19.152  12.504
46207W        W50275   9.594  21.239  13.498
46208W        W50276  10.465  20.030  11.920
46209W        W50277   9.367  18.688  11.936
46210W        W50278   8.024  21.382  11.619
46211W        W50279   7.395  18.881  12.218
46212W        W50280  10.181  19.488  12.692
46213W        W50281   7.639  21.105  12.607
46214W        W50282   8.980  21.455  11.477
46215W        W50283  10.372  19.481  10.941
46216W        W50284   7.395  21.239  13.105
46217W        W50285   8.186  20.811  13.585
46218W        W50286   8.559  20.171  12.204
46219W        W50287   8.581  18.576  13.297
46220W        W50288  10.810  18.338  12.594
46221W        W50289   8.029  20.210  11.062
46222W        W50290   7.684  19.243  11.241
46223W        W50291   7.746  21.199  12.035
46224W        W50292   8.877  20.682  12.283
46225W        W50293  10.209  21.541  13.997
46226W        W50294   9.135  19.183  11.681
46227W        W50295  10.518  21.581  12.453
46228W        W50296  10.195  19.434  14.051
46229W        W50297  10.908  21.090  12.185
46230W        W50298   9.535  20.382  13.669
46231W        W50299   7.301  19.933  11.875
46232W        W50300   8.412  20.348  13.448
46233W        W50301   9.616  19.612  11.826
46234W        W50302   9.493  20.102  11.930
46235W        W50303   7.836  19.522  13.404
46236W        W50304   7.821  19.398  14.326
46237W        W50305   7.711  18.315  12.485
46238W        W50306   9.479  18.662  13.046
46239W        W50307   9.127  18.847  14.209
46240W        W50308   9.482  18.996  11.387
46241W        W50309  10.665  21.389  14.141
46242W        W50310   9.632  18.470  14.180
46243W        W50311  10.651  20.771  14.302
46244W        W50312  10.081  18.938  13.898
46245W        W50313   9.881  18.876  12.168
46246W        W50314  10.274  20.010  14.572
46247W        W50315   8.014  21.586  12.558
46248W        W50316   8.672  19.303  11.544
46249W        W50317   8.241  18.587  14.208
46250W        W50318  10.293  19.071  11.889
46251W        W50319  10.660  19.553  11.834
46252W        W50320   8.403  21.770  14.305
46253W        W50321  10.650  18.840  12.575
46254W        W50322  10.800  21.089  11.020
46255W        W50323   7.707  20.292  12.722
46256W        W50324   9.624  18.879  10.952
46257W        W50325  10.758  21.211  12.672
46258W        W50326  10.797  18.405  13.422
46259W        W50327   9.242  19.617  13.976
46260W        W50328   9.335  20.956  11.679
46261W        W50329   9.735  20.250  14.419
46262W        W50330   9.409  18.227  12.728
46263W        W50331   8.021  19.130  12.791
46264W        W50332   7.575  20.330  13.565
46265W        W50333   9.434  21.523  12.271
46266W        W50334  10.628  19.120  13.143
46267W        W50335   9.265  21.467  13.910
46268W        W50336  10.608  20.526  11.115
46269W        W50337   9.043  20.009  12.176
46270W        W50338  10.895  18.520  13.917
46271W        W50339   9.044  20.355  13.511
46272W        W50340   9.261  19.241  12.956
46273W        W50341  10.113  19.539  11.794
46274W        W50342  10.400  19.272  11.436
46275W        W50343  10.209  21.312  11.825
46276W        W50344  10.043  20.915  12.621
46277W        W50345   9.939  19.994  11.599
46278W        W50346   9.372  20.204  12.585
46279W        W50347  10.253  19.992  12.652
46280W        W50348   7.628  19.007  13.076
46281W        W50349  10.406  20.059  13.903
46282W        W50350  10.757  21.677  13.049
46283W        W50351   8.687  21.121  12.451
46284W        W50352   9.694  21.654  13.775
46285W        W50353   9.688  18.984  13.539
46286W        W50354   8.895  21.692  13.600
46287W        W50355  10.592  18.646  12.066
46288W        W50356  10.383  19.965  13.367
46289W        W50357   7.366  19.286  13.405
46290W        W50358  10.226  19.081  12.423
46291W        W50359  10.637  19.232  14.200
46292W        W50360   9.522  20.931  12.418
46293W        W50361   8.778  21.522  12.031
46294W        W50362   8.997  18.356  13.099
46295W        W50363   8.025  21.476  10.947
46296W        W50364   8.399  19.942  11.698
46297W        W50365   9.053  20.571  14.011
46298W        W50366   8.883  18.929  12.001
46299W        W50367  10.239  18.526  12.429
46300W        W50368   9.959  21.808  12.757
46301W        W50369   9.371  21.456  13.097
46302W        W50370   8.767  20.493  13.058
46303W        W50371  10.537  21.216  13.184
46304W        W50372   8.231  18.719  11.953
46305W        W50373   8.753  21.016  12.913
46306W        W50374   8.236  18.947  10.978
46307W        W50375   9.037  19.556  13.372
46308W        W50376   9.885  18.422  13.242
46309W        W50377   7.305  20.265  13.127
46310W        W50378   9.009  20.083  11.285
46311W        W50379   9.015  19.479  12.106
46312W        W50380   9.985  18.455  13.805
46313W        W50381   8.573  20.467  13.914
46314W        W50382   9.377  20.249  14.131
46315W        W50383   9.994  20.279  14.024
46316W        W50384   9.278  18.419  14.529
46317W        W50385   8.500  19.035  12.922
46318W        W50386   7.926  18.991  12.320
46319W        W50387   7.712  21.703  11.996
46320W        W50388   9.044  21.033  14.121
46321W        W50389   8.079  20.518  11.480
46322W        W50390   9.759  19.903  12.701
46323W        W50391  10.039  19.702  13.100
46324W        W50392   9.244  20.376  13.034
46325W        W50393   9.714  20.750  11.166
46326W        W50394   9.386  18.771  12.494
46327W        W50395  10.865  19.049  11.762
46328W        W50396   7.359  21.638  13.793
46329W        W50397   7.776  20.864  13.325
46330W        W50398   7.343  21.710  11.557
46331W        W50399   9.242  18.980  13.363
46332W        W50400   8.605  21.003  11.212
46333W        W50401  10.510  21.385  11.398
46334W        W50402   9.485  20.038  11.412
46335W        W50403   8.328  19.229  11.929
46336W        W50404   9.160  19.139  10.981
46337W        W50405   9.744  20.704  14.159
46338W        W50406  10.097  18.610  11.776
46339W        W50407   7.427  18.458  11.224
46340W        W50408   8.713  20.777  13.514
46341W        W50409   8.512  20.693  12.606
46342W        W50410   8.254  20.645  11.004
46343W        W50411   7.495  20.886  11.772
46344W        W50412   7.999  19.956  14.214
46345W        W50413   8.703  18.516  14.400
46346W        W50414   9.412  18.658  13.756
46347W        W50415   8.607  18.426  12.037
46348W        W50416   9.666  18.503  11.542
46349W        W50417   7.611  18.435  13.119
46350W        W50418   7.659  19.398  12.489
46351W        W50419  10.348  18.506  12.895
46352W        W50420   7.770  19.004  11.709
46353W        W50421  10.341  18.692  13.325
46354W        W50422  10.737  19.895  11.010
46355W        W50423   8.029  18.653  12.829
46356W        W50424   9.143  19.225  13.769
46357W        W50425   7.291  18.915  11.247
46358W        W50426   8.077  20.304  13.808
46359W        W50427   9.435  19.702  12.987
46360W        W50428   9.302  21.781  11.283
46361W        W50429   7.448  20.288  10.980
46362W        W50430   8.183  20.699  14.106
46363W        W50431   7.704  19.866  13.737
46364W        W50432   8.695  19.971  13.531
46365W        W50433  10.463  18.330  13.793
46366W        W50434  10.861  19.940  13.784
46367W        W50435  10.849  20.140  11.470
46368W        W50436   9.712  20.472  11.569
46369W        W50437  10.186  21.772  11.264
46370W        W50438   9.363  19.762  14.406
46371W        W50439   7.693  20.729  14.446
46372W        W50440  10.899  18.651  14.398
46373W        W50441  10.617  19.579  13.019
46374W        W50442   8.925  21.709  14.496
46375W        W50443  10.319  20.937  11.166
46376W        W50444   8.088  19.030  14.052
46377W        W50445   8.522  21.024  13.914
46378W        W50446  10.648  19.015  13.712
46379W        W50447   9.859  21.674  11.680
46380W        W50448  10.098  20.293  13.047
46381W        W50449   8.348  18.709  13.714
46382W        W50450   8.817  19.778  14.471
46383W        W50451   8.320  20.957  11.665
46384W        W50452  10.075  20.455  11.929
46385W        W50453   7.843  19.081  13.653
46386W        W50454   9.172  21.143  12.117
46387W        W50455  10.922  19.703  12.298
46388W        W50456   9.144  18.336  14.017
46389W        W50457   9.924  21.041  13.096
46390W        W50458  10.227  21.385  12.804
46391W        W50459   9.446  21.187  11.232
46392W        W50460   7.456  21.079  14.074
46393W        W50461   8.199  19.071  13.312
46394W        W50462   8.169  18.419  12.422
46395W        W50463   9.790  19.261  13.114
46396W        W50464   8.588  20.432  11.314
46397W        W50465  10.586  20.374  12.813
46398W        W50466   7.913  21.132  14.236
46399W        W50467  10.300  21.814  12.033
46400W        W50468   8.399  18.834  12.478
46401W        W50469   8.168  20.327  12.568
46402W        W50470   8.481  21.738  13.318
46403W        W50471  10.548  21.834  14.350
46404W        W50472   9.707  20.022  13.283
46405W        W50473   7.556  19.820  11.198
46406W        W50474  10.690  21.478  11.895
46407W        W50475  10.527  18.802  11.514
46408W        W50476   8.666  18.321  13.917
46409W        W50477  10.372  21.123  12.375
46410W        W50478  10.401  19.679  12.280
46411W        W50479   8.518  19.352  12.496
46412W        W50480   8.763  19.614  13.820
46413W        W50481   9.874  20.767  13.683
46414W        W50482   8.524  19.221  13.795
46415W        W50483   8.503  21.687  12.411
46416W        W50484   7.820  21.646  14.045
46417W        W50485   7.932  21.007  11.175
46418W        W50486  10.449  20.765  11.985
46419W        W50487   8.053  19.557  13.871
46420W        W50488  10.826  19.487  11.352
46421W        W50489   8.571  20.544  11.823
46422W        W50490   9.670  19.926  13.904
46423W        W50491   9.561  19.554  13.448
46424W        W50492   8.121  19.926  13.477
46425W        W50493  10.331  21.814  13.306
46426W        W50494  10.122  18.448  14.300
46427W        W50495   7.786  18.598  13.887
46428W        W50496   8.125  19.621  12.940
46429W        W50497   8.494  19.435  11.062
46430W        W50498   7.297  21.194  13.607
46431W        W50499   8.882  19.903  13.050
46432W        W50500   8.705  18.928  11.155
46433W        W50501   7.840  19.744  11.936
46434W        W50502   7.611  21.596  13.373
46435W        W50503  10.406  19.822  11.481
46436W        W50504  10.501  18.738  14.167
46437W        W50505   9.937  20.947  12.130
46438W        W50506   7.535  19.871  14.307
46439W        W50507  10.501  18.335  11.603
46440W        W50508  10.021  20.810  11.614
46441W        W50509   8.923  19.868  11.699
46442W        W50510  10.110  18.672  11.222
46443W        W50511  10.175  19.279  13.408
46444W        W50512   7.884  19.872  12.615
46445W        W50513   8.178  20.811  12.264
46446W        W50514   9.941  19.431  12.229
46447W        W50515   8.964  18.810  12.925
46448W        W50516  10.926  20.721  13.436
46449W        W50517  10.844  18.708  12.997
46450W        W50518   7.383  21.538  12.373
46451W        W50519   7.892  20.725  11.909
46452W        W50520   7.807  18.342  14.462
46453W        W50521   8.926  21.195  14.564
46454W        W50522  10.681  20.163  12.354
46455W        W50523  10.035  20.340  11.234
46456W        W50524   9.330  21.861  13.446
46457W        W50525  10.187  20.583  14.483
46458W        W50526   9.002  18.293  11.763
46459W        W50527   9.715  19.162  12.622
46460W        W50528   7.401  20.749  12.954
46461W        W50529   8.654  18.711  11.595
46462W        W50530   8.458  20.195  14.444
46463W        W50531   9.452  19.176  12.158
46464W        W50532   9.657  20.586  13.280
46465W        W50533   7.811  21.191  13.715
46466W        W50534   8.402  21.174  14.438
46467W        W50535   8.253  18.971  11.452
46468W        W50536   9.770  19.113  11.777
46469W        W50537   9.728  21.221  14.014
46470W        W50538   8.413  19.813  12.613
46471W        W50539   8.068  21.511  13.478
46472W        W50540  10.813  21.628  11.079
46473W        W50541   7.676  20.300  14.075
46474W        W50542   9.671  20.562  12.763
46475W        W50543   8.107  20.211  12.005
46476W        W50544   8.478  21.218  13.400
46477W        W50545   8.856  18.637  12.441
46478W        W50546   7.467  20.621  11.371
46479W        W50547   8.986  19.572  11.241
46480W        W50548   7.632  20.121  12.260
46481W        W50549   8.922  18.763  13.724
46482W        W50550  10.594  18.472  11.151
46483W        W50551  10.687  20.218  14.250
46484W        W50552   9.341  21.475  14.402
46485W        W50553  10.899  20.569  13.924
46486W        W50554  10.307  21.367  14.535
46487W        W50555   8.046  21.823  13.013
46488W        W50556  10.905  20.445  11.887
46489W        W50557   9.435  19.712  12.400
46490W        W50558   9.202  18.324  12.290
46491W        W50559   8.261  21.308  12.127
46492W        W50560   8.760  19.049  13.352
46493W        W50561   8.460  18.418  12.821
46494W        W50562   7.523  21.240  11.369
46495W        W50563   9.339  20.604  12.087
46496W        W50564   8.214  21.399  13.966
46497W        W50565   7.691  20.222  11.662
46498W        W50566   7.576  18.765  12.661
46499W        W50567   9.124  20.730  12.718
46500W        W50568   7.376  18.584  11.738
46501W        W50569  10.040  19.790  13.665
46502W        W50570   9.917  19.176  11.237
46503W        W50571  10.434  20.848  12.885
46504W        W50572   9.095  21.332  12.716
46505W        W50573   8.507  21.436  11.627
46506W        W50574   9.789  18.339  11.057
46507W        W50575   7.589  21.599  12.798
46508W        W50576   9.786  19.357  14.433
46509W        W50577   7.769  18.887  14.432
46510W        W50578   7.500  19.487  11.765
46511W        W50579   8.191  19.476  11.490
46512W        W50580   9.954  19.803  14.307
46513W        W50581   8.297  20.084  13.016
46514W        W50582   9.771  18.370  12.136
46515W        W50583   8.902  21.801  12.639
46516W        W50584  10.116  21.263  13.576
46517W        W50585   9.700  21.412  12.687
46518W        W50586   9.719  20.392  12.281
46519W        W50587   9.181  18.617  11.352
46520W        W50588  10.862  18.245  12.074
46521W        W50589   8.550  19.880  11.237
46522W        W50590  10.716  19.217  12.227
46523W        W50591   9.408  20.387  11.104
46524W        W50592  10.344  20.587  13.852
46525W        W50593   9.998  21.288  11.319
46526W        W50594   8.613  18.963  14.225
46527W        W50595   8.433  19.547  13.466
46528W        W50596  10.525  21.042  13.743
46529W        W50597   9.625  18.992  14.120
46530W        W50598   7.469  19.463  13.897
46531W        W50599   9.229  19.940  13.623
46532W        W50600   7.586  20.698  12.280
46533W        W50601   7.733  19.995  13.170
46534W        W50602  10.050  20.281  13.520
46535W        W50603   9.822  21.661  14.331
46536W        W50604   9.718  19.400  13.884
46537W        W50605   9.995  21.454  12.289
46538W        W50606   8.997  21.174  13.612
46539W        W50607   8.482  21.529  12.881
46540W        W50608  10.287  20.700  13.300
46541W        W50609   9.337  20.772  14.437
46542W        W50610   7.942  20.725  12.776
46543W        W50611  10.288  20.484  12.421
46544W        W50612   9.929  21.550  13.172
46545W        W50613   7.907  21.279  13.042
46546W        W50614   8.928  19.331  14.252
46547W        W50615   9.379  21.497  11.763
46548W        W50616   8.687  20.752  14.401
46549W        W50617   8.813  20.990  11.778
46550W        W50618   8.034  19.730  11.037
46551W        W50619   7.373  21.816  17.936
46552W        W50620   7.749  20.709  17.459
46553W        W50621  10.454  20.439  15.229
46554W        W50622  10.584  21.524  17.256
46555W        W50623   8.502  21.515  14.782
46556W        W50624   8.585  19.667  15.765
46557W        W50625   8.100  19.515  15.929
46558W        W50626   9.091  20.330  15.363
46559W        W50627   8.766  21.422  17.718
46560W        W50628   7.415  18.983  17.681
46561W        W50629   8.177  18.263  17.483
46562W        W50630   9.871  18.651  16.370
46563W        W50631   9.520  19.522  14.940
46564W        W50632  10.090  18.956  18.031
46565W        W50633   7.456  18.748  17.156
46566W        W50634   7.555  21.367  18.177
46567W        W50635   9.077  20.757  14.909
46568W        W50636   7.509  19.540  16.602
46569W        W50637   8.402  19.431  17.839
46570W        W50638  10.861  19.290  16.338
46571W        W50639  10.625  20.333  17.197
46572W        W50640   8.933  19.666  16.224
46573W        W50641   9.479  21.005  16.593
46574W        W50642   7.979  20.439  16.825
46575W        W50643   7.338  19.967  16.396
46576W        W50644   8.374  19.939  17.588
46577W        W50645  10.645  19.722  17.842
46578W        W50646   8.261  21.166  16.287
46579W        W50647   9.382  20.855  17.421
46580W        W50648   8.602  19.495  16.646
46581W        W50649   8.894  20.279  16.289
46582W        W50650   9.891  21.052  18.137
46583W        W50651   8.970  20.372  18.147
46584W        W50652   8.951  20.088  17.625
46585W        W50653   7.360  19.479  18.147
46586W        W50654  10.192  21.014  17.746
46587W        W50655   7.773  18.596  15.744
46588W        W50656   8.300  20.854  16.743
46589W        W50657  10.763  20.637  16.033
46590W        W50658  10.176  19.037  16.600
46591W        W50659  10.461  18.990  14.695
46592W        W50660  10.926  19.791  17.001
46593W        W50661   8.893  21.498  16.754
46594W        W50662  10.667  20.964  15.192
46595W        W50663   7.796  21.750  14.946
46596W        W50664   8.189  21.796  15.622
46597W        W50665   7.986  18.550  17.048
46598W        W50666  10.609  19.568  17.323
46599W        W50667  10.014  19.990  15.782
46600W        W50668   9.980  19.678  14.809
46601W        W50669   9.188  20.822  16.949
46602W        W50670   8.994  19.152  16.148
46603W        W50671   9.594  21.239  17.142
46604W        W50672  10.465  20.030  15.564
46605W        W50673   9.367  18.688  15.580
46606W        W50674   8.024  21.382  15.263
46607W        W50675   7.395  18.881  15.862
46608W        W50676  10.181  19.488  16.336
46609W        W50677   7.639  21.105  16.251
46610W        W50678   8.980  21.455  15.121
46611W        W50679  10.372  19.481  14.585
46612W        W50680   7.395  21.239  16.749
46613W        W50681   8.186  20.811  17.229
46614W        W50682   8.559  20.171  15.848
46615W        W50683   8.581  18.576  16.941
46616W        W50684  10.810  18.338  16.238
46617W        W50685   8.029  20.210  14.706
46618W        W50686   7.684  19.243  14.885
46619W        W50687   7.746  21.199  15.679
46620W        W50688   8.877  20.682  15.927
46621W        W50689  10.209  21.541  17.641
46622W        W50690   9.135  19.183  15.325
46623W        W50691  10.518  21.581  16.097
46624W        W50692  10.195  19.434  17.695
46625W        W50693  10.908  21.090  15.829
46626W        W50694   9.535  20.382  17.313
46627W        W50695   7.301  19.933  15.519
46628W        W50696   8.412  20.348  17.092
46629W        W50697   9.616  19.612  15.470
46630W        W50698   9.493  20.102  15.574
46631W        W50699   7.836  19.522  17.048
46632W        W50700   7.821  19.398  17.970
46633W        W50701   7.711  18.315  16.129
46634W        W50702   9.479  18.662  16.690
46635W        W50703   9.127  18.847  17.853
46636W        W50704   9.482  18.996  15.031
46637W        W50705  10.665  21.389  17.785
46638W        W50706   9.632  18.470  17.824
46639W        W50707  10.651  20.771  17.946
46640W        W50708  10.081  18.938  17.542
46641W        W50709   9.881  18.876  15.812
46642W        W50710  10.274  20.010  18.216
46643W        W50711   8.014  21.586  16.202
46644W        W50712   8.672  19.303  15.188
46645W        W50713   8.241  18.587  17.852
46646W        W50714  10.293  19.071  15.533
46647W        W50715  10.660  19.553  15.478
46648W        W50716   8.403  21.770  17.949
46649W        W50717  10.650  18.840  16.219
46650W        W50718  10.800  21.089  14.664
46651W        W50719   7.707  20.292  16.366
46652W        W50720   9.624  18.879  14.596
46653W        W50721  10.758  21.211  16.316
46654W        W50722  10.797  18.405  17.066
46655W        W50723   9.242  19.617  17.620
46656W        W50724   9.335  20.956  15.323
46657W        W50725   9.735  20.250  18.063
46658W        W50726   9.409  18.227  16.372
46659W        W50727   8.021  19.130  16.435
46660W        W50728   7.575  20.330  17.209
46661W        W50729   9.434  21.523  15.915
46662W        W50730  10.628  19.120  16.787
46663W        W50731   9.265  21.467  17.554
46664W        W50732  10.608  20.526  14.759
46665W        W50733   9.043  20.009  15.820
46666W        W50734  10.895  18.520  17.561
46667W        W50735   9.044  20.355  17.155
46668W        W50736   9.261  19.241  16.600
46669W        W50737  10.113  19.539  15.438
46670W        W50738  10.400  19.272  15.080
46671W        W50739  10.209  21.312  15.469
46672W        W50740  10.043  20.915  16.265
46673W        W50741   9.939  19.994  15.243
46674W        W50742   9.372  20.204  16.229
46675W        W50743  10.253  19.992  16.296
46676W        W50744   7.628  19.007  16.720
46677W        W50745  10.406  20.059  17.547
46678W        W50746  10.757  21.677  16.693
46679W        W50747   8.687  21.121  16.095
46680W        W50748   9.694  21.654  17.419
46681W        W50749   9.688  18.984  17.183
46682W        W50750   8.895  21.692  17.244
46683W        W50751  10.592  18.646  15.710
46684W        W50752  10.383  19.965  17.011
46685W        W50753   7.366  19.286  17.049
46686W        W50754  10.226  19.081  16.067
46687W        W50755  10.637  19.232  17.844
46688W        W50756   9.522  20.931  16.062
46689W        W50757   8.778  21.522  15.675
46690W        W50758   7.893  18.702  14.933
46691W        W50759   8.997  18.356  16.743
46692W        W50760   8.025  21.476  14.591
46693W        W50761   8.399  19.942  15.342
46694W        W50762   9.053  20.571  17.655
46695W        W50763   8.883  18.929  15.645
46696W        W50764  10.239  18.526  16.073
46697W        W50765   9.959  21.808  16.401
46698W        W50766   9.371  21.456  16.741
46699W        W50767   8.767  20.493  16.702
46700W        W50768  10.537  21.216  16.828
46701W        W50769   8.231  18.719  15.597
46702W        W50770   8.753  21.016  16.557
46703W        W50771   8.236  18.947  14.622
46704W        W50772   9.037  19.556  17.016
46705W        W50773   9.885  18.422  16.886
46706W        W50774   7.305  20.265  16.771
46707W        W50775   9.009  20.083  14.929
46708W        W50776   8.277  18.398  14.699
46709W        W50777   9.015  19.479  15.750
46710W        W50778   9.985  18.455  17.449
46711W        W50779   8.573  20.467  17.558
46712W        W50780   9.377  20.249  17.775
46713W        W50781   9.994  20.279  17.668
46714W        W50782   9.278  18.419  18.173
46715W        W50783   8.500  19.035  16.566
46716W        W50784   7.926  18.991  15.964
46717W        W50785   7.712  21.703  15.640
46718W        W50786   9.044  21.033  17.765
46719W        W50787   8.079  20.518  15.124
46720W        W50788   9.759  19.903  16.345
46721W        W50789  10.039  19.702  16.744
46722W        W50790   9.244  20.376  16.678
46723W        W50791   9.714  20.750  14.810
46724W        W50792   9.386  18.771  16.138
46725W        W50793  10.865  19.049  15.406
46726W        W50794   7.359  21.638  17.437
46727W        W50795   7.776  20.864  16.969
46728W        W50796   7.343  21.710  15.201
46729W        W50797   9.242  18.980  17.007
46730W        W50798   8.605  21.003  14.856
46731W        W50799  10.510  21.385  15.042
46732W        W50800   9.485  20.038  15.056
46733W        W50801   8.328  19.229  15.573
46734W        W50802   9.160  19.139  14.625
46735W        W50803   9.744  20.704  17.803
46736W        W50804  10.097  18.610  15.420
46737W        W50805   7.427  18.458  14.868
46738W        W50806   8.713  20.777  17.158
46739W        W50807   8.512  20.693  16.250
46740W        W50808   8.254  20.645  14.648
46741W        W50809   7.495  20.886  15.416
46742W        W50810   7.999  19.956  17.858
46743W        W50811   8.703  18.516  18.044
46744W        W50812   9.412  18.658  17.400
46745W        W50813   8.607  18.426  15.681
46746W        W50814   9.666  18.503  15.186
46747W        W50815   7.611  18.435  16.763
46748W        W50816   7.659  19.398  16.133
46749W        W50817  10.348  18.506  16.539
46750W        W50818   7.770  19.004  15.353
46751W        W50819  10.341  18.692  16.969
46752W        W50820  10.737  19.895  14.654
46753W        W50821   8.029  18.653  16.473
46754W        W50822   9.143  19.225  17.413
46755W        W50823   7.291  18.915  14.891
46756W        W50824   8.077  20.304  17.452
46757W        W50825   9.435  19.702  16.631
46758W        W50826   9.302  21.781  14.927
46759W        W50827   7.448  20.288  14.624
46760W        W50828   8.183  20.699  17.750
46761W        W50829   7.704  19.866  17.381
46762W        W50830   8.695  19.971  17.175
46763W        W50831  10.463  18.330  17.437
46764W        W50832  10.861  19.940  17.428
46765W        W50833  10.849  20.140  15.114
46766W        W50834   9.712  20.472  15.213
46767W        W50835  10.186  21.772  14.908
46768W        W50836   9.363  19.762  18.050
46769W        W50837   7.693  20.729  18.090
46770W        W50838  10.899  18.651  18.042
46771W        W50839  10.617  19.579  16.663
46772W        W50840   8.925  21.709  18.140
46773W        W50841   8.780  18.338  14.867
46774W        W50842  10.319  20.937  14.810
46775W        W50843   8.088  19.030  17.696
46776W        W50844   8.522  21.024  17.558
46777W        W50845  10.648  19.015  17.356
46778W        W50846   9.859  21.674  15.324
46779W        W50847  10.098  20.293  16.691
46780W        W50848   8.348  18.709  17.358
46781W        W50849   8.817  19.778  18.115
46782W        W50850   8.320  20.957  15.309
46783W        W50851  10.075  20.455  15.573
46784W        W50852   7.843  19.081  17.297
46785W        W50853   9.172  21.143  15.761
46786W        W50854  10.922  19.703  15.942
46787W        W50855   9.144  18.336  17.661
46788W        W50856   9.924  21.041  16.740
46789W        W50857  10.227  21.385  16.448
46790W        W50858   9.446  21.187  14.876
46791W        W50859   7.456  21.079  17.718
46792W        W50860   8.199  19.071  16.956
46793W        W50861   8.169  18.419  16.066
46794W        W50862   9.790  19.261  16.758
46795W        W50863   8.588  20.432  14.958
46796W        W50864  10.586  20.374  16.457
46797W        W50865   7.913  21.132  17.880
46798W        W50866  10.300  21.814  15.677
46799W        W50867   8.399  18.834  16.122
46800W        W50868   8.168  20.327  16.212
46801W        W50869   8.481  21.738  16.962
46802W        W50870  10.548  21.834  17.994
46803W        W50871   9.707  20.022  16.927
46804W        W50872   7.556  19.820  14.842
46805W        W50873  10.690  21.478  15.539
46806W        W50874  10.527  18.802  15.158
46807W        W50875   8.666  18.321  17.561
46808W        W50876  10.372  21.123  16.019
46809W        W50877  10.401  19.679  15.924
46810W        W50878   8.518  19.352  16.140
46811W        W50879   8.763  19.614  17.464
46812W        W50880   9.874  20.767  17.327
46813W        W50881   8.524  19.221  17.439
46814W        W50882   8.503  21.687  16.055
46815W        W50883   7.820  21.646  17.689
46816W        W50884   7.932  21.007  14.819
46817W        W50885  10.449  20.765  15.629
46818W        W50886   8.053  19.557  17.515
46819W        W50887  10.826  19.487  14.996
46820W        W50888   8.571  20.544  15.467
46821W        W50889   9.670  19.926  17.548
46822W        W50890   9.561  19.554  17.092
46823W        W50891   8.121  19.926  17.121
46824W        W50892  10.331  21.814  16.950
46825W        W50893  10.122  18.448  17.944
46826W        W50894   7.786  18.598  17.531
46827W        W50895   8.125  19.621  16.584
46828W        W50896   8.494  19.435  14.706
46829W        W50897   7.297  21.194  17.251
46830W        W50898   8.882  19.903  16.694
46831W        W50899   7.840  19.744  15.580
46832W        W50900   7.611  21.596  17.017
46833W        W50901  10.406  19.822  15.125
46834W        W50902  10.501  18.738  17.811
46835W        W50903   9.937  20.947  15.774
46836W        W50904   7.535  19.871  17.951
46837W        W50905  10.501  18.335  15.247
46838W        W50906  10.021  20.810  15.258
46839W        W50907   8.923  19.868  15.343
46840W        W50908  10.110  18.672  14.866
46841W        W50909  10.175  19.279  17.052
46842W        W50910   7.884  19.872  16.259
46843W        W50911   8.178  20.811  15.908
46844W        W50912   9.941  19.431  15.873
46845W        W50913   8.964  18.810  16.569
46846W        W50914  10.926  20.721  17.080
46847W        W50915  10.844  18.708  16.641
46848W        W50916   7.383  21.538  16.017
46849W        W50917   7.892  20.725  15.553
46850W        W50918   7.807  18.342  18.106
46851W        W50919   8.926  21.195  18.208
46852W        W50920  10.681  20.163  15.998
46853W        W50921  10.035  20.340  14.878
46854W        W50922   9.330  21.861  17.090
46855W        W50923  10.187  20.583  18.127
46856W        W50924   9.715  19.162  16.266
46857W        W50925   7.401  20.749  16.598
46858W        W50926   8.458  20.195  18.088
46859W        W50927   9.452  19.176  15.802
46860W        W50928   9.657  20.586  16.924
46861W        W50929   7.811  21.191  17.359
46862W        W50930   8.402  21.174  18.082
46863W        W50931   8.253  18.971  15.096
46864W        W50932   9.770  19.113  15.421
46865W        W50933   9.728  21.221  17.658
46866W        W50934   8.413  19.813  16.257
46867W        W50935   8.068  21.511  17.122
46868W        W50936  10.813  21.628  14.723
46869W        W50937   7.676  20.300  17.719
46870W        W50938   9.671  20.562  16.407
46871W        W50939   8.107  20.211  15.649
46872W        W50940   8.478  21.218  17.044
46873W        W50941   8.856  18.637  16.085
46874W        W50942   7.467  20.621  15.015
46875W        W50943   8.986  19.572  14.885
46876W        W50944   7.632  20.121  15.904
46877W        W50945   8.922  18.763  17.368
46878W        W50946  10.594  18.472  14.795
46879W        W50947  10.687  20.218  17.894
46880W        W50948   9.341  21.475  18.046
46881W        W50949  10.899  20.569  17.568
46882W        W50950  10.307  21.367  18.179
46883W        W50951   8.046  21.823  16.657
46884W        W50952  10.905  20.445  15.531
46885W        W50953   9.435  19.712  16.044
46886W        W50954   9.202  18.324  15.934
46887W        W50955   8.261  21.308  15.771
46888W        W50956   8.760  19.049  16.996
46889W        W50957   8.460  18.418  16.465
46890W        W50958   7.523  21.240  15.013
46891W        W50959   9.339  20.604  15.731
46892W        W50960   8.214  21.399  17.610
46893W        W50961   7.691  20.222  15.306
46894W        W50962   7.576  18.765  16.305
46895W        W50963   9.124  20.730  16.362
46896W        W50964   7.376  18.584  15.382
46897W        W50965  10.040  19.790  17.309
46898W        W50966   9.917  19.176  14.881
46899W        W50967  10.434  20.848  16.529
46900W        W50968   9.095  21.332  16.360
46901W        W50969   8.507  21.436  15.271
46902W        W50970   9.789  18.339  14.701
46903W        W50971   7.589  21.599  16.442
46904W        W50972   9.786  19.357  18.077
46905W        W50973   7.769  18.887  18.076
46906W        W50974   7.500  19.487  15.409
46907W        W50975   8.191  19.476  15.134
46908W        W50976   9.954  19.803  17.951
46909W        W50977   8.297  20.084  16.660
46910W        W50978   9.771  18.370  15.780
46911W        W50979   8.902  21.801  16.283
46912W        W50980  10.116  21.263  17.220
46913W        W50981   9.700  21.412  16.331
46914W        W50982   9.719  20.392  15.925
46915W        W50983   9.181  18.617  14.996
46916W        W50984  10.862  18.245  15.718
46917W        W50985   8.550  19.880  14.881
46918W        W50986  10.716  19.217  15.871
46919W        W50987   9.408  20.387  14.748
46920W        W50988  10.344  20.587  17.496
46921W        W50989   9.998  21.288  14.963
46922W        W50990   8.613  18.963  17.869
46923W        W50991   8.433  19.547  17.110
46924W        W50992  10.525  21.042  17.387
46925W        W50993   9.625  18.992  17.764
46926W        W50994   7.469  19.463  17.541
46927W        W50995   9.229  19.940  17.267
46928W        W50996   7.586  20.698  15.924
46929W        W50997   7.733  19.995  16.814
46930W        W50998  10.050  20.281  17.164
46931W        W50999   9.822  21.661  17.975
46932W        W51000   9.718  19.400  17.528
46933W        W51001   9.995  21.454  15.933
46934W        W51002   8.997  21.174  17.256
46935W        W51003   8.482  21.529  16.525
46936W        W51004  10.287  20.700  16.944
46937W        W51005   9.337  20.772  18.081
46938W        W51006   7.942  20.725  16.420
46939W        W51007  10.288  20.484  16.065
46940W        W51008   9.929  21.550  16.816
46941W        W51009   7.907  21.279  16.686
46942W        W51010   8.928  19.331  17.896
46943W        W51011   9.379  21.497  15.407
46944W        W51012   8.687  20.752  18.045
46945W        W51013   8.813  20.990  15.422
46946W        W51014   8.034  19.730  14.681
46947W        W51015   7.373  21.816  21.580
46948W        W51016   7.749  20.709  21.103
46949W        W51017  10.454  20.439  18.873
46950W        W51018  10.584  21.524  20.900
46951W        W51019   8.502  21.515  18.426
46952W        W51020   8.585  19.667  19.409
46953W        W51021   8.100  19.515  19.573
46954W        W51022   9.091  20.330  19.007
46955W        W51023   8.766  21.422  21.362
46956W        W51024   7.415  18.983  21.325
46957W        W51025   8.177  18.263  21.127
46958W        W51026   9.871  18.651  20.014
46959W        W51027   9.520  19.522  18.584
46960W        W51028  10.090  18.956  21.675
46961W        W51029   7.456  18.748  20.800
46962W        W51030   7.555  21.367  21.821
46963W        W51031   9.077  20.757  18.553
46964W        W51032   7.509  19.540  20.246
46965W        W51033   8.402  19.431  21.483
46966W        W51034  10.861  19.290  19.982
46967W        W51035  10.625  20.333  20.841
46968W        W51036   8.933  19.666  19.868
46969W        W51037   9.479  21.005  20.237
46970W        W51038   7.979  20.439  20.469
46971W        W51039   7.338  19.967  20.040
46972W        W51040   8.374  19.939  21.232
46973W        W51041  10.645  19.722  21.486
46974W        W51042   8.261  21.166  19.931
46975W        W51043   9.382  20.855  21.065
46976W        W51044   8.602  19.495  20.290
46977W        W51045   8.894  20.279  19.933
46978W        W51046   9.891  21.052  21.781
46979W        W51047   8.970  20.372  21.791
46980W        W51048   8.951  20.088  21.269
46981W        W51049   7.360  19.479  21.791
46982W        W51050  10.192  21.014  21.390
46983W        W51051   7.773  18.596  19.388
46984W        W51052   8.300  20.854  20.387
46985W        W51053  10.763  20.637  19.677
46986W        W51054  10.176  19.037  20.244
46987W        W51055  10.461  18.990  18.339
46988W        W51056  10.926  19.791  20.645
46989W        W51057   8.893  21.498  20.398
46990W        W51058  10.667  20.964  18.836
46991W        W51059   7.796  21.750  18.590
46992W        W51060   8.189  21.796  19.266
46993W        W51061   7.986  18.550  20.692
46994W        W51062  10.609  19.568  20.967
46995W        W51063  10.014  19.990  19.426
46996W        W51064   9.980  19.678  18.453
46997W        W51065   9.188  20.822  20.593
46998W        W51066   8.994  19.152  19.792
46999W        W51067   9.594  21.239  20.786
47000W        W51068  10.465  20.030  19.208
47001W        W51069   9.367  18.688  19.224
47002W        W51070   8.024  21.382  18.907
47003W        W51071   7.395  18.881  19.506
47004W        W51072  10.181  19.488  19.980
47005W        W51073   7.639  21.105  19.895
47006W        W51074   8.980  21.455  18.765
47007W        W51075  10.372  19.481  18.229
47008W        W51076   7.395  21.239  20.393
47009W        W51077   8.186  20.811  20.873
47010W        W51078   8.559  20.171  19.492
47011W        W51079   8.581  18.576  20.585
47012W        W51080  10.810  18.338  19.882
47013W        W51081   8.029  20.210  18.350
47014W        W51082   7.684  19.243  18.529
47015W        W51083   7.746  21.199  19.323
47016W        W51084   8.877  20.682  19.571
47017W        W51085  10.209  21.541  21.285
47018W        W51086   9.135  19.183  18.969
47019W        W51087  10.518  21.581  19.741
47020W        W51088  10.195  19.434  21.339
47021W        W51089  10.908  21.090  19.473
47022W        W51090   9.535  20.382  20.957
47023W        W51091   7.301  19.933  19.163
47024W        W51092   8.412  20.348  20.736
47025W        W51093   9.616  19.612  19.114
47026W        W51094   9.493  20.102  19.218
47027W        W51095   7.836  19.522  20.692
47028W        W51096   7.821  19.398  21.614
47029W        W51097   7.711  18.315  19.773
47030W        W51098   9.479  18.662  20.334
47031W        W51099   9.127  18.847  21.497
47032W        W51100   9.482  18.996  18.675
47033W        W51101  10.665  21.389  21.429
47034W        W51102   9.632  18.470  21.468
47035W        W51103  10.651  20.771  21.590
47036W        W51104  10.081  18.938  21.186
47037W        W51105   9.881  18.876  19.456
47038W        W51106  10.274  20.010  21.860
47039W        W51107   8.014  21.586  19.846
47040W        W51108   8.672  19.303  18.832
47041W        W51109   8.241  18.587  21.496
47042W        W51110  10.293  19.071  19.177
47043W        W51111  10.660  19.553  19.122
47044W        W51112   8.403  21.770  21.593
47045W        W51113   8.329  18.306  18.828
47046W        W51114  10.650  18.840  19.863
47047W        W51115  10.800  21.089  18.308
47048W        W51116   7.707  20.292  20.010
47049W        W51117   9.624  18.879  18.240
47050W        W51118  10.758  21.211  19.960
47051W        W51119  10.797  18.405  20.710
47052W        W51120   9.242  19.617  21.264
47053W        W51121   9.335  20.956  18.967
47054W        W51122   9.735  20.250  21.707
47055W        W51123   9.409  18.227  20.016
47056W        W51124   8.021  19.130  20.079
47057W        W51125   7.575  20.330  20.853
47058W        W51126   9.434  21.523  19.559
47059W        W51127  10.628  19.120  20.431
47060W        W51128   9.265  21.467  21.198
47061W        W51129  10.608  20.526  18.403
47062W        W51130   9.043  20.009  19.464
47063W        W51131  10.895  18.520  21.205
47064W        W51132   9.044  20.355  20.799
47065W        W51133   9.261  19.241  20.244
47066W        W51134  10.113  19.539  19.082
47067W        W51135  10.400  19.272  18.724
47068W        W51136  10.209  21.312  19.113
47069W        W51137  10.043  20.915  19.909
47070W        W51138   9.939  19.994  18.887
47071W        W51139   9.372  20.204  19.873
47072W        W51140  10.253  19.992  19.940
47073W        W51141   7.628  19.007  20.364
47074W        W51142  10.406  20.059  21.191
47075W        W51143  10.757  21.677  20.337
47076W        W51144   8.687  21.121  19.739
47077W        W51145   9.694  21.654  21.063
47078W        W51146   9.688  18.984  20.827
47079W        W51147   8.895  21.692  20.888
47080W        W51148  10.592  18.646  19.354
47081W        W51149  10.383  19.965  20.655
47082W        W51150   7.366  19.286  20.693
47083W        W51151  10.226  19.081  19.711
47084W        W51152  10.637  19.232  21.488
47085W        W51153   9.522  20.931  19.706
47086W        W51154   8.778  21.522  19.319
47087W        W51155   7.893  18.702  18.577
47088W        W51156   8.997  18.356  20.387
47089W        W51157   8.025  21.476  18.235
47090W        W51158   8.399  19.942  18.986
47091W        W51159   9.053  20.571  21.299
47092W        W51160   8.883  18.929  19.289
47093W        W51161  10.239  18.526  19.717
47094W        W51162   9.959  21.808  20.045
47095W        W51163   9.371  21.456  20.385
47096W        W51164   8.767  20.493  20.346
47097W        W51165  10.537  21.216  20.472
47098W        W51166   8.231  18.719  19.241
47099W        W51167   8.753  21.016  20.201
47100W        W51168   8.236  18.947  18.266
47101W        W51169   9.037  19.556  20.660
47102W        W51170   9.885  18.422  20.530
47103W        W51171   7.305  20.265  20.415
47104W        W51172   9.009  20.083  18.573
47105W        W51173   8.277  18.398  18.343
47106W        W51174   9.015  19.479  19.394
47107W        W51175   9.985  18.455  21.093
47108W        W51176   8.573  20.467  21.202
47109W        W51177   9.377  20.249  21.419
47110W        W51178   9.994  20.279  21.312
47111W        W51179   9.278  18.419  21.817
47112W        W51180   8.500  19.035  20.210
47113W        W51181   7.926  18.991  19.608
47114W        W51182   7.712  21.703  19.284
47115W        W51183   9.044  21.033  21.409
47116W        W51184   8.079  20.518  18.768
47117W        W51185   9.759  19.903  19.989
47118W        W51186  10.039  19.702  20.388
47119W        W51187   9.244  20.376  20.322
47120W        W51188   9.714  20.750  18.454
47121W        W51189   9.386  18.771  19.782
47122W        W51190  10.865  19.049  19.050
47123W        W51191   7.359  21.638  21.081
47124W        W51192   7.776  20.864  20.613
47125W        W51193   7.343  21.710  18.845
47126W        W51194   9.242  18.980  20.651
47127W        W51195   8.605  21.003  18.500
47128W        W51196  10.510  21.385  18.686
47129W        W51197   9.485  20.038  18.700
47130W        W51198   8.328  19.229  19.217
47131W        W51199   9.160  19.139  18.269
47132W        W51200   9.744  20.704  21.447
47133W        W51201  10.097  18.610  19.064
47134W        W51202   7.427  18.458  18.512
47135W        W51203   8.713  20.777  20.802
47136W        W51204   8.512  20.693  19.894
47137W        W51205   8.254  20.645  18.292
47138W        W51206   7.495  20.886  19.060
47139W        W51207   7.999  19.956  21.502
47140W        W51208   8.703  18.516  21.688
47141W        W51209   9.412  18.658  21.044
47142W        W51210   8.607  18.426  19.325
47143W        W51211   9.666  18.503  18.830
47144W        W51212   7.611  18.435  20.407
47145W        W51213   7.659  19.398  19.777
47146W        W51214  10.348  18.506  20.183
47147W        W51215   7.770  19.004  18.997
47148W        W51216  10.341  18.692  20.613
47149W        W51217  10.737  19.895  18.298
47150W        W51218   8.029  18.653  20.117
47151W        W51219   9.143  19.225  21.057
47152W        W51220   7.291  18.915  18.535
47153W        W51221   8.077  20.304  21.096
47154W        W51222   9.435  19.702  20.275
47155W        W51223   9.302  21.781  18.571
47156W        W51224   7.448  20.288  18.268
47157W        W51225   8.183  20.699  21.394
47158W        W51226   7.704  19.866  21.025
47159W        W51227   8.695  19.971  20.819
47160W        W51228  10.463  18.330  21.081
47161W        W51229  10.861  19.940  21.072
47162W        W51230  10.849  20.140  18.758
47163W        W51231   9.712  20.472  18.857
47164W        W51232  10.186  21.772  18.552
47165W        W51233   9.363  19.762  21.694
47166W        W51234   7.693  20.729  21.734
47167W        W51235  10.899  18.651  21.686
47168W        W51236  10.617  19.579  20.307
47169W        W51237   8.925  21.709  21.784
47170W        W51238   8.780  18.338  18.511
47171W        W51239  10.319  20.937  18.454
47172W        W51240   8.088  19.030  21.340
47173W        W51241   8.522  21.024  21.202
47174W        W51242  10.648  19.015  21.000
47175W        W51243   9.859  21.674  18.968
47176W        W51244  10.098  20.293  20.335
47177W        W51245   8.348  18.709  21.002
47178W        W51246   8.817  19.778  21.759
47179W        W51247   8.320  20.957  18.953
47180W        W51248  10.075  20.455  19.217
47181W        W51249   7.843  19.081  20.941
47182W        W51250   9.172  21.143  19.405
47183W        W51251  10.922  19.703  19.586
47184W        W51252   9.144  18.336  21.305
47185W        W51253   9.924  21.041  20.384
47186W        W51254  10.227  21.385  20.092
47187W        W51255   9.446  21.187  18.520
47188W        W51256   7.456  21.079  21.362
47189W        W51257   8.199  19.071  20.600
47190W        W51258   8.169  18.419  19.710
47191W        W51259   9.790  19.261  20.402
47192W        W51260   8.588  20.432  18.602
47193W        W51261  10.586  20.374  20.101
47194W        W51262   7.913  21.132  21.524
47195W        W51263  10.300  21.814  19.321
47196W        W51264   8.399  18.834  19.766
47197W        W51265   8.168  20.327  19.856
47198W        W51266   8.481  21.738  20.606
47199W        W51267  10.548  21.834  21.638
47200W        W51268   9.707  20.022  20.571
47201W        W51269   7.556  19.820  18.486
47202W        W51270  10.690  21.478  19.183
47203W        W51271  10.527  18.802  18.802
47204W        W51272   8.666  18.321  21.205
47205W        W51273  10.372  21.123  19.663
47206W        W51274  10.401  19.679  19.568
47207W        W51275   8.518  19.352  19.784
47208W        W51276   8.763  19.614  21.108
47209W        W51277   9.874  20.767  20.971
47210W        W51278   8.524  19.221  21.083
47211W        W51279   8.503  21.687  19.699
47212W        W51280   7.820  21.646  21.333
47213W        W51281   7.932  21.007  18.463
47214W        W51282  10.449  20.765  19.273
47215W        W51283   8.053  19.557  21.159
47216W        W51284  10.826  19.487  18.640
47217W        W51285   8.571  20.544  19.111
47218W        W51286   9.670  19.926  21.192
47219W        W51287   9.561  19.554  20.736
47220W        W51288   8.121  19.926  20.765
47221W        W51289  10.331  21.814  20.594
47222W        W51290  10.122  18.448  21.588
47223W        W51291   7.786  18.598  21.175
47224W        W51292   8.125  19.621  20.228
47225W        W51293   8.494  19.435  18.350
47226W        W51294   7.297  21.194  20.895
47227W        W51295   8.882  19.903  20.338
47228W        W51296   8.705  18.928  18.443
47229W        W51297   7.840  19.744  19.224
47230W        W51298   7.611  21.596  20.661
47231W        W51299  10.406  19.822  18.769
47232W        W51300  10.501  18.738  21.455
47233W        W51301   9.937  20.947  19.418
47234W        W51302   7.535  19.871  21.595
47235W        W51303  10.501  18.335  18.891
47236W        W51304  10.021  20.810  18.902
47237W        W51305   8.923  19.868  18.987
47238W        W51306  10.110  18.672  18.510
47239W        W51307  10.175  19.279  20.696
47240W        W51308   7.884  19.872  19.903
47241W        W51309   8.178  20.811  19.552
47242W        W51310   9.941  19.431  19.517
47243W        W51311   8.964  18.810  20.213
47244W        W51312  10.926  20.721  20.724
47245W        W51313  10.844  18.708  20.285
47246W        W51314   7.383  21.538  19.661
47247W        W51315   7.892  20.725  19.197
47248W        W51316   7.807  18.342  21.750
47249W        W51317   8.926  21.195  21.852
47250W        W51318  10.681  20.163  19.642
47251W        W51319  10.035  20.340  18.522
47252W        W51320   9.330  21.861  20.734
47253W        W51321  10.187  20.583  21.771
47254W        W51322   9.002  18.293  19.051
47255W        W51323   9.715  19.162  19.910
47256W        W51324   7.401  20.749  20.242
47257W        W51325   8.654  18.711  18.883
47258W        W51326   8.458  20.195  21.732
47259W        W51327   9.452  19.176  19.446
47260W        W51328   9.657  20.586  20.568
47261W        W51329   7.811  21.191  21.003
47262W        W51330   8.402  21.174  21.726
47263W        W51331   8.253  18.971  18.740
47264W        W51332   9.770  19.113  19.065
47265W        W51333   9.728  21.221  21.302
47266W        W51334   8.413  19.813  19.901
47267W        W51335   8.068  21.511  20.766
47268W        W51336  10.813  21.628  18.367
47269W        W51337   7.676  20.300  21.363
47270W        W51338   9.671  20.562  20.051
47271W        W51339   8.107  20.211  19.293
47272W        W51340   8.478  21.218  20.688
47273W        W51341   8.856  18.637  19.729
47274W        W51342   7.467  20.621  18.659
47275W        W51343   8.986  19.572  18.529
47276W        W51344   7.632  20.121  19.548
47277W        W51345   8.922  18.763  21.012
47278W        W51346  10.594  18.472  18.439
47279W        W51347  10.687  20.218  21.538
47280W        W51348   9.341  21.475  21.690
47281W        W51349  10.899  20.569  21.212
47282W        W51350  10.307  21.367  21.823
47283W        W51351   8.046  21.823  20.301
47284W        W51352  10.905  20.445  19.175
47285W        W51353   9.435  19.712  19.688
47286W        W51354   9.202  18.324  19.578
47287W        W51355   8.261  21.308  19.415
47288W        W51356   8.760  19.049  20.640
47289W        W51357   8.460  18.418  20.109
47290W        W51358   7.523  21.240  18.657
47291W        W51359   9.339  20.604  19.375
47292W        W51360   8.214  21.399  21.254
47293W        W51361   7.691  20.222  18.950
47294W        W51362   7.576  18.765  19.949
47295W        W51363   9.124  20.730  20.006
47296W        W51364   7.376  18.584  19.026
47297W        W51365  10.040  19.790  20.953
47298W        W51366   9.917  19.176  18.525
47299W        W51367  10.434  20.848  20.173
47300W        W51368   9.095  21.332  20.004
47301W        W51369   8.507  21.436  18.915
47302W        W51370   9.789  18.339  18.345
47303W        W51371   7.589  21.599  20.086
47304W        W51372   9.786  19.357  21.721
47305W        W51373   7.769  18.887  21.720
47306W        W51374   7.500  19.487  19.053
47307W        W51375   8.191  19.476  18.778
47308W        W51376   9.954  19.803  21.595
47309W        W51377   8.297  20.084  20.304
47310W        W51378   9.771  18.370  19.424
47311W        W51379   8.902  21.801  19.927
47312W        W51380  10.116  21.263  20.864
47313W        W51381   9.700  21.412  19.975
47314W        W51382   9.719  20.392  19.569
47315W        W51383  10.862  18.245  19.362
47316W        W51384   8.550  19.880  18.525
47317W        W51385  10.716  19.217  19.515
47318W        W51386   9.408  20.387  18.392
47319W        W51387  10.344  20.587  21.140
47320W        W51388   9.998  21.288  18.607
47321W        W51389   8.613  18.963  21.513
47322W        W51390   8.433  19.547  20.754
47323W        W51391  10.525  21.042  21.031
47324W        W51392   9.625  18.992  21.408
47325W        W51393   7.469  19.463  21.185
47326W        W51394   9.229  19.940  20.911
47327W        W51395   7.586  20.698  19.568
47328W        W51396   7.733  19.995  20.458
47329W        W51397  10.050  20.281  20.808
47330W        W51398   9.822  21.661  21.619
47331W        W51399   9.718  19.400  21.172
47332W        W51400   9.995  21.454  19.577
47333W        W51401   8.997  21.174  20.900
47334W        W51402   8.482  21.529  20.169
47335W        W51403  10.287  20.700  20.588
47336W        W51404   9.337  20.772  21.725
47337W        W51405   7.942  20.725  20.064
47338W        W51406  10.288  20.484  19.709
47339W        W51407   9.929  21.550  20.460
47340W        W51408   7.907  21.279  20.330
47341W        W51409   8.928  19.331  21.540
47342W        W51410   9.379  21.497  19.051
47343W        W51411   8.687  20.752  21.689
47344W        W51412   8.813  20.990  19.066
47345W        W51413   8.034  19.730  18.325
47346W        W51414  10.454  20.439  22.518
47347W        W51415   8.502  21.515  22.071
47348W        W51416   8.585  19.667  23.054
47349W        W51417   8.100  19.515  23.218
47350W        W51418   9.091  20.330  22.652
47351W        W51419   9.520  19.522  22.229
47352W        W51420   9.077  20.757  22.198
47353W        W51421   7.773  18.596  23.033
47354W        W51422  10.461  18.990  21.984
47355W        W51423  10.667  20.964  22.481
47356W        W51424   7.796  21.750  22.235
47357W        W51425   8.189  21.796  22.911
47358W        W51426  10.014  19.990  23.071
47359W        W51427   9.980  19.678  22.098
47360W        W51428  10.465  20.030  22.853
47361W        W51429   9.367  18.688  22.869
47362W        W51430   8.024  21.382  22.552
47363W        W51431   8.980  21.455  22.410
47364W        W51432  10.372  19.481  21.874
47365W        W51433   8.559  20.171  23.137
47366W        W51434   8.029  20.210  21.995
47367W        W51435   7.684  19.243  22.174
47368W        W51436   7.746  21.199  22.968
47369W        W51437   8.877  20.682  23.216
47370W        W51438   9.135  19.183  22.614
47371W        W51439   7.301  19.933  22.808
47372W        W51440   9.616  19.612  22.759
47373W        W51441   9.493  20.102  22.863
47374W        W51442   9.482  18.996  22.320
47375W        W51443   9.881  18.876  23.101
47376W        W51444   8.672  19.303  22.477
47377W        W51445  10.293  19.071  22.822
47378W        W51446  10.660  19.553  22.767
47379W        W51447   8.329  18.306  22.473
47380W        W51448  10.800  21.089  21.953
47381W        W51449   9.624  18.879  21.885
47382W        W51450   9.335  20.956  22.612
47383W        W51451   9.434  21.523  23.204
47384W        W51452  10.608  20.526  22.048
47385W        W51453   9.043  20.009  23.109
47386W        W51454  10.113  19.539  22.727
47387W        W51455  10.400  19.272  22.369
47388W        W51456  10.209  21.312  22.758
47389W        W51457   9.939  19.994  22.532
47390W        W51458  10.592  18.646  22.999
47391W        W51459   8.778  21.522  22.964
47392W        W51460   7.893  18.702  22.222
47393W        W51461   8.025  21.476  21.880
47394W        W51462   8.399  19.942  22.631
47395W        W51463   8.883  18.929  22.934
47396W        W51464   8.231  18.719  22.886
47397W        W51465   8.236  18.947  21.911
47398W        W51466   9.009  20.083  22.218
47399W        W51467   8.277  18.398  21.988
47400W        W51468   9.015  19.479  23.039
47401W        W51469   7.926  18.991  23.253
47402W        W51470   7.712  21.703  22.929
47403W        W51471   8.079  20.518  22.413
47404W        W51472   9.714  20.750  22.099
47405W        W51473  10.865  19.049  22.695
47406W        W51474   7.343  21.710  22.490
47407W        W51475   8.605  21.003  22.145
47408W        W51476  10.510  21.385  22.331
47409W        W51477   9.485  20.038  22.345
47410W        W51478   8.328  19.229  22.862
47411W        W51479   9.160  19.139  21.914
47412W        W51480  10.097  18.610  22.709
47413W        W51481   7.427  18.458  22.157
47414W        W51482   8.254  20.645  21.937
47415W        W51483   7.495  20.886  22.705
47416W        W51484   8.607  18.426  22.970
47417W        W51485   9.666  18.503  22.475
47418W        W51486   7.770  19.004  22.642
47419W        W51487  10.737  19.895  21.943
47420W        W51488   7.291  18.915  22.180
47421W        W51489   9.302  21.781  22.216
47422W        W51490   7.448  20.288  21.913
47423W        W51491  10.849  20.140  22.403
47424W        W51492   9.712  20.472  22.502
47425W        W51493  10.186  21.772  22.197
47426W        W51494   8.780  18.338  22.156
47427W        W51495  10.319  20.937  22.099
47428W        W51496   9.859  21.674  22.613
47429W        W51497   8.320  20.957  22.598
47430W        W51498  10.075  20.455  22.862
47431W        W51499   9.172  21.143  23.050
47432W        W51500  10.922  19.703  23.231
47433W        W51501   9.446  21.187  22.165
47434W        W51502   8.588  20.432  22.247
47435W        W51503  10.300  21.814  22.966
47436W        W51504   7.556  19.820  22.131
47437W        W51505  10.690  21.478  22.828
47438W        W51506  10.527  18.802  22.447
47439W        W51507  10.401  19.679  23.213
47440W        W51508   7.932  21.007  22.108
47441W        W51509  10.449  20.765  22.918
47442W        W51510  10.826  19.487  22.285
47443W        W51511   8.571  20.544  22.756
47444W        W51512   8.494  19.435  21.995
47445W        W51513   8.705  18.928  22.088
47446W        W51514   7.840  19.744  22.869
47447W        W51515  10.406  19.822  22.414
47448W        W51516   9.937  20.947  23.063
47449W        W51517  10.501  18.335  22.536
47450W        W51518  10.021  20.810  22.547
47451W        W51519   8.923  19.868  22.632
47452W        W51520  10.110  18.672  22.155
47453W        W51521   8.178  20.811  23.197
47454W        W51522   9.941  19.431  23.162
47455W        W51523   7.383  21.538  23.306
47456W        W51524   7.892  20.725  22.842
47457W        W51525  10.681  20.163  23.287
47458W        W51526  10.035  20.340  22.167
47459W        W51527   9.002  18.293  22.696
47460W        W51528   8.654  18.711  22.528
47461W        W51529   9.452  19.176  23.091
47462W        W51530   8.253  18.971  22.385
47463W        W51531   9.770  19.113  22.710
47464W        W51532  10.813  21.628  22.012
47465W        W51533   7.467  20.621  22.304
47466W        W51534   8.986  19.572  22.174
47467W        W51535   7.632  20.121  23.193
47468W        W51536  10.594  18.472  22.084
47469W        W51537  10.905  20.445  22.820
47470W        W51538   9.202  18.324  23.223
47471W        W51539   8.261  21.308  23.060
47472W        W51540   7.523  21.240  22.302
47473W        W51541   9.339  20.604  23.020
47474W        W51542   7.691  20.222  22.595
47475W        W51543   7.376  18.584  22.671
47476W        W51544   9.917  19.176  22.170
47477W        W51545   8.507  21.436  22.560
47478W        W51546   9.789  18.339  21.990
47479W        W51547   7.500  19.487  22.698
47480W        W51548   8.191  19.476  22.423
47481W        W51549   9.719  20.392  23.214
47482W        W51550   9.181  18.617  22.285
47483W        W51551  10.862  18.245  23.007
47484W        W51552   8.550  19.880  22.170
47485W        W51553  10.716  19.217  23.160
47486W        W51554   9.408  20.387  22.037
47487W        W51555   9.998  21.288  22.252
47488W        W51556   7.586  20.698  23.213
47489W        W51557   9.995  21.454  23.222
47490W        W51558   9.379  21.497  22.696
47491W        W51559   8.813  20.990  22.711
47492W        W51560   8.034  19.730  21.970
47493W        W51561   7.415  22.628   3.104
47494W        W51562   8.177  21.908   2.906
47495W        W51563   9.871  22.296   1.793
47496W        W51564   9.520  23.167   0.363
47497W        W51565  10.090  22.601   3.454
47498W        W51566   7.456  22.393   2.579
47499W        W51567   8.402  23.076   3.262
47500W        W51568  10.861  22.935   1.761
47501W        W51569   8.602  23.140   2.069
47502W        W51570   7.360  23.124   3.570
47503W        W51571   7.773  22.241   1.167
47504W        W51572  10.176  22.682   2.023
47505W        W51573  10.461  22.635   0.118
47506W        W51574   7.986  22.195   2.471
47507W        W51575  10.609  23.213   2.746
47508W        W51576   8.994  22.797   1.571
47509W        W51577   9.367  22.333   1.003
47510W        W51578   7.395  22.526   1.285
47511W        W51579  10.181  23.133   1.759
47512W        W51580  10.372  23.126   0.008
47513W        W51581   8.581  22.221   2.364
47514W        W51582  10.810  21.983   1.661
47515W        W51583   7.684  22.888   0.308
47516W        W51584   9.135  22.828   0.748
47517W        W51585  10.195  23.079   3.118
47518W        W51586   9.616  23.257   0.893
47519W        W51587   7.836  23.167   2.471
47520W        W51588   7.711  21.960   1.552
47521W        W51589   9.479  22.307   2.113
47522W        W51590   9.127  22.492   3.276
47523W        W51591   9.482  22.641   0.454
47524W        W51592   9.632  22.115   3.247
47525W        W51593  10.081  22.583   2.965
47526W        W51594   9.881  22.521   1.235
47527W        W51595   8.672  22.948   0.611
47528W        W51596   8.241  22.232   3.275
47529W        W51597  10.293  22.716   0.956
47530W        W51598  10.660  23.198   0.901
47531W        W51599   8.329  21.951   0.607
47532W        W51600  10.650  22.485   1.642
47533W        W51601   9.624  22.524   0.019
47534W        W51602  10.797  22.050   2.489
47535W        W51603   9.409  21.872   1.795
47536W        W51604   8.021  22.775   1.858
47537W        W51605  10.628  22.765   2.210
47538W        W51606  10.895  22.165   2.984
47539W        W51607   9.261  22.886   2.023
47540W        W51608  10.400  22.917   0.503
47541W        W51609   7.628  22.652   2.143
47542W        W51610   9.688  22.629   2.606
47543W        W51611  10.592  22.291   1.133
47544W        W51612   7.366  22.931   2.472
47545W        W51613  10.226  22.726   1.490
47546W        W51614  10.637  22.877   3.267
47547W        W51615   7.893  22.347   0.356
47548W        W51616   8.997  22.001   2.166
47549W        W51617   8.883  22.574   1.068
47550W        W51618  10.239  22.171   1.496
47551W        W51619   8.231  22.364   1.020
47552W        W51620   8.236  22.592   0.045
47553W        W51621   9.037  23.201   2.439
47554W        W51622   9.885  22.067   2.309
47555W        W51623   8.277  22.043   0.122
47556W        W51624   9.015  23.124   1.173
47557W        W51625   9.985  22.100   2.872
47558W        W51626   9.278  22.064   3.596
47559W        W51627   8.500  22.680   1.989
47560W        W51628   7.926  22.636   1.387
47561W        W51629   9.386  22.416   1.561
47562W        W51630  10.865  22.694   0.829
47563W        W51631   9.242  22.625   2.430
47564W        W51632   8.328  22.874   0.996
47565W        W51633   9.160  22.784   0.048
47566W        W51634  10.097  22.255   0.843
47567W        W51635   7.427  22.103   0.291
47568W        W51636   8.703  22.161   3.467
47569W        W51637   9.412  22.303   2.823
47570W        W51638   8.607  22.071   1.104
47571W        W51639   9.666  22.148   0.609
47572W        W51640   7.611  22.080   2.186
47573W        W51641  10.348  22.151   1.962
47574W        W51642   7.770  22.649   0.776
47575W        W51643  10.341  22.337   2.392
47576W        W51644   8.029  22.298   1.896
47577W        W51645   9.143  22.870   2.836
47578W        W51646   7.291  22.560   0.314
47579W        W51647  10.463  21.975   2.860
47580W        W51648  10.899  22.296   3.465
47581W        W51649  10.617  23.224   2.086
47582W        W51650   8.780  21.983   0.290
47583W        W51651   8.088  22.675   3.119
47584W        W51652  10.648  22.660   2.779
47585W        W51653   8.348  22.354   2.781
47586W        W51654   7.843  22.726   2.720
47587W        W51655   9.144  21.981   3.084
47588W        W51656   8.199  22.716   2.379
47589W        W51657   8.169  22.064   1.489
47590W        W51658   9.790  22.906   2.181
47591W        W51659   8.399  22.479   1.545
47592W        W51660  10.527  22.447   0.581
47593W        W51661   8.666  21.966   2.984
47594W        W51662   8.518  22.997   1.563
47595W        W51663   8.524  22.866   2.862
47596W        W51664  10.826  23.132   0.419
47597W        W51665   9.561  23.199   2.515
47598W        W51666  10.122  22.093   3.367
47599W        W51667   7.786  22.243   2.954
47600W        W51668   8.125  23.266   2.007
47601W        W51669   8.494  23.080   0.129
47602W        W51670   8.705  22.573   0.222
47603W        W51671  10.501  22.383   3.234
47604W        W51672  10.501  21.980   0.670
47605W        W51673  10.110  22.317   0.289
47606W        W51674  10.175  22.924   2.475
47607W        W51675   8.964  22.455   1.992
47608W        W51676  10.844  22.353   2.064
47609W        W51677   7.807  21.987   3.529
47610W        W51678   9.002  21.938   0.830
47611W        W51679   9.715  22.807   1.689
47612W        W51680   8.654  22.356   0.662
47613W        W51681   9.452  22.821   1.225
47614W        W51682   8.253  22.616   0.519
47615W        W51683   9.770  22.758   0.844
47616W        W51684   8.856  22.282   1.508
47617W        W51685   8.986  23.217   0.308
47618W        W51686   8.922  22.408   2.791
47619W        W51687  10.594  22.117   0.218
47620W        W51688   9.202  21.969   1.357
47621W        W51689   8.760  22.694   2.419
47622W        W51690   8.460  22.063   1.888
47623W        W51691   7.576  22.410   1.728
47624W        W51692   7.376  22.229   0.805
47625W        W51693   9.917  22.821   0.304
47626W        W51694   9.789  21.984   0.124
47627W        W51695   9.786  23.002   3.500
47628W        W51696   7.769  22.532   3.499
47629W        W51697   7.500  23.132   0.832
47630W        W51698   9.771  22.015   1.203
47631W        W51699   9.181  22.262   0.419
47632W        W51700  10.862  21.890   1.141
47633W        W51701  10.716  22.862   1.294
47634W        W51702   8.613  22.608   3.292
47635W        W51703   8.433  23.192   2.533
47636W        W51704   9.625  22.637   3.187
47637W        W51705   7.469  23.108   2.964
47638W        W51706   9.718  23.045   2.951
47639W        W51707   8.928  22.976   3.319
47640W        W51708   7.415  22.628   6.748
47641W        W51709   8.177  21.908   6.550
47642W        W51710   9.871  22.296   5.437
47643W        W51711   9.520  23.167   4.007
47644W        W51712  10.090  22.601   7.098
47645W        W51713   7.456  22.393   6.223
47646W        W51714   8.402  23.076   6.906
47647W        W51715  10.861  22.935   5.405
47648W        W51716   8.602  23.140   5.713
47649W        W51717   7.360  23.124   7.214
47650W        W51718   7.773  22.241   4.811
47651W        W51719  10.176  22.682   5.667
47652W        W51720  10.461  22.635   3.762
47653W        W51721   7.986  22.195   6.115
47654W        W51722  10.609  23.213   6.390
47655W        W51723   8.994  22.797   5.215
47656W        W51724   9.367  22.333   4.647
47657W        W51725   7.395  22.526   4.929
47658W        W51726  10.181  23.133   5.403
47659W        W51727  10.372  23.126   3.652
47660W        W51728   8.581  22.221   6.008
47661W        W51729  10.810  21.983   5.305
47662W        W51730   7.684  22.888   3.952
47663W        W51731   9.135  22.828   4.392
47664W        W51732  10.195  23.079   6.762
47665W        W51733   9.616  23.257   4.537
47666W        W51734   7.836  23.167   6.115
47667W        W51735   7.711  21.960   5.196
47668W        W51736   9.479  22.307   5.757
47669W        W51737   9.127  22.492   6.920
47670W        W51738   9.482  22.641   4.098
47671W        W51739   9.632  22.115   6.891
47672W        W51740  10.081  22.583   6.609
47673W        W51741   9.881  22.521   4.879
47674W        W51742   8.672  22.948   4.255
47675W        W51743   8.241  22.232   6.919
47676W        W51744  10.293  22.716   4.600
47677W        W51745  10.660  23.198   4.545
47678W        W51746   8.329  21.951   4.251
47679W        W51747  10.650  22.485   5.286
47680W        W51748   9.624  22.524   3.663
47681W        W51749  10.797  22.050   6.133
47682W        W51750   9.409  21.872   5.439
47683W        W51751   8.021  22.775   5.502
47684W        W51752  10.628  22.765   5.854
47685W        W51753  10.895  22.165   6.628
47686W        W51754   9.261  22.886   5.667
47687W        W51755  10.400  22.917   4.147
47688W        W51756   7.628  22.652   5.787
47689W        W51757   9.688  22.629   6.250
47690W        W51758  10.592  22.291   4.777
47691W        W51759   7.366  22.931   6.116
47692W        W51760  10.226  22.726   5.134
47693W        W51761  10.637  22.877   6.911
47694W        W51762   7.893  22.347   4.000
47695W        W51763   8.997  22.001   5.810
47696W        W51764   8.883  22.574   4.712
47697W        W51765  10.239  22.171   5.140
47698W        W51766   8.231  22.364   4.664
47699W        W51767   8.236  22.592   3.689
47700W        W51768   9.037  23.201   6.083
47701W        W51769   9.885  22.067   5.953
47702W        W51770   8.277  22.043   3.766
47703W        W51771   9.015  23.124   4.817
47704W        W51772   9.985  22.100   6.516
47705W        W51773   9.278  22.064   7.240
47706W        W51774   8.500  22.680   5.633
47707W        W51775   7.926  22.636   5.031
47708W        W51776   9.386  22.416   5.205
47709W        W51777  10.865  22.694   4.473
47710W        W51778   9.242  22.625   6.074
47711W        W51779   8.328  22.874   4.640
47712W        W51780   9.160  22.784   3.692
47713W        W51781  10.097  22.255   4.487
47714W        W51782   7.427  22.103   3.935
47715W        W51783   8.703  22.161   7.111
47716W        W51784   9.412  22.303   6.467
47717W        W51785   8.607  22.071   4.748
47718W        W51786   9.666  22.148   4.253
47719W        W51787   7.611  22.080   5.830
47720W        W51788  10.348  22.151   5.606
47721W        W51789   7.770  22.649   4.420
47722W        W51790  10.341  22.337   6.036
47723W        W51791   8.029  22.298   5.540
47724W        W51792   9.143  22.870   6.480
47725W        W51793   7.291  22.560   3.958
47726W        W51794  10.463  21.975   6.504
47727W        W51795  10.899  22.296   7.109
47728W        W51796  10.617  23.224   5.730
47729W        W51797   8.780  21.983   3.934
47730W        W51798   8.088  22.675   6.763
47731W        W51799  10.648  22.660   6.423
47732W        W51800   8.348  22.354   6.425
47733W        W51801   7.843  22.726   6.364
47734W        W51802   9.144  21.981   6.728
47735W        W51803   8.199  22.716   6.023
47736W        W51804   8.169  22.064   5.133
47737W        W51805   9.790  22.906   5.825
47738W        W51806   8.399  22.479   5.189
47739W        W51807  10.527  22.447   4.225
47740W        W51808   8.666  21.966   6.628
47741W        W51809   8.518  22.997   5.207
47742W        W51810   8.524  22.866   6.506
47743W        W51811  10.826  23.132   4.063
47744W        W51812   9.561  23.199   6.159
47745W        W51813  10.122  22.093   7.011
47746W        W51814   7.786  22.243   6.598
47747W        W51815   8.125  23.266   5.651
47748W        W51816   8.494  23.080   3.773
47749W        W51817   8.705  22.573   3.866
47750W        W51818  10.501  22.383   6.878
47751W        W51819  10.501  21.980   4.314
47752W        W51820  10.110  22.317   3.933
47753W        W51821  10.175  22.924   6.119
47754W        W51822   8.964  22.455   5.636
47755W        W51823  10.844  22.353   5.708
47756W        W51824   7.807  21.987   7.173
47757W        W51825   9.002  21.938   4.474
47758W        W51826   9.715  22.807   5.333
47759W        W51827   8.654  22.356   4.306
47760W        W51828   9.452  22.821   4.869
47761W        W51829   8.253  22.616   4.163
47762W        W51830   9.770  22.758   4.488
47763W        W51831   8.856  22.282   5.152
47764W        W51832   8.986  23.217   3.952
47765W        W51833   8.922  22.408   6.435
47766W        W51834  10.594  22.117   3.862
47767W        W51835   9.202  21.969   5.001
47768W        W51836   8.760  22.694   6.063
47769W        W51837   8.460  22.063   5.532
47770W        W51838   7.576  22.410   5.372
47771W        W51839   7.376  22.229   4.449
47772W        W51840   9.917  22.821   3.948
47773W        W51841   9.789  21.984   3.768
47774W        W51842   9.786  23.002   7.144
47775W        W51843   7.769  22.532   7.143
47776W        W51844   7.500  23.132   4.476
47777W        W51845   9.771  22.015   4.847
47778W        W51846   9.181  22.262   4.063
47779W        W51847  10.862  21.890   4.785
47780W        W51848  10.716  22.862   4.938
47781W        W51849   8.613  22.608   6.936
47782W        W51850   8.433  23.192   6.177
47783W        W51851   9.625  22.637   6.831
47784W        W51852   7.469  23.108   6.608
47785W        W51853   9.718  23.045   6.595
47786W        W51854   8.928  22.976   6.963
47787W        W51855   7.415  22.628  10.393
47788W        W51856   8.177  21.908  10.195
47789W        W51857   9.871  22.296   9.082
47790W        W51858   9.520  23.167   7.652
47791W        W51859  10.090  22.601  10.743
47792W        W51860   7.456  22.393   9.868
47793W        W51861   8.402  23.076  10.551
47794W        W51862  10.861  22.935   9.050
47795W        W51863   8.602  23.140   9.358
47796W        W51864   7.360  23.124  10.859
47797W        W51865   7.773  22.241   8.456
47798W        W51866  10.176  22.682   9.312
47799W        W51867  10.461  22.635   7.407
47800W        W51868   7.986  22.195   9.760
47801W        W51869  10.609  23.213  10.035
47802W        W51870   8.994  22.797   8.860
47803W        W51871   9.367  22.333   8.292
47804W        W51872   7.395  22.526   8.574
47805W        W51873  10.181  23.133   9.048
47806W        W51874  10.372  23.126   7.297
47807W        W51875   8.581  22.221   9.653
47808W        W51876  10.810  21.983   8.950
47809W        W51877   7.684  22.888   7.597
47810W        W51878   9.135  22.828   8.037
47811W        W51879  10.195  23.079  10.407
47812W        W51880   9.616  23.257   8.182
47813W        W51881   7.836  23.167   9.760
47814W        W51882   7.711  21.960   8.841
47815W        W51883   9.479  22.307   9.402
47816W        W51884   9.127  22.492  10.565
47817W        W51885   9.482  22.641   7.743
47818W        W51886   9.632  22.115  10.536
47819W        W51887  10.081  22.583  10.254
47820W        W51888   9.881  22.521   8.524
47821W        W51889   8.672  22.948   7.900
47822W        W51890   8.241  22.232  10.564
47823W        W51891  10.293  22.716   8.245
47824W        W51892  10.660  23.198   8.190
47825W        W51893   8.329  21.951   7.896
47826W        W51894  10.650  22.485   8.931
47827W        W51895   9.624  22.524   7.308
47828W        W51896  10.797  22.050   9.778
47829W        W51897   9.409  21.872   9.084
47830W        W51898   8.021  22.775   9.147
47831W        W51899  10.628  22.765   9.499
47832W        W51900  10.895  22.165  10.273
47833W        W51901   9.261  22.886   9.312
47834W        W51902  10.400  22.917   7.792
47835W        W51903   7.628  22.652   9.432
47836W        W51904   9.688  22.629   9.895
47837W        W51905  10.592  22.291   8.422
47838W        W51906   7.366  22.931   9.761
47839W        W51907  10.226  22.726   8.779
47840W        W51908  10.637  22.877  10.556
47841W        W51909   7.893  22.347   7.645
47842W        W51910   8.997  22.001   9.455
47843W        W51911   8.883  22.574   8.357
47844W        W51912  10.239  22.171   8.785
47845W        W51913   8.231  22.364   8.309
47846W        W51914   8.236  22.592   7.334
47847W        W51915   9.037  23.201   9.728
47848W        W51916   9.885  22.067   9.598
47849W        W51917   8.277  22.043   7.411
47850W        W51918   9.015  23.124   8.462
47851W        W51919   9.985  22.100  10.161
47852W        W51920   9.278  22.064  10.885
47853W        W51921   8.500  22.680   9.278
47854W        W51922   7.926  22.636   8.676
47855W        W51923   9.386  22.416   8.850
47856W        W51924  10.865  22.694   8.118
47857W        W51925   9.242  22.625   9.719
47858W        W51926   8.328  22.874   8.285
47859W        W51927   9.160  22.784   7.337
47860W        W51928  10.097  22.255   8.132
47861W        W51929   7.427  22.103   7.580
47862W        W51930   8.703  22.161  10.756
47863W        W51931   9.412  22.303  10.112
47864W        W51932   8.607  22.071   8.393
47865W        W51933   9.666  22.148   7.898
47866W        W51934   7.611  22.080   9.475
47867W        W51935  10.348  22.151   9.251
47868W        W51936   7.770  22.649   8.065
47869W        W51937  10.341  22.337   9.681
47870W        W51938   8.029  22.298   9.185
47871W        W51939   9.143  22.870  10.125
47872W        W51940   7.291  22.560   7.603
47873W        W51941  10.463  21.975  10.149
47874W        W51942  10.899  22.296  10.754
47875W        W51943  10.617  23.224   9.375
47876W        W51944   8.780  21.983   7.579
47877W        W51945   8.088  22.675  10.408
47878W        W51946  10.648  22.660  10.068
47879W        W51947   8.348  22.354  10.070
47880W        W51948   7.843  22.726  10.009
47881W        W51949   9.144  21.981  10.373
47882W        W51950   8.199  22.716   9.668
47883W        W51951   8.169  22.064   8.778
47884W        W51952   9.790  22.906   9.470
47885W        W51953   8.399  22.479   8.834
47886W        W51954  10.527  22.447   7.870
47887W        W51955   8.666  21.966  10.273
47888W        W51956   8.518  22.997   8.852
47889W        W51957   8.524  22.866  10.151
47890W        W51958  10.826  23.132   7.708
47891W        W51959   9.561  23.199   9.804
47892W        W51960  10.122  22.093  10.656
47893W        W51961   7.786  22.243  10.243
47894W        W51962   8.125  23.266   9.296
47895W        W51963   8.494  23.080   7.418
47896W        W51964   8.705  22.573   7.511
47897W        W51965  10.501  22.383  10.523
47898W        W51966  10.501  21.980   7.959
47899W        W51967  10.110  22.317   7.578
47900W        W51968  10.175  22.924   9.764
47901W        W51969   8.964  22.455   9.281
47902W        W51970  10.844  22.353   9.353
47903W        W51971   7.807  21.987  10.818
47904W        W51972   9.002  21.938   8.119
47905W        W51973   9.715  22.807   8.978
47906W        W51974   8.654  22.356   7.951
47907W        W51975   9.452  22.821   8.514
47908W        W51976   8.253  22.616   7.808
47909W        W51977   9.770  22.758   8.133
47910W        W51978   8.856  22.282   8.797
47911W        W51979   8.986  23.217   7.597
47912W        W51980   8.922  22.408  10.080
47913W        W51981  10.594  22.117   7.507
47914W        W51982   9.202  21.969   8.646
47915W        W51983   8.760  22.694   9.708
47916W        W51984   8.460  22.063   9.177
47917W        W51985   7.576  22.410   9.017
47918W        W51986   7.376  22.229   8.094
47919W        W51987   9.917  22.821   7.593
47920W        W51988   9.789  21.984   7.413
47921W        W51989   9.786  23.002  10.789
47922W        W51990   7.769  22.532  10.788
47923W        W51991   7.500  23.132   8.121
47924W        W51992   9.771  22.015   8.492
47925W        W51993   9.181  22.262   7.708
47926W        W51994  10.862  21.890   8.430
47927W        W51995  10.716  22.862   8.583
47928W        W51996   8.613  22.608  10.581
47929W        W51997   8.433  23.192   9.822
47930W        W51998   9.625  22.637  10.476
47931W        W51999   7.469  23.108  10.253
47932W        W52000   9.718  23.045  10.240
47933W        W52001   8.928  22.976  10.608
47934W        W52002   7.415  22.628  14.037
47935W        W52003   8.177  21.908  13.839
47936W        W52004   9.871  22.296  12.726
47937W        W52005   9.520  23.167  11.296
47938W        W52006  10.090  22.601  14.387
47939W        W52007   7.456  22.393  13.512
47940W        W52008   8.402  23.076  14.195
47941W        W52009  10.861  22.935  12.694
47942W        W52010   8.602  23.140  13.002
47943W        W52011   7.360  23.124  14.503
47944W        W52012   7.773  22.241  12.100
47945W        W52013  10.176  22.682  12.956
47946W        W52014  10.461  22.635  11.051
47947W        W52015   7.986  22.195  13.404
47948W        W52016  10.609  23.213  13.679
47949W        W52017   8.994  22.797  12.504
47950W        W52018   9.367  22.333  11.936
47951W        W52019   7.395  22.526  12.218
47952W        W52020  10.181  23.133  12.692
47953W        W52021  10.372  23.126  10.941
47954W        W52022   8.581  22.221  13.297
47955W        W52023  10.810  21.983  12.594
47956W        W52024   7.684  22.888  11.241
47957W        W52025   9.135  22.828  11.681
47958W        W52026  10.195  23.079  14.051
47959W        W52027   9.616  23.257  11.826
47960W        W52028   7.836  23.167  13.404
47961W        W52029   7.711  21.960  12.485
47962W        W52030   9.479  22.307  13.046
47963W        W52031   9.127  22.492  14.209
47964W        W52032   9.482  22.641  11.387
47965W        W52033   9.632  22.115  14.180
47966W        W52034  10.081  22.583  13.898
47967W        W52035   9.881  22.521  12.168
47968W        W52036   8.672  22.948  11.544
47969W        W52037   8.241  22.232  14.208
47970W        W52038  10.293  22.716  11.889
47971W        W52039  10.660  23.198  11.834
47972W        W52040   8.329  21.951  11.540
47973W        W52041  10.650  22.485  12.575
47974W        W52042   9.624  22.524  10.952
47975W        W52043  10.797  22.050  13.422
47976W        W52044   9.409  21.872  12.728
47977W        W52045   8.021  22.775  12.791
47978W        W52046  10.628  22.765  13.143
47979W        W52047  10.895  22.165  13.917
47980W        W52048   9.261  22.886  12.956
47981W        W52049  10.400  22.917  11.436
47982W        W52050   7.628  22.652  13.076
47983W        W52051   9.688  22.629  13.539
47984W        W52052  10.592  22.291  12.066
47985W        W52053   7.366  22.931  13.405
47986W        W52054  10.226  22.726  12.423
47987W        W52055  10.637  22.877  14.200
47988W        W52056   7.893  22.347  11.289
47989W        W52057   8.997  22.001  13.099
47990W        W52058   8.883  22.574  12.001
47991W        W52059  10.239  22.171  12.429
47992W        W52060   8.231  22.364  11.953
47993W        W52061   8.236  22.592  10.978
47994W        W52062   9.037  23.201  13.372
47995W        W52063   9.885  22.067  13.242
47996W        W52064   8.277  22.043  11.055
47997W        W52065   9.015  23.124  12.106
47998W        W52066   9.985  22.100  13.805
47999W        W52067   9.278  22.064  14.529
48000W        W52068   8.500  22.680  12.922
48001W        W52069   7.926  22.636  12.320
48002W        W52070   9.386  22.416  12.494
48003W        W52071  10.865  22.694  11.762
48004W        W52072   9.242  22.625  13.363
48005W        W52073   8.328  22.874  11.929
48006W        W52074   9.160  22.784  10.981
48007W        W52075  10.097  22.255  11.776
48008W        W52076   7.427  22.103  11.224
48009W        W52077   8.703  22.161  14.400
48010W        W52078   9.412  22.303  13.756
48011W        W52079   8.607  22.071  12.037
48012W        W52080   9.666  22.148  11.542
48013W        W52081   7.611  22.080  13.119
48014W        W52082  10.348  22.151  12.895
48015W        W52083   7.770  22.649  11.709
48016W        W52084  10.341  22.337  13.325
48017W        W52085   8.029  22.298  12.829
48018W        W52086   9.143  22.870  13.769
48019W        W52087   7.291  22.560  11.247
48020W        W52088  10.463  21.975  13.793
48021W        W52089  10.899  22.296  14.398
48022W        W52090  10.617  23.224  13.019
48023W        W52091   8.780  21.983  11.223
48024W        W52092   8.088  22.675  14.052
48025W        W52093  10.648  22.660  13.712
48026W        W52094   8.348  22.354  13.714
48027W        W52095   7.843  22.726  13.653
48028W        W52096   9.144  21.981  14.017
48029W        W52097   8.199  22.716  13.312
48030W        W52098   8.169  22.064  12.422
48031W        W52099   9.790  22.906  13.114
48032W        W52100   8.399  22.479  12.478
48033W        W52101  10.527  22.447  11.514
48034W        W52102   8.666  21.966  13.917
48035W        W52103   8.518  22.997  12.496
48036W        W52104   8.524  22.866  13.795
48037W        W52105  10.826  23.132  11.352
48038W        W52106   9.561  23.199  13.448
48039W        W52107  10.122  22.093  14.300
48040W        W52108   7.786  22.243  13.887
48041W        W52109   8.125  23.266  12.940
48042W        W52110   8.494  23.080  11.062
48043W        W52111   8.705  22.573  11.155
48044W        W52112  10.501  22.383  14.167
48045W        W52113  10.501  21.980  11.603
48046W        W52114  10.110  22.317  11.222
48047W        W52115  10.175  22.924  13.408
48048W        W52116   8.964  22.455  12.925
48049W        W52117  10.844  22.353  12.997
48050W        W52118   7.807  21.987  14.462
48051W        W52119   9.002  21.938  11.763
48052W        W52120   9.715  22.807  12.622
48053W        W52121   8.654  22.356  11.595
48054W        W52122   9.452  22.821  12.158
48055W        W52123   8.253  22.616  11.452
48056W        W52124   9.770  22.758  11.777
48057W        W52125   8.856  22.282  12.441
48058W        W52126   8.986  23.217  11.241
48059W        W52127   8.922  22.408  13.724
48060W        W52128  10.594  22.117  11.151
48061W        W52129   9.202  21.969  12.290
48062W        W52130   8.760  22.694  13.352
48063W        W52131   8.460  22.063  12.821
48064W        W52132   7.576  22.410  12.661
48065W        W52133   7.376  22.229  11.738
48066W        W52134   9.917  22.821  11.237
48067W        W52135   9.789  21.984  11.057
48068W        W52136   9.786  23.002  14.433
48069W        W52137   7.769  22.532  14.432
48070W        W52138   7.500  23.132  11.765
48071W        W52139   9.771  22.015  12.136
48072W        W52140   9.181  22.262  11.352
48073W        W52141  10.862  21.890  12.074
48074W        W52142  10.716  22.862  12.227
48075W        W52143   8.613  22.608  14.225
48076W        W52144   8.433  23.192  13.466
48077W        W52145   9.625  22.637  14.120
48078W        W52146   7.469  23.108  13.897
48079W        W52147   9.718  23.045  13.884
48080W        W52148   8.928  22.976  14.252
48081W        W52149   7.415  22.628  17.681
48082W        W52150   8.177  21.908  17.483
48083W        W52151   9.871  22.296  16.370
48084W        W52152   9.520  23.167  14.940
48085W        W52153  10.090  22.601  18.031
48086W        W52154   7.456  22.393  17.156
48087W        W52155   8.402  23.076  17.839
48088W        W52156  10.861  22.935  16.338
48089W        W52157   8.602  23.140  16.646
48090W        W52158   7.360  23.124  18.147
48091W        W52159   7.773  22.241  15.744
48092W        W52160  10.176  22.682  16.600
48093W        W52161  10.461  22.635  14.695
48094W        W52162   7.986  22.195  17.048
48095W        W52163  10.609  23.213  17.323
48096W        W52164   8.994  22.797  16.148
48097W        W52165   9.367  22.333  15.580
48098W        W52166   7.395  22.526  15.862
48099W        W52167  10.181  23.133  16.336
48100W        W52168  10.372  23.126  14.585
48101W        W52169   8.581  22.221  16.941
48102W        W52170  10.810  21.983  16.238
48103W        W52171   7.684  22.888  14.885
48104W        W52172   9.135  22.828  15.325
48105W        W52173  10.195  23.079  17.695
48106W        W52174   9.616  23.257  15.470
48107W        W52175   7.836  23.167  17.048
48108W        W52176   7.711  21.960  16.129
48109W        W52177   9.479  22.307  16.690
48110W        W52178   9.127  22.492  17.853
48111W        W52179   9.482  22.641  15.031
48112W        W52180   9.632  22.115  17.824
48113W        W52181  10.081  22.583  17.542
48114W        W52182   9.881  22.521  15.812
48115W        W52183   8.672  22.948  15.188
48116W        W52184   8.241  22.232  17.852
48117W        W52185  10.293  22.716  15.533
48118W        W52186  10.660  23.198  15.478
48119W        W52187   8.329  21.951  15.184
48120W        W52188  10.650  22.485  16.219
48121W        W52189   9.624  22.524  14.596
48122W        W52190  10.797  22.050  17.066
48123W        W52191   9.409  21.872  16.372
48124W        W52192   8.021  22.775  16.435
48125W        W52193  10.628  22.765  16.787
48126W        W52194  10.895  22.165  17.561
48127W        W52195   9.261  22.886  16.600
48128W        W52196  10.400  22.917  15.080
48129W        W52197   7.628  22.652  16.720
48130W        W52198   9.688  22.629  17.183
48131W        W52199  10.592  22.291  15.710
48132W        W52200   7.366  22.931  17.049
48133W        W52201  10.226  22.726  16.067
48134W        W52202  10.637  22.877  17.844
48135W        W52203   7.893  22.347  14.933
48136W        W52204   8.997  22.001  16.743
48137W        W52205   8.883  22.574  15.645
48138W        W52206  10.239  22.171  16.073
48139W        W52207   8.231  22.364  15.597
48140W        W52208   8.236  22.592  14.622
48141W        W52209   9.037  23.201  17.016
48142W        W52210   9.885  22.067  16.886
48143W        W52211   8.277  22.043  14.699
48144W        W52212   9.015  23.124  15.750
48145W        W52213   9.985  22.100  17.449
48146W        W52214   9.278  22.064  18.173
48147W        W52215   8.500  22.680  16.566
48148W        W52216   7.926  22.636  15.964
48149W        W52217   9.386  22.416  16.138
48150W        W52218  10.865  22.694  15.406
48151W        W52219   9.242  22.625  17.007
48152W        W52220   8.328  22.874  15.573
48153W        W52221   9.160  22.784  14.625
48154W        W52222  10.097  22.255  15.420
48155W        W52223   7.427  22.103  14.868
48156W        W52224   8.703  22.161  18.044
48157W        W52225   9.412  22.303  17.400
48158W        W52226   8.607  22.071  15.681
48159W        W52227   9.666  22.148  15.186
48160W        W52228   7.611  22.080  16.763
48161W        W52229  10.348  22.151  16.539
48162W        W52230   7.770  22.649  15.353
48163W        W52231  10.341  22.337  16.969
48164W        W52232   8.029  22.298  16.473
48165W        W52233   9.143  22.870  17.413
48166W        W52234   7.291  22.560  14.891
48167W        W52235  10.463  21.975  17.437
48168W        W52236  10.899  22.296  18.042
48169W        W52237  10.617  23.224  16.663
48170W        W52238   8.780  21.983  14.867
48171W        W52239   8.088  22.675  17.696
48172W        W52240  10.648  22.660  17.356
48173W        W52241   8.348  22.354  17.358
48174W        W52242   7.843  22.726  17.297
48175W        W52243   9.144  21.981  17.661
48176W        W52244   8.199  22.716  16.956
48177W        W52245   8.169  22.064  16.066
48178W        W52246   9.790  22.906  16.758
48179W        W52247   8.399  22.479  16.122
48180W        W52248  10.527  22.447  15.158
48181W        W52249   8.666  21.966  17.561
48182W        W52250   8.518  22.997  16.140
48183W        W52251   8.524  22.866  17.439
48184W        W52252  10.826  23.132  14.996
48185W        W52253   9.561  23.199  17.092
48186W        W52254  10.122  22.093  17.944
48187W        W52255   7.786  22.243  17.531
48188W        W52256   8.125  23.266  16.584
48189W        W52257   8.494  23.080  14.706
48190W        W52258   8.705  22.573  14.799
48191W        W52259  10.501  22.383  17.811
48192W        W52260  10.501  21.980  15.247
48193W        W52261  10.110  22.317  14.866
48194W        W52262  10.175  22.924  17.052
48195W        W52263   8.964  22.455  16.569
48196W        W52264  10.844  22.353  16.641
48197W        W52265   7.807  21.987  18.106
48198W        W52266   9.002  21.938  15.407
48199W        W52267   9.715  22.807  16.266
48200W        W52268   8.654  22.356  15.239
48201W        W52269   9.452  22.821  15.802
48202W        W52270   8.253  22.616  15.096
48203W        W52271   9.770  22.758  15.421
48204W        W52272   8.856  22.282  16.085
48205W        W52273   8.986  23.217  14.885
48206W        W52274   8.922  22.408  17.368
48207W        W52275  10.594  22.117  14.795
48208W        W52276   9.202  21.969  15.934
48209W        W52277   8.760  22.694  16.996
48210W        W52278   8.460  22.063  16.465
48211W        W52279   7.576  22.410  16.305
48212W        W52280   7.376  22.229  15.382
48213W        W52281   9.917  22.821  14.881
48214W        W52282   9.789  21.984  14.701
48215W        W52283   9.786  23.002  18.077
48216W        W52284   7.769  22.532  18.076
48217W        W52285   7.500  23.132  15.409
48218W        W52286   9.771  22.015  15.780
48219W        W52287   9.181  22.262  14.996
48220W        W52288  10.862  21.890  15.718
48221W        W52289  10.716  22.862  15.871
48222W        W52290   8.613  22.608  17.869
48223W        W52291   8.433  23.192  17.110
48224W        W52292   9.625  22.637  17.764
48225W        W52293   7.469  23.108  17.541
48226W        W52294   9.718  23.045  17.528
48227W        W52295   8.928  22.976  17.896
48228W        W52296   7.415  22.628  21.325
48229W        W52297   8.177  21.908  21.127
48230W        W52298   9.871  22.296  20.014
48231W        W52299   9.520  23.167  18.584
48232W        W52300  10.090  22.601  21.675
48233W        W52301   7.456  22.393  20.800
48234W        W52302   8.402  23.076  21.483
48235W        W52303  10.861  22.935  19.982
48236W        W52304   8.602  23.140  20.290
48237W        W52305   7.360  23.124  21.791
48238W        W52306   7.773  22.241  19.388
48239W        W52307  10.176  22.682  20.244
48240W        W52308  10.461  22.635  18.339
48241W        W52309   7.986  22.195  20.692
48242W        W52310  10.609  23.213  20.967
48243W        W52311   8.994  22.797  19.792
48244W        W52312   9.367  22.333  19.224
48245W        W52313   7.395  22.526  19.506
48246W        W52314  10.181  23.133  19.980
48247W        W52315  10.372  23.126  18.229
48248W        W52316   8.581  22.221  20.585
48249W        W52317  10.810  21.983  19.882
48250W        W52318   7.684  22.888  18.529
48251W        W52319   9.135  22.828  18.969
48252W        W52320  10.195  23.079  21.339
48253W        W52321   9.616  23.257  19.114
48254W        W52322   7.836  23.167  20.692
48255W        W52323   7.711  21.960  19.773
48256W        W52324   9.479  22.307  20.334
48257W        W52325   9.127  22.492  21.497
48258W        W52326   9.482  22.641  18.675
48259W        W52327   9.632  22.115  21.468
48260W        W52328  10.081  22.583  21.186
48261W        W52329   9.881  22.521  19.456
48262W        W52330   8.672  22.948  18.832
48263W        W52331   8.241  22.232  21.496
48264W        W52332  10.293  22.716  19.177
48265W        W52333  10.660  23.198  19.122
48266W        W52334   8.329  21.951  18.828
48267W        W52335  10.650  22.485  19.863
48268W        W52336   9.624  22.524  18.240
48269W        W52337  10.797  22.050  20.710
48270W        W52338   9.409  21.872  20.016
48271W        W52339   8.021  22.775  20.079
48272W        W52340  10.628  22.765  20.431
48273W        W52341  10.895  22.165  21.205
48274W        W52342   9.261  22.886  20.244
48275W        W52343  10.400  22.917  18.724
48276W        W52344   7.628  22.652  20.364
48277W        W52345   9.688  22.629  20.827
48278W        W52346  10.592  22.291  19.354
48279W        W52347   7.366  22.931  20.693
48280W        W52348  10.226  22.726  19.711
48281W        W52349  10.637  22.877  21.488
48282W        W52350   7.893  22.347  18.577
48283W        W52351   8.997  22.001  20.387
48284W        W52352   8.883  22.574  19.289
48285W        W52353  10.239  22.171  19.717
48286W        W52354   8.231  22.364  19.241
48287W        W52355   8.236  22.592  18.266
48288W        W52356   9.037  23.201  20.660
48289W        W52357   9.885  22.067  20.530
48290W        W52358   8.277  22.043  18.343
48291W        W52359   9.015  23.124  19.394
48292W        W52360   9.985  22.100  21.093
48293W        W52361   9.278  22.064  21.817
48294W        W52362   8.500  22.680  20.210
48295W        W52363   7.926  22.636  19.608
48296W        W52364   9.386  22.416  19.782
48297W        W52365  10.865  22.694  19.050
48298W        W52366   9.242  22.625  20.651
48299W        W52367   8.328  22.874  19.217
48300W        W52368   9.160  22.784  18.269
48301W        W52369  10.097  22.255  19.064
48302W        W52370   7.427  22.103  18.512
48303W        W52371   8.703  22.161  21.688
48304W        W52372   9.412  22.303  21.044
48305W        W52373   8.607  22.071  19.325
48306W        W52374   9.666  22.148  18.830
48307W        W52375   7.611  22.080  20.407
48308W        W52376  10.348  22.151  20.183
48309W        W52377   7.770  22.649  18.997
48310W        W52378  10.341  22.337  20.613
48311W        W52379   8.029  22.298  20.117
48312W        W52380   9.143  22.870  21.057
48313W        W52381   7.291  22.560  18.535
48314W        W52382  10.463  21.975  21.081
48315W        W52383  10.899  22.296  21.686
48316W        W52384  10.617  23.224  20.307
48317W        W52385   8.780  21.983  18.511
48318W        W52386   8.088  22.675  21.340
48319W        W52387  10.648  22.660  21.000
48320W        W52388   8.348  22.354  21.002
48321W        W52389   7.843  22.726  20.941
48322W        W52390   9.144  21.981  21.305
48323W        W52391   8.199  22.716  20.600
48324W        W52392   8.169  22.064  19.710
48325W        W52393   9.790  22.906  20.402
48326W        W52394   8.399  22.479  19.766
48327W        W52395  10.527  22.447  18.802
48328W        W52396   8.666  21.966  21.205
48329W        W52397   8.518  22.997  19.784
48330W        W52398   8.524  22.866  21.083
48331W        W52399  10.826  23.132  18.640
48332W        W52400   9.561  23.199  20.736
48333W        W52401  10.122  22.093  21.588
48334W        W52402   7.786  22.243  21.175
48335W        W52403   8.125  23.266  20.228
48336W        W52404   8.494  23.080  18.350
48337W        W52405   8.705  22.573  18.443
48338W        W52406  10.501  22.383  21.455
48339W        W52407  10.501  21.980  18.891
48340W        W52408  10.110  22.317  18.510
48341W        W52409  10.175  22.924  20.696
48342W        W52410   8.964  22.455  20.213
48343W        W52411  10.844  22.353  20.285
48344W        W52412   7.807  21.987  21.750
48345W        W52413   9.002  21.938  19.051
48346W        W52414   9.715  22.807  19.910
48347W        W52415   8.654  22.356  18.883
48348W        W52416   9.452  22.821  19.446
48349W        W52417   8.253  22.616  18.740
48350W        W52418   9.770  22.758  19.065
48351W        W52419   8.856  22.282  19.729
48352W        W52420   8.986  23.217  18.529
48353W        W52421   8.922  22.408  21.012
48354W        W52422  10.594  22.117  18.439
48355W        W52423   9.202  21.969  19.578
48356W        W52424   8.760  22.694  20.640
48357W        W52425   8.460  22.063  20.109
48358W        W52426   7.576  22.410  19.949
48359W        W52427   7.376  22.229  19.026
48360W        W52428   9.917  22.821  18.525
48361W        W52429   9.789  21.984  18.345
48362W        W52430   9.786  23.002  21.721
48363W        W52431   7.769  22.532  21.720
48364W        W52432   7.500  23.132  19.053
48365W        W52433   9.771  22.015  19.424
48366W        W52434   9.181  22.262  18.640
48367W        W52435  10.862  21.890  19.362
48368W        W52436  10.716  22.862  19.515
48369W        W52437   8.613  22.608  21.513
48370W        W52438   8.433  23.192  20.754
48371W        W52439   9.625  22.637  21.408
48372W        W52440   7.469  23.108  21.185
48373W        W52441   9.718  23.045  21.172
48374W        W52442   8.928  22.976  21.540
48375W        W52443   9.520  23.167  22.229
48376W        W52444   7.773  22.241  23.033
48377W        W52445  10.461  22.635  21.984
48378W        W52446   9.367  22.333  22.869
48379W        W52447  10.372  23.126  21.874
48380W        W52448   7.684  22.888  22.174
48381W        W52449   9.135  22.828  22.614
48382W        W52450   9.616  23.257  22.759
48383W        W52451   9.482  22.641  22.320
48384W        W52452   9.881  22.521  23.101
48385W        W52453   8.672  22.948  22.477
48386W        W52454  10.293  22.716  22.822
48387W        W52455  10.660  23.198  22.767
48388W        W52456   8.329  21.951  22.473
48389W        W52457   9.624  22.524  21.885
48390W        W52458  10.400  22.917  22.369
48391W        W52459  10.592  22.291  22.999
48392W        W52460   7.893  22.347  22.222
48393W        W52461   8.883  22.574  22.934
48394W        W52462   8.231  22.364  22.886
48395W        W52463   8.236  22.592  21.911
48396W        W52464   8.277  22.043  21.988
48397W        W52465   9.015  23.124  23.039
48398W        W52466   7.926  22.636  23.253
48399W        W52467  10.865  22.694  22.695
48400W        W52468   8.328  22.874  22.862
48401W        W52469   9.160  22.784  21.914
48402W        W52470  10.097  22.255  22.709
48403W        W52471   7.427  22.103  22.157
48404W        W52472   8.607  22.071  22.970
48405W        W52473   9.666  22.148  22.475
48406W        W52474   7.770  22.649  22.642
48407W        W52475   7.291  22.560  22.180
48408W        W52476   8.780  21.983  22.156
48409W        W52477  10.527  22.447  22.447
48410W        W52478  10.826  23.132  22.285
48411W        W52479   8.494  23.080  21.995
48412W        W52480   8.705  22.573  22.088
48413W        W52481  10.501  21.980  22.536
48414W        W52482  10.110  22.317  22.155
48415W        W52483   9.002  21.938  22.696
48416W        W52484   8.654  22.356  22.528
48417W        W52485   9.452  22.821  23.091
48418W        W52486   8.253  22.616  22.385
48419W        W52487   9.770  22.758  22.710
48420W        W52488   8.986  23.217  22.174
48421W        W52489  10.594  22.117  22.084
48422W        W52490   9.202  21.969  23.223
48423W        W52491   7.376  22.229  22.671
48424W        W52492   9.917  22.821  22.170
48425W        W52493   9.789  21.984  21.990
48426W        W52494   7.500  23.132  22.698
48427W        W52495   9.181  22.262  22.285
48428W        W52496  10.862  21.890  23.007
48429W        W52497  10.716  22.862  23.160
48430W        W52498  11.393   2.488   2.882
48431W        W52499  14.098   2.218   0.652
48432W        W52500  14.228   3.303   2.679
48433W        W52501  12.146   3.294   0.205
48434W        W52502  12.229   1.446   1.188
48435W        W52503  11.744   1.294   1.352
48436W        W52504  12.735   2.109   0.786
48437W        W52505  12.410   3.201   3.141
48438W        W52506  11.059   0.762   3.104
48439W        W52507  11.821   0.042   2.906
48440W        W52508  13.515   0.430   1.793
48441W        W52509  13.164   1.301   0.363
48442W        W52510  13.734   0.735   3.454
48443W        W52511  11.100   0.527   2.579
48444W        W52512  11.199   3.146   3.600
48445W        W52513  12.721   2.536   0.332
48446W        W52514  11.153   1.319   2.025
48447W        W52515  12.046   1.210   3.262
48448W        W52516  14.505   1.069   1.761
48449W        W52517  14.269   2.112   2.620
48450W        W52518  12.577   1.445   1.647
48451W        W52519  13.123   2.784   2.016
48452W        W52520  11.623   2.218   2.248
48453W        W52521  10.982   1.746   1.819
48454W        W52522  12.018   1.718   3.011
48455W        W52523  14.289   1.501   3.265
48456W        W52524  11.905   2.945   1.710
48457W        W52525  13.026   2.634   2.844
48458W        W52526  12.246   1.274   2.069
48459W        W52527  12.538   2.058   1.712
48460W        W52528  13.535   2.831   3.560
48461W        W52529  12.614   2.151   3.570
48462W        W52530  12.595   1.867   3.048
48463W        W52531  11.004   1.258   3.570
48464W        W52532  13.836   2.793   3.169
48465W        W52533  11.417   0.375   1.167
48466W        W52534  11.944   2.633   2.166
48467W        W52535  14.407   2.416   1.456
48468W        W52536  13.820   0.816   2.023
48469W        W52537  14.105   0.769   0.118
48470W        W52538  14.570   1.570   2.424
48471W        W52539  12.537   3.277   2.177
48472W        W52540  14.311   2.743   0.615
48473W        W52541  11.440   3.529   0.369
48474W        W52542  11.833   3.575   1.045
48475W        W52543  11.630   0.329   2.471
48476W        W52544  14.253   1.347   2.746
48477W        W52545  13.658   1.769   1.205
48478W        W52546  13.624   1.457   0.232
48479W        W52547  12.832   2.601   2.372
48480W        W52548  12.638   0.931   1.571
48481W        W52549  13.238   3.018   2.565
48482W        W52550  14.109   1.809   0.987
48483W        W52551  13.011   0.467   1.003
48484W        W52552  11.668   3.161   0.686
48485W        W52553  11.039   0.660   1.285
48486W        W52554  13.825   1.267   1.759
48487W        W52555  11.283   2.884   1.674
48488W        W52556  12.624   3.234   0.544
48489W        W52557  14.016   1.260   0.008
48490W        W52558  11.039   3.018   2.172
48491W        W52559  11.830   2.590   2.652
48492W        W52560  12.203   1.950   1.271
48493W        W52561  12.225   0.355   2.364
48494W        W52562  14.454   0.117   1.661
48495W        W52563  11.673   1.989   0.129
48496W        W52564  11.328   1.022   0.308
48497W        W52565  11.390   2.978   1.102
48498W        W52566  12.521   2.461   1.350
48499W        W52567  13.853   3.320   3.064
48500W        W52568  12.779   0.962   0.748
48501W        W52569  14.162   3.360   1.520
48502W        W52570  13.839   1.213   3.118
48503W        W52571  14.552   2.869   1.252
48504W        W52572  13.179   2.161   2.736
48505W        W52573  10.945   1.712   0.942
48506W        W52574  12.056   2.127   2.515
48507W        W52575  13.260   1.391   0.893
48508W        W52576  13.137   1.881   0.997
48509W        W52577  11.480   1.301   2.471
48510W        W52578  11.465   1.177   3.393
48511W        W52579  11.355   0.094   1.552
48512W        W52580  13.123   0.441   2.113
48513W        W52581  12.771   0.626   3.276
48514W        W52582  13.126   0.775   0.454
48515W        W52583  14.309   3.168   3.208
48516W        W52584  13.276   0.249   3.247
48517W        W52585  14.295   2.550   3.369
48518W        W52586  13.725   0.717   2.965
48519W        W52587  13.525   0.655   1.235
48520W        W52588  13.918   1.789   3.639
48521W        W52589  11.658   3.365   1.625
48522W        W52590  12.316   1.082   0.611
48523W        W52591  11.885   0.366   3.275
48524W        W52592  13.937   0.850   0.956
48525W        W52593  14.304   1.332   0.901
48526W        W52594  12.047   3.549   3.372
48527W        W52595  11.973   0.085   0.607
48528W        W52596  14.294   0.619   1.642
48529W        W52597  14.444   2.868   0.087
48530W        W52598  11.351   2.071   1.789
48531W        W52599  13.268   0.658   0.019
48532W        W52600  14.402   2.990   1.739
48533W        W52601  14.441   0.184   2.489
48534W        W52602  12.886   1.396   3.043
48535W        W52603  12.979   2.735   0.746
48536W        W52604  13.379   2.029   3.486
48537W        W52605  13.053   0.006   1.795
48538W        W52606  11.665   0.909   1.858
48539W        W52607  11.219   2.109   2.632
48540W        W52608  13.078   3.302   1.338
48541W        W52609  14.272   0.899   2.210
48542W        W52610  12.909   3.246   2.977
48543W        W52611  14.252   2.305   0.182
48544W        W52612  12.687   1.788   1.243
48545W        W52613  14.539   0.299   2.984
48546W        W52614  12.688   2.134   2.578
48547W        W52615  12.905   1.020   2.023
48548W        W52616  13.757   1.318   0.861
48549W        W52617  14.044   1.051   0.503
48550W        W52618  13.853   3.091   0.892
48551W        W52619  13.687   2.694   1.688
48552W        W52620  13.583   1.773   0.666
48553W        W52621  13.016   1.983   1.652
48554W        W52622  13.897   1.771   1.719
48555W        W52623  11.272   0.786   2.143
48556W        W52624  14.050   1.838   2.970
48557W        W52625  14.401   3.456   2.116
48558W        W52626  12.331   2.900   1.518
48559W        W52627  13.338   3.433   2.842
48560W        W52628  13.332   0.763   2.606
48561W        W52629  12.539   3.471   2.667
48562W        W52630  14.236   0.425   1.133
48563W        W52631  14.027   1.744   2.434
48564W        W52632  11.010   1.065   2.472
48565W        W52633  13.870   0.860   1.490
48566W        W52634  14.281   1.011   3.267
48567W        W52635  13.166   2.710   1.485
48568W        W52636  12.422   3.301   1.098
48569W        W52637  11.537   0.481   0.356
48570W        W52638  12.641   0.135   2.166
48571W        W52639  11.669   3.255   0.014
48572W        W52640  12.043   1.721   0.765
48573W        W52641  12.697   2.350   3.078
48574W        W52642  12.527   0.708   1.068
48575W        W52643  13.883   0.305   1.496
48576W        W52644  13.603   3.587   1.824
48577W        W52645  13.015   3.235   2.164
48578W        W52646  12.411   2.272   2.125
48579W        W52647  14.181   2.995   2.251
48580W        W52648  11.875   0.498   1.020
48581W        W52649  12.397   2.795   1.980
48582W        W52650  11.880   0.726   0.045
48583W        W52651  12.681   1.335   2.439
48584W        W52652  13.529   0.201   2.309
48585W        W52653  10.949   2.044   2.194
48586W        W52654  12.653   1.862   0.352
48587W        W52655  11.921   0.177   0.122
48588W        W52656  12.659   1.258   1.173
48589W        W52657  13.629   0.234   2.872
48590W        W52658  12.217   2.246   2.981
48591W        W52659  13.021   2.028   3.198
48592W        W52660  13.638   2.058   3.091
48593W        W52661  12.922   0.198   3.596
48594W        W52662  12.144   0.814   1.989
48595W        W52663  11.570   0.770   1.387
48596W        W52664  11.356   3.482   1.063
48597W        W52665  12.688   2.812   3.188
48598W        W52666  11.723   2.297   0.547
48599W        W52667  13.403   1.682   1.768
48600W        W52668  13.683   1.481   2.167
48601W        W52669  12.888   2.155   2.101
48602W        W52670  13.358   2.529   0.233
48603W        W52671  13.030   0.550   1.561
48604W        W52672  14.509   0.828   0.829
48605W        W52673  11.420   2.643   2.392
48606W        W52674  10.987   3.489   0.624
48607W        W52675  12.886   0.759   2.430
48608W        W52676  12.249   2.782   0.279
48609W        W52677  14.154   3.164   0.465
48610W        W52678  13.129   1.817   0.479
48611W        W52679  11.972   1.008   0.996
48612W        W52680  12.804   0.918   0.048
48613W        W52681  13.388   2.483   3.226
48614W        W52682  13.741   0.389   0.843
48615W        W52683  11.071   0.237   0.291
48616W        W52684  12.357   2.556   2.581
48617W        W52685  12.156   2.472   1.673
48618W        W52686  11.898   2.424   0.071
48619W        W52687  11.139   2.665   0.839
48620W        W52688  11.643   1.735   3.281
48621W        W52689  12.347   0.295   3.467
48622W        W52690  13.056   0.437   2.823
48623W        W52691  12.251   0.205   1.104
48624W        W52692  13.310   0.282   0.609
48625W        W52693  11.255   0.214   2.186
48626W        W52694  11.303   1.177   1.556
48627W        W52695  13.992   0.285   1.962
48628W        W52696  11.414   0.783   0.776
48629W        W52697  13.985   0.471   2.392
48630W        W52698  14.381   1.674   0.077
48631W        W52699  11.673   0.432   1.896
48632W        W52700  12.787   1.004   2.836
48633W        W52701  10.935   0.694   0.314
48634W        W52702  11.721   2.083   2.875
48635W        W52703  13.079   1.481   2.054
48636W        W52704  12.946   3.560   0.350
48637W        W52705  11.092   2.067   0.047
48638W        W52706  11.827   2.478   3.173
48639W        W52707  11.348   1.645   2.804
48640W        W52708  12.339   1.750   2.598
48641W        W52709  14.107   0.109   2.860
48642W        W52710  14.505   1.719   2.851
48643W        W52711  14.493   1.919   0.537
48644W        W52712  13.356   2.251   0.636
48645W        W52713  13.830   3.551   0.331
48646W        W52714  13.007   1.541   3.473
48647W        W52715  11.337   2.508   3.513
48648W        W52716  14.543   0.430   3.465
48649W        W52717  14.261   1.358   2.086
48650W        W52718  12.569   3.488   3.563
48651W        W52719  12.424   0.117   0.290
48652W        W52720  13.963   2.716   0.233
48653W        W52721  11.732   0.809   3.119
48654W        W52722  12.166   2.803   2.981
48655W        W52723  14.292   0.794   2.779
48656W        W52724  13.503   3.453   0.747
48657W        W52725  13.742   2.072   2.114
48658W        W52726  11.992   0.488   2.781
48659W        W52727  12.461   1.557   3.538
48660W        W52728  11.964   2.736   0.732
48661W        W52729  13.719   2.234   0.996
48662W        W52730  11.487   0.860   2.720
48663W        W52731  12.816   2.922   1.184
48664W        W52732  14.566   1.482   1.365
48665W        W52733  12.788   0.115   3.084
48666W        W52734  13.568   2.820   2.163
48667W        W52735  13.871   3.164   1.871
48668W        W52736  13.090   2.966   0.299
48669W        W52737  11.100   2.858   3.141
48670W        W52738  11.843   0.850   2.379
48671W        W52739  11.813   0.198   1.489
48672W        W52740  13.434   1.040   2.181
48673W        W52741  12.232   2.211   0.381
48674W        W52742  14.230   2.153   1.880
48675W        W52743  11.557   2.911   3.303
48676W        W52744  13.944   3.593   1.100
48677W        W52745  12.043   0.613   1.545
48678W        W52746  11.812   2.106   1.635
48679W        W52747  12.125   3.517   2.385
48680W        W52748  14.192   3.613   3.417
48681W        W52749  13.351   1.801   2.350
48682W        W52750  11.200   1.599   0.265
48683W        W52751  14.334   3.257   0.962
48684W        W52752  14.171   0.581   0.581
48685W        W52753  12.310   0.100   2.984
48686W        W52754  14.016   2.902   1.442
48687W        W52755  14.045   1.458   1.347
48688W        W52756  12.162   1.131   1.563
48689W        W52757  12.407   1.393   2.887
48690W        W52758  13.518   2.546   2.750
48691W        W52759  12.168   1.000   2.862
48692W        W52760  12.147   3.466   1.478
48693W        W52761  11.464   3.425   3.112
48694W        W52762  11.576   2.786   0.242
48695W        W52763  14.093   2.544   1.052
48696W        W52764  11.697   1.336   2.938
48697W        W52765  14.470   1.266   0.419
48698W        W52766  12.215   2.323   0.890
48699W        W52767  13.314   1.705   2.971
48700W        W52768  13.205   1.333   2.515
48701W        W52769  11.765   1.705   2.544
48702W        W52770  13.975   3.593   2.373
48703W        W52771  13.766   0.227   3.367
48704W        W52772  11.430   0.377   2.954
48705W        W52773  11.769   1.400   2.007
48706W        W52774  12.138   1.214   0.129
48707W        W52775  10.941   2.973   2.674
48708W        W52776  12.526   1.682   2.117
48709W        W52777  12.349   0.707   0.222
48710W        W52778  11.484   1.523   1.003
48711W        W52779  11.255   3.375   2.440
48712W        W52780  14.050   1.601   0.548
48713W        W52781  14.145   0.517   3.234
48714W        W52782  13.581   2.726   1.197
48715W        W52783  11.179   1.650   3.374
48716W        W52784  14.145   0.114   0.670
48717W        W52785  13.665   2.589   0.681
48718W        W52786  12.567   1.647   0.766
48719W        W52787  13.754   0.451   0.289
48720W        W52788  13.819   1.058   2.475
48721W        W52789  11.528   1.651   1.682
48722W        W52790  11.822   2.590   1.331
48723W        W52791  13.585   1.210   1.296
48724W        W52792  12.608   0.589   1.992
48725W        W52793  14.570   2.500   2.503
48726W        W52794  14.488   0.487   2.064
48727W        W52795  11.027   3.317   1.440
48728W        W52796  11.536   2.504   0.976
48729W        W52797  11.451   0.121   3.529
48730W        W52798  12.570   2.974   3.631
48731W        W52799  14.325   1.942   1.421
48732W        W52800  13.679   2.119   0.301
48733W        W52801  12.974   3.640   2.513
48734W        W52802  13.831   2.362   3.550
48735W        W52803  12.646   0.072   0.830
48736W        W52804  13.359   0.941   1.689
48737W        W52805  11.045   2.528   2.021
48738W        W52806  12.298   0.490   0.662
48739W        W52807  12.102   1.974   3.511
48740W        W52808  13.096   0.955   1.225
48741W        W52809  13.301   2.365   2.347
48742W        W52810  11.455   2.970   2.782
48743W        W52811  12.046   2.953   3.505
48744W        W52812  11.897   0.750   0.519
48745W        W52813  13.414   0.892   0.844
48746W        W52814  13.372   3.000   3.081
48747W        W52815  12.057   1.592   1.680
48748W        W52816  11.712   3.290   2.545
48749W        W52817  14.457   3.407   0.146
48750W        W52818  11.320   2.079   3.142
48751W        W52819  13.315   2.341   1.830
48752W        W52820  11.751   1.990   1.072
48753W        W52821  12.122   2.997   2.467
48754W        W52822  12.500   0.416   1.508
48755W        W52823  11.111   2.400   0.438
48756W        W52824  12.630   1.351   0.308
48757W        W52825  11.276   1.900   1.327
48758W        W52826  12.566   0.542   2.791
48759W        W52827  14.238   0.251   0.218
48760W        W52828  14.331   1.997   3.317
48761W        W52829  12.985   3.254   3.469
48762W        W52830  14.543   2.348   2.991
48763W        W52831  13.951   3.146   3.602
48764W        W52832  11.690   3.602   2.080
48765W        W52833  14.549   2.224   0.954
48766W        W52834  13.079   1.491   1.467
48767W        W52835  12.846   0.103   1.357
48768W        W52836  11.905   3.087   1.194
48769W        W52837  12.404   0.828   2.419
48770W        W52838  12.104   0.197   1.888
48771W        W52839  11.167   3.019   0.436
48772W        W52840  12.983   2.383   1.154
48773W        W52841  11.858   3.178   3.033
48774W        W52842  11.335   2.001   0.729
48775W        W52843  11.220   0.544   1.728
48776W        W52844  12.768   2.509   1.785
48777W        W52845  11.020   0.363   0.805
48778W        W52846  13.684   1.569   2.732
48779W        W52847  13.561   0.955   0.304
48780W        W52848  14.078   2.627   1.952
48781W        W52849  12.739   3.111   1.783
48782W        W52850  12.151   3.215   0.694
48783W        W52851  13.433   0.118   0.124
48784W        W52852  11.233   3.378   1.865
48785W        W52853  13.430   1.136   3.500
48786W        W52854  11.413   0.666   3.499
48787W        W52855  11.144   1.266   0.832
48788W        W52856  11.835   1.255   0.557
48789W        W52857  13.598   1.582   3.374
48790W        W52858  11.941   1.863   2.083
48791W        W52859  13.415   0.149   1.203
48792W        W52860  12.546   3.580   1.706
48793W        W52861  13.760   3.042   2.643
48794W        W52862  13.344   3.191   1.754
48795W        W52863  13.363   2.171   1.348
48796W        W52864  12.825   0.396   0.419
48797W        W52865  14.506   0.024   1.141
48798W        W52866  12.194   1.659   0.304
48799W        W52867  14.360   0.996   1.294
48800W        W52868  13.052   2.166   0.171
48801W        W52869  13.988   2.366   2.919
48802W        W52870  13.642   3.067   0.386
48803W        W52871  12.257   0.742   3.292
48804W        W52872  12.077   1.326   2.533
48805W        W52873  14.169   2.821   2.810
48806W        W52874  13.269   0.771   3.187
48807W        W52875  11.113   1.242   2.964
48808W        W52876  12.873   1.719   2.690
48809W        W52877  11.230   2.477   1.347
48810W        W52878  11.377   1.774   2.237
48811W        W52879  13.694   2.060   2.587
48812W        W52880  13.466   3.440   3.398
48813W        W52881  13.362   1.179   2.951
48814W        W52882  13.639   3.233   1.356
48815W        W52883  12.641   2.953   2.679
48816W        W52884  12.126   3.308   1.948
48817W        W52885  13.931   2.479   2.367
48818W        W52886  11.586   2.504   1.843
48819W        W52887  13.932   2.263   1.488
48820W        W52888  13.573   3.329   2.239
48821W        W52889  11.551   3.058   2.109
48822W        W52890  12.572   1.110   3.319
48823W        W52891  13.023   3.276   0.830
48824W        W52892  12.331   2.531   3.468
48825W        W52893  12.457   2.769   0.845
48826W        W52894  11.678   1.509   0.104
48827W        W52895  11.017   3.595   7.003
48828W        W52896  11.393   2.488   6.526
48829W        W52897  14.228   3.303   6.323
48830W        W52898  12.146   3.294   3.849
48831W        W52899  12.229   1.446   4.832
48832W        W52900  11.744   1.294   4.996
48833W        W52901  12.735   2.109   4.430
48834W        W52902  12.410   3.201   6.785
48835W        W52903  11.059   0.762   6.748
48836W        W52904  11.821   0.042   6.550
48837W        W52905  13.515   0.430   5.437
48838W        W52906  13.164   1.301   4.007
48839W        W52907  13.734   0.735   7.098
48840W        W52908  11.100   0.527   6.223
48841W        W52909  11.199   3.146   7.244
48842W        W52910  12.721   2.536   3.976
48843W        W52911  11.153   1.319   5.669
48844W        W52912  12.046   1.210   6.906
48845W        W52913  14.505   1.069   5.405
48846W        W52914  14.269   2.112   6.264
48847W        W52915  12.577   1.445   5.291
48848W        W52916  13.123   2.784   5.660
48849W        W52917  11.623   2.218   5.892
48850W        W52918  10.982   1.746   5.463
48851W        W52919  12.018   1.718   6.655
48852W        W52920  14.289   1.501   6.909
48853W        W52921  11.905   2.945   5.354
48854W        W52922  13.026   2.634   6.488
48855W        W52923  12.246   1.274   5.713
48856W        W52924  12.538   2.058   5.356
48857W        W52925  13.535   2.831   7.204
48858W        W52926  12.614   2.151   7.214
48859W        W52927  12.595   1.867   6.692
48860W        W52928  11.004   1.258   7.214
48861W        W52929  13.836   2.793   6.813
48862W        W52930  11.417   0.375   4.811
48863W        W52931  11.944   2.633   5.810
48864W        W52932  14.407   2.416   5.100
48865W        W52933  13.820   0.816   5.667
48866W        W52934  14.105   0.769   3.762
48867W        W52935  14.570   1.570   6.068
48868W        W52936  12.537   3.277   5.821
48869W        W52937  14.311   2.743   4.259
48870W        W52938  11.833   3.575   4.689
48871W        W52939  11.630   0.329   6.115
48872W        W52940  14.253   1.347   6.390
48873W        W52941  13.658   1.769   4.849
48874W        W52942  13.624   1.457   3.876
48875W        W52943  12.832   2.601   6.016
48876W        W52944  12.638   0.931   5.215
48877W        W52945  13.238   3.018   6.209
48878W        W52946  13.011   0.467   4.647
48879W        W52947  11.039   0.660   4.929
48880W        W52948  13.825   1.267   5.403
48881W        W52949  11.283   2.884   5.318
48882W        W52950  12.624   3.234   4.188
48883W        W52951  14.016   1.260   3.652
48884W        W52952  11.039   3.018   5.816
48885W        W52953  11.830   2.590   6.296
48886W        W52954  12.203   1.950   4.915
48887W        W52955  12.225   0.355   6.008
48888W        W52956  14.454   0.117   5.305
48889W        W52957  11.673   1.989   3.773
48890W        W52958  11.328   1.022   3.952
48891W        W52959  11.390   2.978   4.746
48892W        W52960  12.521   2.461   4.994
48893W        W52961  13.853   3.320   6.708
48894W        W52962  12.779   0.962   4.392
48895W        W52963  14.162   3.360   5.164
48896W        W52964  13.839   1.213   6.762
48897W        W52965  14.552   2.869   4.896
48898W        W52966  13.179   2.161   6.380
48899W        W52967  10.945   1.712   4.586
48900W        W52968  12.056   2.127   6.159
48901W        W52969  13.260   1.391   4.537
48902W        W52970  13.137   1.881   4.641
48903W        W52971  11.480   1.301   6.115
48904W        W52972  11.465   1.177   7.037
48905W        W52973  11.355   0.094   5.196
48906W        W52974  13.123   0.441   5.757
48907W        W52975  12.771   0.626   6.920
48908W        W52976  13.126   0.775   4.098
48909W        W52977  14.309   3.168   6.852
48910W        W52978  13.276   0.249   6.891
48911W        W52979  14.295   2.550   7.013
48912W        W52980  13.725   0.717   6.609
48913W        W52981  13.525   0.655   4.879
48914W        W52982  13.918   1.789   7.283
48915W        W52983  11.658   3.365   5.269
48916W        W52984  12.316   1.082   4.255
48917W        W52985  11.885   0.366   6.919
48918W        W52986  13.937   0.850   4.600
48919W        W52987  14.304   1.332   4.545
48920W        W52988  12.047   3.549   7.016
48921W        W52989  11.973   0.085   4.251
48922W        W52990  14.294   0.619   5.286
48923W        W52991  14.444   2.868   3.731
48924W        W52992  11.351   2.071   5.433
48925W        W52993  13.268   0.658   3.663
48926W        W52994  14.402   2.990   5.383
48927W        W52995  14.441   0.184   6.133
48928W        W52996  12.886   1.396   6.687
48929W        W52997  12.979   2.735   4.390
48930W        W52998  13.379   2.029   7.130
48931W        W52999  13.053   0.006   5.439
48932W        W53000  11.665   0.909   5.502
48933W        W53001  11.219   2.109   6.276
48934W        W53002  13.078   3.302   4.982
48935W        W53003  14.272   0.899   5.854
48936W        W53004  12.909   3.246   6.621
48937W        W53005  12.687   1.788   4.887
48938W        W53006  14.539   0.299   6.628
48939W        W53007  12.688   2.134   6.222
48940W        W53008  12.905   1.020   5.667
48941W        W53009  13.757   1.318   4.505
48942W        W53010  14.044   1.051   4.147
48943W        W53011  13.853   3.091   4.536
48944W        W53012  13.687   2.694   5.332
48945W        W53013  13.583   1.773   4.310
48946W        W53014  13.016   1.983   5.296
48947W        W53015  13.897   1.771   5.363
48948W        W53016  11.272   0.786   5.787
48949W        W53017  14.050   1.838   6.614
48950W        W53018  14.401   3.456   5.760
48951W        W53019  12.331   2.900   5.162
48952W        W53020  13.338   3.433   6.486
48953W        W53021  13.332   0.763   6.250
48954W        W53022  12.539   3.471   6.311
48955W        W53023  14.236   0.425   4.777
48956W        W53024  14.027   1.744   6.078
48957W        W53025  11.010   1.065   6.116
48958W        W53026  13.870   0.860   5.134
48959W        W53027  14.281   1.011   6.911
48960W        W53028  13.166   2.710   5.129
48961W        W53029  12.422   3.301   4.742
48962W        W53030  11.537   0.481   4.000
48963W        W53031  12.641   0.135   5.810
48964W        W53032  12.043   1.721   4.409
48965W        W53033  12.697   2.350   6.722
48966W        W53034  12.527   0.708   4.712
48967W        W53035  13.883   0.305   5.140
48968W        W53036  13.603   3.587   5.468
48969W        W53037  13.015   3.235   5.808
48970W        W53038  12.411   2.272   5.769
48971W        W53039  14.181   2.995   5.895
48972W        W53040  11.875   0.498   4.664
48973W        W53041  12.397   2.795   5.624
48974W        W53042  11.880   0.726   3.689
48975W        W53043  12.681   1.335   6.083
48976W        W53044  13.529   0.201   5.953
48977W        W53045  10.949   2.044   5.838
48978W        W53046  12.653   1.862   3.996
48979W        W53047  11.921   0.177   3.766
48980W        W53048  12.659   1.258   4.817
48981W        W53049  13.629   0.234   6.516
48982W        W53050  12.217   2.246   6.625
48983W        W53051  13.021   2.028   6.842
48984W        W53052  13.638   2.058   6.735
48985W        W53053  12.922   0.198   7.240
48986W        W53054  12.144   0.814   5.633
48987W        W53055  11.570   0.770   5.031
48988W        W53056  11.356   3.482   4.707
48989W        W53057  12.688   2.812   6.832
48990W        W53058  11.723   2.297   4.191
48991W        W53059  13.403   1.682   5.412
48992W        W53060  13.683   1.481   5.811
48993W        W53061  12.888   2.155   5.745
48994W        W53062  13.030   0.550   5.205
48995W        W53063  14.509   0.828   4.473
48996W        W53064  11.003   3.417   6.504
48997W        W53065  11.420   2.643   6.036
48998W        W53066  10.987   3.489   4.268
48999W        W53067  12.886   0.759   6.074
49000W        W53068  12.249   2.782   3.923
49001W        W53069  14.154   3.164   4.109
49002W        W53070  13.129   1.817   4.123
49003W        W53071  11.972   1.008   4.640
49004W        W53072  12.804   0.918   3.692
49005W        W53073  13.388   2.483   6.870
49006W        W53074  13.741   0.389   4.487
49007W        W53075  11.071   0.237   3.935
49008W        W53076  12.357   2.556   6.225
49009W        W53077  12.156   2.472   5.317
49010W        W53078  11.898   2.424   3.715
49011W        W53079  11.139   2.665   4.483
49012W        W53080  11.643   1.735   6.925
49013W        W53081  12.347   0.295   7.111
49014W        W53082  13.056   0.437   6.467
49015W        W53083  12.251   0.205   4.748
49016W        W53084  13.310   0.282   4.253
49017W        W53085  11.255   0.214   5.830
49018W        W53086  11.303   1.177   5.200
49019W        W53087  13.992   0.285   5.606
49020W        W53088  11.414   0.783   4.420
49021W        W53089  13.985   0.471   6.036
49022W        W53090  14.381   1.674   3.721
49023W        W53091  11.673   0.432   5.540
49024W        W53092  12.787   1.004   6.480
49025W        W53093  10.935   0.694   3.958
49026W        W53094  11.721   2.083   6.519
49027W        W53095  13.079   1.481   5.698
49028W        W53096  12.946   3.560   3.994
49029W        W53097  11.092   2.067   3.691
49030W        W53098  11.827   2.478   6.817
49031W        W53099  11.348   1.645   6.448
49032W        W53100  12.339   1.750   6.242
49033W        W53101  14.107   0.109   6.504
49034W        W53102  14.505   1.719   6.495
49035W        W53103  14.493   1.919   4.181
49036W        W53104  13.356   2.251   4.280
49037W        W53105  13.830   3.551   3.975
49038W        W53106  13.007   1.541   7.117
49039W        W53107  11.337   2.508   7.157
49040W        W53108  14.543   0.430   7.109
49041W        W53109  14.261   1.358   5.730
49042W        W53110  12.569   3.488   7.207
49043W        W53111  12.424   0.117   3.934
49044W        W53112  11.732   0.809   6.763
49045W        W53113  12.166   2.803   6.625
49046W        W53114  14.292   0.794   6.423
49047W        W53115  13.503   3.453   4.391
49048W        W53116  13.742   2.072   5.758
49049W        W53117  11.992   0.488   6.425
49050W        W53118  12.461   1.557   7.182
49051W        W53119  11.964   2.736   4.376
49052W        W53120  13.719   2.234   4.640
49053W        W53121  11.487   0.860   6.364
49054W        W53122  12.816   2.922   4.828
49055W        W53123  14.566   1.482   5.009
49056W        W53124  12.788   0.115   6.728
49057W        W53125  13.568   2.820   5.807
49058W        W53126  13.871   3.164   5.515
49059W        W53127  13.090   2.966   3.943
49060W        W53128  11.100   2.858   6.785
49061W        W53129  11.843   0.850   6.023
49062W        W53130  11.813   0.198   5.133
49063W        W53131  13.434   1.040   5.825
49064W        W53132  12.232   2.211   4.025
49065W        W53133  14.230   2.153   5.524
49066W        W53134  11.557   2.911   6.947
49067W        W53135  13.944   3.593   4.744
49068W        W53136  12.043   0.613   5.189
49069W        W53137  11.812   2.106   5.279
49070W        W53138  12.125   3.517   6.029
49071W        W53139  14.192   3.613   7.061
49072W        W53140  13.351   1.801   5.994
49073W        W53141  11.200   1.599   3.909
49074W        W53142  14.334   3.257   4.606
49075W        W53143  14.171   0.581   4.225
49076W        W53144  12.310   0.100   6.628
49077W        W53145  14.016   2.902   5.086
49078W        W53146  14.045   1.458   4.991
49079W        W53147  12.162   1.131   5.207
49080W        W53148  12.407   1.393   6.531
49081W        W53149  13.518   2.546   6.394
49082W        W53150  12.168   1.000   6.506
49083W        W53151  12.147   3.466   5.122
49084W        W53152  11.464   3.425   6.756
49085W        W53153  11.576   2.786   3.886
49086W        W53154  14.093   2.544   4.696
49087W        W53155  11.697   1.336   6.582
49088W        W53156  14.470   1.266   4.063
49089W        W53157  12.215   2.323   4.534
49090W        W53158  13.314   1.705   6.615
49091W        W53159  13.205   1.333   6.159
49092W        W53160  11.765   1.705   6.188
49093W        W53161  13.975   3.593   6.017
49094W        W53162  13.766   0.227   7.011
49095W        W53163  11.430   0.377   6.598
49096W        W53164  11.769   1.400   5.651
49097W        W53165  12.138   1.214   3.773
49098W        W53166  10.941   2.973   6.318
49099W        W53167  12.526   1.682   5.761
49100W        W53168  12.349   0.707   3.866
49101W        W53169  11.484   1.523   4.647
49102W        W53170  11.255   3.375   6.084
49103W        W53171  14.050   1.601   4.192
49104W        W53172  14.145   0.517   6.878
49105W        W53173  13.581   2.726   4.841
49106W        W53174  11.179   1.650   7.018
49107W        W53175  14.145   0.114   4.314
49108W        W53176  13.665   2.589   4.325
49109W        W53177  12.567   1.647   4.410
49110W        W53178  13.754   0.451   3.933
49111W        W53179  13.819   1.058   6.119
49112W        W53180  11.528   1.651   5.326
49113W        W53181  11.822   2.590   4.975
49114W        W53182  13.585   1.210   4.940
49115W        W53183  12.608   0.589   5.636
49116W        W53184  14.570   2.500   6.147
49117W        W53185  14.488   0.487   5.708
49118W        W53186  11.027   3.317   5.084
49119W        W53187  11.536   2.504   4.620
49120W        W53188  11.451   0.121   7.173
49121W        W53189  12.570   2.974   7.275
49122W        W53190  14.325   1.942   5.065
49123W        W53191  13.679   2.119   3.945
49124W        W53192  12.974   3.640   6.157
49125W        W53193  13.831   2.362   7.194
49126W        W53194  12.646   0.072   4.474
49127W        W53195  13.359   0.941   5.333
49128W        W53196  11.045   2.528   5.665
49129W        W53197  12.298   0.490   4.306
49130W        W53198  12.102   1.974   7.155
49131W        W53199  13.096   0.955   4.869
49132W        W53200  13.301   2.365   5.991
49133W        W53201  11.455   2.970   6.426
49134W        W53202  12.046   2.953   7.149
49135W        W53203  11.897   0.750   4.163
49136W        W53204  13.414   0.892   4.488
49137W        W53205  13.372   3.000   6.725
49138W        W53206  12.057   1.592   5.324
49139W        W53207  11.712   3.290   6.189
49140W        W53208  14.457   3.407   3.790
49141W        W53209  11.320   2.079   6.786
49142W        W53210  13.315   2.341   5.474
49143W        W53211  11.751   1.990   4.716
49144W        W53212  12.122   2.997   6.111
49145W        W53213  12.500   0.416   5.152
49146W        W53214  11.111   2.400   4.082
49147W        W53215  12.630   1.351   3.952
49148W        W53216  11.276   1.900   4.971
49149W        W53217  12.566   0.542   6.435
49150W        W53218  14.238   0.251   3.862
49151W        W53219  14.331   1.997   6.961
49152W        W53220  12.985   3.254   7.113
49153W        W53221  14.543   2.348   6.635
49154W        W53222  13.951   3.146   7.246
49155W        W53223  11.690   3.602   5.724
49156W        W53224  14.549   2.224   4.598
49157W        W53225  13.079   1.491   5.111
49158W        W53226  12.846   0.103   5.001
49159W        W53227  11.905   3.087   4.838
49160W        W53228  12.404   0.828   6.063
49161W        W53229  12.104   0.197   5.532
49162W        W53230  11.167   3.019   4.080
49163W        W53231  12.983   2.383   4.798
49164W        W53232  11.858   3.178   6.677
49165W        W53233  11.335   2.001   4.373
49166W        W53234  11.220   0.544   5.372
49167W        W53235  12.768   2.509   5.429
49168W        W53236  11.020   0.363   4.449
49169W        W53237  13.684   1.569   6.376
49170W        W53238  13.561   0.955   3.948
49171W        W53239  14.078   2.627   5.596
49172W        W53240  12.739   3.111   5.427
49173W        W53241  12.151   3.215   4.338
49174W        W53242  13.433   0.118   3.768
49175W        W53243  11.233   3.378   5.509
49176W        W53244  13.430   1.136   7.144
49177W        W53245  11.413   0.666   7.143
49178W        W53246  11.144   1.266   4.476
49179W        W53247  11.835   1.255   4.201
49180W        W53248  13.598   1.582   7.018
49181W        W53249  11.941   1.863   5.727
49182W        W53250  13.415   0.149   4.847
49183W        W53251  12.546   3.580   5.350
49184W        W53252  13.760   3.042   6.287
49185W        W53253  13.344   3.191   5.398
49186W        W53254  13.363   2.171   4.992
49187W        W53255  12.825   0.396   4.063
49188W        W53256  14.506   0.024   4.785
49189W        W53257  12.194   1.659   3.948
49190W        W53258  14.360   0.996   4.938
49191W        W53259  13.052   2.166   3.815
49192W        W53260  13.988   2.366   6.563
49193W        W53261  13.642   3.067   4.030
49194W        W53262  12.257   0.742   6.936
49195W        W53263  12.077   1.326   6.177
49196W        W53264  14.169   2.821   6.454
49197W        W53265  13.269   0.771   6.831
49198W        W53266  11.113   1.242   6.608
49199W        W53267  12.873   1.719   6.334
49200W        W53268  11.230   2.477   4.991
49201W        W53269  11.377   1.774   5.881
49202W        W53270  13.694   2.060   6.231
49203W        W53271  13.466   3.440   7.042
49204W        W53272  13.362   1.179   6.595
49205W        W53273  13.639   3.233   5.000
49206W        W53274  12.641   2.953   6.323
49207W        W53275  12.126   3.308   5.592
49208W        W53276  13.931   2.479   6.011
49209W        W53277  12.981   2.551   7.148
49210W        W53278  11.586   2.504   5.487
49211W        W53279  13.932   2.263   5.132
49212W        W53280  13.573   3.329   5.883
49213W        W53281  11.551   3.058   5.753
49214W        W53282  12.572   1.110   6.963
49215W        W53283  13.023   3.276   4.474
49216W        W53284  12.331   2.531   7.112
49217W        W53285  12.457   2.769   4.489
49218W        W53286  11.678   1.509   3.748
49219W        W53287  11.017   3.595  10.648
49220W        W53288  11.393   2.488  10.171
49221W        W53289  14.098   2.218   7.941
49222W        W53290  14.228   3.303   9.968
49223W        W53291  12.146   3.294   7.494
49224W        W53292  12.229   1.446   8.477
49225W        W53293  11.744   1.294   8.641
49226W        W53294  12.735   2.109   8.075
49227W        W53295  12.410   3.201  10.430
49228W        W53296  11.059   0.762  10.393
49229W        W53297  11.821   0.042  10.195
49230W        W53298  13.515   0.430   9.082
49231W        W53299  13.164   1.301   7.652
49232W        W53300  13.734   0.735  10.743
49233W        W53301  11.100   0.527   9.868
49234W        W53302  11.199   3.146  10.889
49235W        W53303  12.721   2.536   7.621
49236W        W53304  11.153   1.319   9.314
49237W        W53305  12.046   1.210  10.551
49238W        W53306  14.505   1.069   9.050
49239W        W53307  14.269   2.112   9.909
49240W        W53308  12.577   1.445   8.936
49241W        W53309  13.123   2.784   9.305
49242W        W53310  11.623   2.218   9.537
49243W        W53311  10.982   1.746   9.108
49244W        W53312  12.018   1.718  10.300
49245W        W53313  14.289   1.501  10.554
49246W        W53314  11.905   2.945   8.999
49247W        W53315  13.026   2.634  10.133
49248W        W53316  12.246   1.274   9.358
49249W        W53317  12.538   2.058   9.001
49250W        W53318  13.535   2.831  10.849
49251W        W53319  12.614   2.151  10.859
49252W        W53320  12.595   1.867  10.337
49253W        W53321  11.004   1.258  10.859
49254W        W53322  13.836   2.793  10.458
49255W        W53323  11.417   0.375   8.456
49256W        W53324  11.944   2.633   9.455
49257W        W53325  14.407   2.416   8.745
49258W        W53326  13.820   0.816   9.312
49259W        W53327  14.105   0.769   7.407
49260W        W53328  14.570   1.570   9.713
49261W        W53329  12.537   3.277   9.466
49262W        W53330  14.311   2.743   7.904
49263W        W53331  11.440   3.529   7.658
49264W        W53332  11.833   3.575   8.334
49265W        W53333  11.630   0.329   9.760
49266W        W53334  14.253   1.347  10.035
49267W        W53335  13.658   1.769   8.494
49268W        W53336  13.624   1.457   7.521
49269W        W53337  12.832   2.601   9.661
49270W        W53338  12.638   0.931   8.860
49271W        W53339  13.238   3.018   9.854
49272W        W53340  14.109   1.809   8.276
49273W        W53341  13.011   0.467   8.292
49274W        W53342  11.668   3.161   7.975
49275W        W53343  11.039   0.660   8.574
49276W        W53344  13.825   1.267   9.048
49277W        W53345  11.283   2.884   8.963
49278W        W53346  12.624   3.234   7.833
49279W        W53347  14.016   1.260   7.297
49280W        W53348  11.039   3.018   9.461
49281W        W53349  11.830   2.590   9.941
49282W        W53350  12.203   1.950   8.560
49283W        W53351  12.225   0.355   9.653
49284W        W53352  14.454   0.117   8.950
49285W        W53353  11.673   1.989   7.418
49286W        W53354  11.328   1.022   7.597
49287W        W53355  11.390   2.978   8.391
49288W        W53356  12.521   2.461   8.639
49289W        W53357  13.853   3.320  10.353
49290W        W53358  12.779   0.962   8.037
49291W        W53359  14.162   3.360   8.809
49292W        W53360  13.839   1.213  10.407
49293W        W53361  14.552   2.869   8.541
49294W        W53362  13.179   2.161  10.025
49295W        W53363  10.945   1.712   8.231
49296W        W53364  12.056   2.127   9.804
49297W        W53365  13.260   1.391   8.182
49298W        W53366  13.137   1.881   8.286
49299W        W53367  11.480   1.301   9.760
49300W        W53368  11.465   1.177  10.682
49301W        W53369  11.355   0.094   8.841
49302W        W53370  13.123   0.441   9.402
49303W        W53371  12.771   0.626  10.565
49304W        W53372  13.126   0.775   7.743
49305W        W53373  14.309   3.168  10.497
49306W        W53374  13.276   0.249  10.536
49307W        W53375  14.295   2.550  10.658
49308W        W53376  13.725   0.717  10.254
49309W        W53377  13.525   0.655   8.524
49310W        W53378  13.918   1.789  10.928
49311W        W53379  11.658   3.365   8.914
49312W        W53380  12.316   1.082   7.900
49313W        W53381  11.885   0.366  10.564
49314W        W53382  13.937   0.850   8.245
49315W        W53383  14.304   1.332   8.190
49316W        W53384  12.047   3.549  10.661
49317W        W53385  11.973   0.085   7.896
49318W        W53386  14.294   0.619   8.931
49319W        W53387  14.444   2.868   7.376
49320W        W53388  11.351   2.071   9.078
49321W        W53389  13.268   0.658   7.308
49322W        W53390  14.402   2.990   9.028
49323W        W53391  14.441   0.184   9.778
49324W        W53392  12.886   1.396  10.332
49325W        W53393  12.979   2.735   8.035
49326W        W53394  13.379   2.029  10.775
49327W        W53395  13.053   0.006   9.084
49328W        W53396  11.665   0.909   9.147
49329W        W53397  11.219   2.109   9.921
49330W        W53398  13.078   3.302   8.627
49331W        W53399  14.272   0.899   9.499
49332W        W53400  12.909   3.246  10.266
49333W        W53401  14.252   2.305   7.471
49334W        W53402  12.687   1.788   8.532
49335W        W53403  14.539   0.299  10.273
49336W        W53404  12.688   2.134   9.867
49337W        W53405  12.905   1.020   9.312
49338W        W53406  13.757   1.318   8.150
49339W        W53407  14.044   1.051   7.792
49340W        W53408  13.853   3.091   8.181
49341W        W53409  13.687   2.694   8.977
49342W        W53410  13.583   1.773   7.955
49343W        W53411  13.016   1.983   8.941
49344W        W53412  13.897   1.771   9.008
49345W        W53413  11.272   0.786   9.432
49346W        W53414  14.050   1.838  10.259
49347W        W53415  14.401   3.456   9.405
49348W        W53416  12.331   2.900   8.807
49349W        W53417  13.338   3.433  10.131
49350W        W53418  13.332   0.763   9.895
49351W        W53419  12.539   3.471   9.956
49352W        W53420  14.236   0.425   8.422
49353W        W53421  14.027   1.744   9.723
49354W        W53422  11.010   1.065   9.761
49355W        W53423  13.870   0.860   8.779
49356W        W53424  14.281   1.011  10.556
49357W        W53425  13.166   2.710   8.774
49358W        W53426  12.422   3.301   8.387
49359W        W53427  11.537   0.481   7.645
49360W        W53428  12.641   0.135   9.455
49361W        W53429  11.669   3.255   7.303
49362W        W53430  12.043   1.721   8.054
49363W        W53431  12.697   2.350  10.367
49364W        W53432  12.527   0.708   8.357
49365W        W53433  13.883   0.305   8.785
49366W        W53434  13.603   3.587   9.113
49367W        W53435  13.015   3.235   9.453
49368W        W53436  12.411   2.272   9.414
49369W        W53437  14.181   2.995   9.540
49370W        W53438  11.875   0.498   8.309
49371W        W53439  12.397   2.795   9.269
49372W        W53440  11.880   0.726   7.334
49373W        W53441  12.681   1.335   9.728
49374W        W53442  13.529   0.201   9.598
49375W        W53443  10.949   2.044   9.483
49376W        W53444  12.653   1.862   7.641
49377W        W53445  11.921   0.177   7.411
49378W        W53446  12.659   1.258   8.462
49379W        W53447  13.629   0.234  10.161
49380W        W53448  12.217   2.246  10.270
49381W        W53449  13.021   2.028  10.487
49382W        W53450  13.638   2.058  10.380
49383W        W53451  12.922   0.198  10.885
49384W        W53452  12.144   0.814   9.278
49385W        W53453  11.570   0.770   8.676
49386W        W53454  11.356   3.482   8.352
49387W        W53455  12.688   2.812  10.477
49388W        W53456  11.723   2.297   7.836
49389W        W53457  13.403   1.682   9.057
49390W        W53458  13.683   1.481   9.456
49391W        W53459  12.888   2.155   9.390
49392W        W53460  13.358   2.529   7.522
49393W        W53461  13.030   0.550   8.850
49394W        W53462  14.509   0.828   8.118
49395W        W53463  11.003   3.417  10.149
49396W        W53464  11.420   2.643   9.681
49397W        W53465  10.987   3.489   7.913
49398W        W53466  12.886   0.759   9.719
49399W        W53467  12.249   2.782   7.568
49400W        W53468  14.154   3.164   7.754
49401W        W53469  13.129   1.817   7.768
49402W        W53470  11.972   1.008   8.285
49403W        W53471  12.804   0.918   7.337
49404W        W53472  13.388   2.483  10.515
49405W        W53473  13.741   0.389   8.132
49406W        W53474  11.071   0.237   7.580
49407W        W53475  12.357   2.556   9.870
49408W        W53476  12.156   2.472   8.962
49409W        W53477  11.898   2.424   7.360
49410W        W53478  11.139   2.665   8.128
49411W        W53479  11.643   1.735  10.570
49412W        W53480  12.347   0.295  10.756
49413W        W53481  13.056   0.437  10.112
49414W        W53482  12.251   0.205   8.393
49415W        W53483  13.310   0.282   7.898
49416W        W53484  11.255   0.214   9.475
49417W        W53485  11.303   1.177   8.845
49418W        W53486  13.992   0.285   9.251
49419W        W53487  11.414   0.783   8.065
49420W        W53488  13.985   0.471   9.681
49421W        W53489  14.381   1.674   7.366
49422W        W53490  11.673   0.432   9.185
49423W        W53491  12.787   1.004  10.125
49424W        W53492  10.935   0.694   7.603
49425W        W53493  11.721   2.083  10.164
49426W        W53494  13.079   1.481   9.343
49427W        W53495  12.946   3.560   7.639
49428W        W53496  11.092   2.067   7.336
49429W        W53497  11.827   2.478  10.462
49430W        W53498  11.348   1.645  10.093
49431W        W53499  12.339   1.750   9.887
49432W        W53500  14.107   0.109  10.149
49433W        W53501  14.505   1.719  10.140
49434W        W53502  14.493   1.919   7.826
49435W        W53503  13.356   2.251   7.925
49436W        W53504  13.830   3.551   7.620
49437W        W53505  13.007   1.541  10.762
49438W        W53506  11.337   2.508  10.802
49439W        W53507  14.543   0.430  10.754
49440W        W53508  14.261   1.358   9.375
49441W        W53509  12.569   3.488  10.852
49442W        W53510  12.424   0.117   7.579
49443W        W53511  13.963   2.716   7.522
49444W        W53512  11.732   0.809  10.408
49445W        W53513  12.166   2.803  10.270
49446W        W53514  14.292   0.794  10.068
49447W        W53515  13.503   3.453   8.036
49448W        W53516  13.742   2.072   9.403
49449W        W53517  11.992   0.488  10.070
49450W        W53518  12.461   1.557  10.827
49451W        W53519  11.964   2.736   8.021
49452W        W53520  13.719   2.234   8.285
49453W        W53521  11.487   0.860  10.009
49454W        W53522  12.816   2.922   8.473
49455W        W53523  14.566   1.482   8.654
49456W        W53524  12.788   0.115  10.373
49457W        W53525  13.568   2.820   9.452
49458W        W53526  13.871   3.164   9.160
49459W        W53527  13.090   2.966   7.588
49460W        W53528  11.100   2.858  10.430
49461W        W53529  11.843   0.850   9.668
49462W        W53530  11.813   0.198   8.778
49463W        W53531  13.434   1.040   9.470
49464W        W53532  12.232   2.211   7.670
49465W        W53533  14.230   2.153   9.169
49466W        W53534  11.557   2.911  10.592
49467W        W53535  13.944   3.593   8.389
49468W        W53536  12.043   0.613   8.834
49469W        W53537  11.812   2.106   8.924
49470W        W53538  12.125   3.517   9.674
49471W        W53539  14.192   3.613  10.706
49472W        W53540  13.351   1.801   9.639
49473W        W53541  11.200   1.599   7.554
49474W        W53542  14.334   3.257   8.251
49475W        W53543  14.171   0.581   7.870
49476W        W53544  12.310   0.100  10.273
49477W        W53545  14.016   2.902   8.731
49478W        W53546  14.045   1.458   8.636
49479W        W53547  12.162   1.131   8.852
49480W        W53548  12.407   1.393  10.176
49481W        W53549  13.518   2.546  10.039
49482W        W53550  12.168   1.000  10.151
49483W        W53551  12.147   3.466   8.767
49484W        W53552  11.464   3.425  10.401
49485W        W53553  11.576   2.786   7.531
49486W        W53554  14.093   2.544   8.341
49487W        W53555  11.697   1.336  10.227
49488W        W53556  14.470   1.266   7.708
49489W        W53557  12.215   2.323   8.179
49490W        W53558  13.314   1.705  10.260
49491W        W53559  13.205   1.333   9.804
49492W        W53560  11.765   1.705   9.833
49493W        W53561  13.975   3.593   9.662
49494W        W53562  13.766   0.227  10.656
49495W        W53563  11.430   0.377  10.243
49496W        W53564  11.769   1.400   9.296
49497W        W53565  12.138   1.214   7.418
49498W        W53566  10.941   2.973   9.963
49499W        W53567  12.526   1.682   9.406
49500W        W53568  12.349   0.707   7.511
49501W        W53569  11.484   1.523   8.292
49502W        W53570  11.255   3.375   9.729
49503W        W53571  14.050   1.601   7.837
49504W        W53572  14.145   0.517  10.523
49505W        W53573  13.581   2.726   8.486
49506W        W53574  11.179   1.650  10.663
49507W        W53575  14.145   0.114   7.959
49508W        W53576  13.665   2.589   7.970
49509W        W53577  12.567   1.647   8.055
49510W        W53578  13.754   0.451   7.578
49511W        W53579  13.819   1.058   9.764
49512W        W53580  11.528   1.651   8.971
49513W        W53581  11.822   2.590   8.620
49514W        W53582  13.585   1.210   8.585
49515W        W53583  12.608   0.589   9.281
49516W        W53584  14.570   2.500   9.792
49517W        W53585  14.488   0.487   9.353
49518W        W53586  11.027   3.317   8.729
49519W        W53587  11.536   2.504   8.265
49520W        W53588  11.451   0.121  10.818
49521W        W53589  12.570   2.974  10.920
49522W        W53590  14.325   1.942   8.710
49523W        W53591  13.679   2.119   7.590
49524W        W53592  12.974   3.640   9.802
49525W        W53593  13.831   2.362  10.839
49526W        W53594  12.646   0.072   8.119
49527W        W53595  13.359   0.941   8.978
49528W        W53596  11.045   2.528   9.310
49529W        W53597  12.298   0.490   7.951
49530W        W53598  12.102   1.974  10.800
49531W        W53599  13.096   0.955   8.514
49532W        W53600  13.301   2.365   9.636
49533W        W53601  11.455   2.970  10.071
49534W        W53602  12.046   2.953  10.794
49535W        W53603  11.897   0.750   7.808
49536W        W53604  13.414   0.892   8.133
49537W        W53605  13.372   3.000  10.370
49538W        W53606  12.057   1.592   8.969
49539W        W53607  11.712   3.290   9.834
49540W        W53608  14.457   3.407   7.435
49541W        W53609  11.320   2.079  10.431
49542W        W53610  13.315   2.341   9.119
49543W        W53611  11.751   1.990   8.361
49544W        W53612  12.122   2.997   9.756
49545W        W53613  12.500   0.416   8.797
49546W        W53614  11.111   2.400   7.727
49547W        W53615  12.630   1.351   7.597
49548W        W53616  11.276   1.900   8.616
49549W        W53617  12.566   0.542  10.080
49550W        W53618  14.238   0.251   7.507
49551W        W53619  14.331   1.997  10.606
49552W        W53620  12.985   3.254  10.758
49553W        W53621  14.543   2.348  10.280
49554W        W53622  13.951   3.146  10.891
49555W        W53623  11.690   3.602   9.369
49556W        W53624  14.549   2.224   8.243
49557W        W53625  13.079   1.491   8.756
49558W        W53626  12.846   0.103   8.646
49559W        W53627  11.905   3.087   8.483
49560W        W53628  12.404   0.828   9.708
49561W        W53629  12.104   0.197   9.177
49562W        W53630  11.167   3.019   7.725
49563W        W53631  12.983   2.383   8.443
49564W        W53632  11.858   3.178  10.322
49565W        W53633  11.335   2.001   8.018
49566W        W53634  11.220   0.544   9.017
49567W        W53635  12.768   2.509   9.074
49568W        W53636  11.020   0.363   8.094
49569W        W53637  13.684   1.569  10.021
49570W        W53638  13.561   0.955   7.593
49571W        W53639  14.078   2.627   9.241
49572W        W53640  12.739   3.111   9.072
49573W        W53641  12.151   3.215   7.983
49574W        W53642  13.433   0.118   7.413
49575W        W53643  11.233   3.378   9.154
49576W        W53644  13.430   1.136  10.789
49577W        W53645  11.413   0.666  10.788
49578W        W53646  11.144   1.266   8.121
49579W        W53647  11.835   1.255   7.846
49580W        W53648  13.598   1.582  10.663
49581W        W53649  11.941   1.863   9.372
49582W        W53650  13.415   0.149   8.492
49583W        W53651  12.546   3.580   8.995
49584W        W53652  13.760   3.042   9.932
49585W        W53653  13.344   3.191   9.043
49586W        W53654  13.363   2.171   8.637
49587W        W53655  12.825   0.396   7.708
49588W        W53656  14.506   0.024   8.430
49589W        W53657  12.194   1.659   7.593
49590W        W53658  14.360   0.996   8.583
49591W        W53659  13.052   2.166   7.460
49592W        W53660  13.988   2.366  10.208
49593W        W53661  13.642   3.067   7.675
49594W        W53662  12.257   0.742  10.581
49595W        W53663  12.077   1.326   9.822
49596W        W53664  14.169   2.821  10.099
49597W        W53665  13.269   0.771  10.476
49598W        W53666  11.113   1.242  10.253
49599W        W53667  12.873   1.719   9.979
49600W        W53668  11.230   2.477   8.636
49601W        W53669  11.377   1.774   9.526
49602W        W53670  13.694   2.060   9.876
49603W        W53671  13.466   3.440  10.687
49604W        W53672  13.362   1.179  10.240
49605W        W53673  13.639   3.233   8.645
49606W        W53674  12.641   2.953   9.968
49607W        W53675  12.126   3.308   9.237
49608W        W53676  13.931   2.479   9.656
49609W        W53677  12.981   2.551  10.793
49610W        W53678  11.586   2.504   9.132
49611W        W53679  13.932   2.263   8.777
49612W        W53680  13.573   3.329   9.528
49613W        W53681  11.551   3.058   9.398
49614W        W53682  12.572   1.110  10.608
49615W        W53683  13.023   3.276   8.119
49616W        W53684  12.331   2.531  10.757
49617W        W53685  12.457   2.769   8.134
49618W        W53686  11.678   1.509   7.393
49619W        W53687  11.017   3.595  14.292
49620W        W53688  11.393   2.488  13.815
49621W        W53689  14.098   2.218  11.585
49622W        W53690  14.228   3.303  13.612
49623W        W53691  12.146   3.294  11.138
49624W        W53692  12.229   1.446  12.121
49625W        W53693  11.744   1.294  12.285
49626W        W53694  12.735   2.109  11.719
49627W        W53695  12.410   3.201  14.074
49628W        W53696  11.059   0.762  14.037
49629W        W53697  11.821   0.042  13.839
49630W        W53698  13.515   0.430  12.726
49631W        W53699  13.164   1.301  11.296
49632W        W53700  13.734   0.735  14.387
49633W        W53701  11.100   0.527  13.512
49634W        W53702  11.199   3.146  14.533
49635W        W53703  12.721   2.536  11.265
49636W        W53704  11.153   1.319  12.958
49637W        W53705  12.046   1.210  14.195
49638W        W53706  14.505   1.069  12.694
49639W        W53707  14.269   2.112  13.553
49640W        W53708  12.577   1.445  12.580
49641W        W53709  13.123   2.784  12.949
49642W        W53710  11.623   2.218  13.181
49643W        W53711  10.982   1.746  12.752
49644W        W53712  12.018   1.718  13.944
49645W        W53713  14.289   1.501  14.198
49646W        W53714  11.905   2.945  12.643
49647W        W53715  13.026   2.634  13.777
49648W        W53716  12.246   1.274  13.002
49649W        W53717  12.538   2.058  12.645
49650W        W53718  13.535   2.831  14.493
49651W        W53719  12.614   2.151  14.503
49652W        W53720  12.595   1.867  13.981
49653W        W53721  11.004   1.258  14.503
49654W        W53722  13.836   2.793  14.102
49655W        W53723  11.417   0.375  12.100
49656W        W53724  11.944   2.633  13.099
49657W        W53725  14.407   2.416  12.389
49658W        W53726  13.820   0.816  12.956
49659W        W53727  14.105   0.769  11.051
49660W        W53728  14.570   1.570  13.357
49661W        W53729  12.537   3.277  13.110
49662W        W53730  14.311   2.743  11.548
49663W        W53731  11.440   3.529  11.302
49664W        W53732  11.833   3.575  11.978
49665W        W53733  11.630   0.329  13.404
49666W        W53734  14.253   1.347  13.679
49667W        W53735  13.658   1.769  12.138
49668W        W53736  13.624   1.457  11.165
49669W        W53737  12.832   2.601  13.305
49670W        W53738  12.638   0.931  12.504
49671W        W53739  13.238   3.018  13.498
49672W        W53740  14.109   1.809  11.920
49673W        W53741  13.011   0.467  11.936
49674W        W53742  11.668   3.161  11.619
49675W        W53743  11.039   0.660  12.218
49676W        W53744  13.825   1.267  12.692
49677W        W53745  11.283   2.884  12.607
49678W        W53746  12.624   3.234  11.477
49679W        W53747  14.016   1.260  10.941
49680W        W53748  11.039   3.018  13.105
49681W        W53749  11.830   2.590  13.585
49682W        W53750  12.203   1.950  12.204
49683W        W53751  12.225   0.355  13.297
49684W        W53752  14.454   0.117  12.594
49685W        W53753  11.673   1.989  11.062
49686W        W53754  11.328   1.022  11.241
49687W        W53755  11.390   2.978  12.035
49688W        W53756  12.521   2.461  12.283
49689W        W53757  13.853   3.320  13.997
49690W        W53758  12.779   0.962  11.681
49691W        W53759  14.162   3.360  12.453
49692W        W53760  13.839   1.213  14.051
49693W        W53761  14.552   2.869  12.185
49694W        W53762  13.179   2.161  13.669
49695W        W53763  10.945   1.712  11.875
49696W        W53764  12.056   2.127  13.448
49697W        W53765  13.260   1.391  11.826
49698W        W53766  13.137   1.881  11.930
49699W        W53767  11.480   1.301  13.404
49700W        W53768  11.465   1.177  14.326
49701W        W53769  11.355   0.094  12.485
49702W        W53770  13.123   0.441  13.046
49703W        W53771  12.771   0.626  14.209
49704W        W53772  13.126   0.775  11.387
49705W        W53773  14.309   3.168  14.141
49706W        W53774  13.276   0.249  14.180
49707W        W53775  14.295   2.550  14.302
49708W        W53776  13.725   0.717  13.898
49709W        W53777  13.525   0.655  12.168
49710W        W53778  13.918   1.789  14.572
49711W        W53779  11.658   3.365  12.558
49712W        W53780  12.316   1.082  11.544
49713W        W53781  11.885   0.366  14.208
49714W        W53782  13.937   0.850  11.889
49715W        W53783  14.304   1.332  11.834
49716W        W53784  12.047   3.549  14.305
49717W        W53785  11.973   0.085  11.540
49718W        W53786  14.294   0.619  12.575
49719W        W53787  14.444   2.868  11.020
49720W        W53788  11.351   2.071  12.722
49721W        W53789  13.268   0.658  10.952
49722W        W53790  14.402   2.990  12.672
49723W        W53791  14.441   0.184  13.422
49724W        W53792  12.886   1.396  13.976
49725W        W53793  12.979   2.735  11.679
49726W        W53794  13.379   2.029  14.419
49727W        W53795  13.053   0.006  12.728
49728W        W53796  11.665   0.909  12.791
49729W        W53797  11.219   2.109  13.565
49730W        W53798  13.078   3.302  12.271
49731W        W53799  14.272   0.899  13.143
49732W        W53800  12.909   3.246  13.910
49733W        W53801  14.252   2.305  11.115
49734W        W53802  12.687   1.788  12.176
49735W        W53803  14.539   0.299  13.917
49736W        W53804  12.688   2.134  13.511
49737W        W53805  12.905   1.020  12.956
49738W        W53806  13.757   1.318  11.794
49739W        W53807  14.044   1.051  11.436
49740W        W53808  13.853   3.091  11.825
49741W        W53809  13.687   2.694  12.621
49742W        W53810  13.583   1.773  11.599
49743W        W53811  13.016   1.983  12.585
49744W        W53812  13.897   1.771  12.652
49745W        W53813  11.272   0.786  13.076
49746W        W53814  14.050   1.838  13.903
49747W        W53815  14.401   3.456  13.049
49748W        W53816  12.331   2.900  12.451
49749W        W53817  13.338   3.433  13.775
49750W        W53818  13.332   0.763  13.539
49751W        W53819  12.539   3.471  13.600
49752W        W53820  14.236   0.425  12.066
49753W        W53821  14.027   1.744  13.367
49754W        W53822  11.010   1.065  13.405
49755W        W53823  13.870   0.860  12.423
49756W        W53824  14.281   1.011  14.200
49757W        W53825  13.166   2.710  12.418
49758W        W53826  12.422   3.301  12.031
49759W        W53827  11.537   0.481  11.289
49760W        W53828  12.641   0.135  13.099
49761W        W53829  11.669   3.255  10.947
49762W        W53830  12.043   1.721  11.698
49763W        W53831  12.697   2.350  14.011
49764W        W53832  12.527   0.708  12.001
49765W        W53833  13.883   0.305  12.429
49766W        W53834  13.603   3.587  12.757
49767W        W53835  13.015   3.235  13.097
49768W        W53836  12.411   2.272  13.058
49769W        W53837  14.181   2.995  13.184
49770W        W53838  11.875   0.498  11.953
49771W        W53839  12.397   2.795  12.913
49772W        W53840  11.880   0.726  10.978
49773W        W53841  12.681   1.335  13.372
49774W        W53842  13.529   0.201  13.242
49775W        W53843  10.949   2.044  13.127
49776W        W53844  12.653   1.862  11.285
49777W        W53845  11.921   0.177  11.055
49778W        W53846  12.659   1.258  12.106
49779W        W53847  13.629   0.234  13.805
49780W        W53848  12.217   2.246  13.914
49781W        W53849  13.021   2.028  14.131
49782W        W53850  13.638   2.058  14.024
49783W        W53851  12.922   0.198  14.529
49784W        W53852  12.144   0.814  12.922
49785W        W53853  11.570   0.770  12.320
49786W        W53854  11.356   3.482  11.996
49787W        W53855  12.688   2.812  14.121
49788W        W53856  11.723   2.297  11.480
49789W        W53857  13.403   1.682  12.701
49790W        W53858  13.683   1.481  13.100
49791W        W53859  12.888   2.155  13.034
49792W        W53860  13.358   2.529  11.166
49793W        W53861  13.030   0.550  12.494
49794W        W53862  14.509   0.828  11.762
49795W        W53863  11.003   3.417  13.793
49796W        W53864  11.420   2.643  13.325
49797W        W53865  10.987   3.489  11.557
49798W        W53866  12.886   0.759  13.363
49799W        W53867  12.249   2.782  11.212
49800W        W53868  14.154   3.164  11.398
49801W        W53869  13.129   1.817  11.412
49802W        W53870  11.972   1.008  11.929
49803W        W53871  12.804   0.918  10.981
49804W        W53872  13.388   2.483  14.159
49805W        W53873  13.741   0.389  11.776
49806W        W53874  11.071   0.237  11.224
49807W        W53875  12.357   2.556  13.514
49808W        W53876  12.156   2.472  12.606
49809W        W53877  11.898   2.424  11.004
49810W        W53878  11.139   2.665  11.772
49811W        W53879  11.643   1.735  14.214
49812W        W53880  12.347   0.295  14.400
49813W        W53881  13.056   0.437  13.756
49814W        W53882  12.251   0.205  12.037
49815W        W53883  13.310   0.282  11.542
49816W        W53884  11.255   0.214  13.119
49817W        W53885  11.303   1.177  12.489
49818W        W53886  13.992   0.285  12.895
49819W        W53887  11.414   0.783  11.709
49820W        W53888  13.985   0.471  13.325
49821W        W53889  14.381   1.674  11.010
49822W        W53890  11.673   0.432  12.829
49823W        W53891  12.787   1.004  13.769
49824W        W53892  10.935   0.694  11.247
49825W        W53893  11.721   2.083  13.808
49826W        W53894  13.079   1.481  12.987
49827W        W53895  12.946   3.560  11.283
49828W        W53896  11.092   2.067  10.980
49829W        W53897  11.827   2.478  14.106
49830W        W53898  11.348   1.645  13.737
49831W        W53899  12.339   1.750  13.531
49832W        W53900  14.107   0.109  13.793
49833W        W53901  14.505   1.719  13.784
49834W        W53902  14.493   1.919  11.470
49835W        W53903  13.356   2.251  11.569
49836W        W53904  13.830   3.551  11.264
49837W        W53905  13.007   1.541  14.406
49838W        W53906  11.337   2.508  14.446
49839W        W53907  14.543   0.430  14.398
49840W        W53908  14.261   1.358  13.019
49841W        W53909  12.569   3.488  14.496
49842W        W53910  12.424   0.117  11.223
49843W        W53911  13.963   2.716  11.166
49844W        W53912  11.732   0.809  14.052
49845W        W53913  12.166   2.803  13.914
49846W        W53914  14.292   0.794  13.712
49847W        W53915  13.503   3.453  11.680
49848W        W53916  13.742   2.072  13.047
49849W        W53917  11.992   0.488  13.714
49850W        W53918  12.461   1.557  14.471
49851W        W53919  11.964   2.736  11.665
49852W        W53920  13.719   2.234  11.929
49853W        W53921  11.487   0.860  13.653
49854W        W53922  12.816   2.922  12.117
49855W        W53923  14.566   1.482  12.298
49856W        W53924  12.788   0.115  14.017
49857W        W53925  13.568   2.820  13.096
49858W        W53926  13.871   3.164  12.804
49859W        W53927  13.090   2.966  11.232
49860W        W53928  11.100   2.858  14.074
49861W        W53929  11.843   0.850  13.312
49862W        W53930  11.813   0.198  12.422
49863W        W53931  13.434   1.040  13.114
49864W        W53932  12.232   2.211  11.314
49865W        W53933  14.230   2.153  12.813
49866W        W53934  11.557   2.911  14.236
49867W        W53935  13.944   3.593  12.033
49868W        W53936  12.043   0.613  12.478
49869W        W53937  11.812   2.106  12.568
49870W        W53938  12.125   3.517  13.318
49871W        W53939  14.192   3.613  14.350
49872W        W53940  13.351   1.801  13.283
49873W        W53941  11.200   1.599  11.198
49874W        W53942  14.334   3.257  11.895
49875W        W53943  14.171   0.581  11.514
49876W        W53944  12.310   0.100  13.917
49877W        W53945  14.016   2.902  12.375
49878W        W53946  14.045   1.458  12.280
49879W        W53947  12.162   1.131  12.496
49880W        W53948  12.407   1.393  13.820
49881W        W53949  13.518   2.546  13.683
49882W        W53950  12.168   1.000  13.795
49883W        W53951  12.147   3.466  12.411
49884W        W53952  11.464   3.425  14.045
49885W        W53953  11.576   2.786  11.175
49886W        W53954  14.093   2.544  11.985
49887W        W53955  11.697   1.336  13.871
49888W        W53956  14.470   1.266  11.352
49889W        W53957  12.215   2.323  11.823
49890W        W53958  13.314   1.705  13.904
49891W        W53959  13.205   1.333  13.448
49892W        W53960  11.765   1.705  13.477
49893W        W53961  13.975   3.593  13.306
49894W        W53962  13.766   0.227  14.300
49895W        W53963  11.430   0.377  13.887
49896W        W53964  11.769   1.400  12.940
49897W        W53965  12.138   1.214  11.062
49898W        W53966  10.941   2.973  13.607
49899W        W53967  12.526   1.682  13.050
49900W        W53968  12.349   0.707  11.155
49901W        W53969  11.484   1.523  11.936
49902W        W53970  11.255   3.375  13.373
49903W        W53971  14.050   1.601  11.481
49904W        W53972  14.145   0.517  14.167
49905W        W53973  13.581   2.726  12.130
49906W        W53974  11.179   1.650  14.307
49907W        W53975  14.145   0.114  11.603
49908W        W53976  13.665   2.589  11.614
49909W        W53977  12.567   1.647  11.699
49910W        W53978  13.754   0.451  11.222
49911W        W53979  13.819   1.058  13.408
49912W        W53980  11.528   1.651  12.615
49913W        W53981  11.822   2.590  12.264
49914W        W53982  13.585   1.210  12.229
49915W        W53983  12.608   0.589  12.925
49916W        W53984  14.570   2.500  13.436
49917W        W53985  14.488   0.487  12.997
49918W        W53986  11.027   3.317  12.373
49919W        W53987  11.536   2.504  11.909
49920W        W53988  11.451   0.121  14.462
49921W        W53989  12.570   2.974  14.564
49922W        W53990  14.325   1.942  12.354
49923W        W53991  13.679   2.119  11.234
49924W        W53992  12.974   3.640  13.446
49925W        W53993  13.831   2.362  14.483
49926W        W53994  12.646   0.072  11.763
49927W        W53995  13.359   0.941  12.622
49928W        W53996  11.045   2.528  12.954
49929W        W53997  12.298   0.490  11.595
49930W        W53998  12.102   1.974  14.444
49931W        W53999  13.096   0.955  12.158
49932W        W54000  13.301   2.365  13.280
49933W        W54001  11.455   2.970  13.715
49934W        W54002  12.046   2.953  14.438
49935W        W54003  11.897   0.750  11.452
49936W        W54004  13.414   0.892  11.777
49937W        W54005  13.372   3.000  14.014
49938W        W54006  12.057   1.592  12.613
49939W        W54007  11.712   3.290  13.478
49940W        W54008  14.457   3.407  11.079
49941W        W54009  11.320   2.079  14.075
49942W        W54010  13.315   2.341  12.763
49943W        W54011  11.751   1.990  12.005
49944W        W54012  12.122   2.997  13.400
49945W        W54013  12.500   0.416  12.441
49946W        W54014  11.111   2.400  11.371
49947W        W54015  12.630   1.351  11.241
49948W        W54016  11.276   1.900  12.260
49949W        W54017  12.566   0.542  13.724
49950W        W54018  14.238   0.251  11.151
49951W        W54019  14.331   1.997  14.250
49952W        W54020  12.985   3.254  14.402
49953W        W54021  14.543   2.348  13.924
49954W        W54022  13.951   3.146  14.535
49955W        W54023  11.690   3.602  13.013
49956W        W54024  14.549   2.224  11.887
49957W        W54025  13.079   1.491  12.400
49958W        W54026  12.846   0.103  12.290
49959W        W54027  11.905   3.087  12.127
49960W        W54028  12.404   0.828  13.352
49961W        W54029  12.104   0.197  12.821
49962W        W54030  11.167   3.019  11.369
49963W        W54031  12.983   2.383  12.087
49964W        W54032  11.858   3.178  13.966
49965W        W54033  11.335   2.001  11.662
49966W        W54034  11.220   0.544  12.661
49967W        W54035  12.768   2.509  12.718
49968W        W54036  11.020   0.363  11.738
49969W        W54037  13.684   1.569  13.665
49970W        W54038  13.561   0.955  11.237
49971W        W54039  14.078   2.627  12.885
49972W        W54040  12.739   3.111  12.716
49973W        W54041  12.151   3.215  11.627
49974W        W54042  13.433   0.118  11.057
49975W        W54043  11.233   3.378  12.798
49976W        W54044  13.430   1.136  14.433
49977W        W54045  11.413   0.666  14.432
49978W        W54046  11.144   1.266  11.765
49979W        W54047  11.835   1.255  11.490
49980W        W54048  13.598   1.582  14.307
49981W        W54049  11.941   1.863  13.016
49982W        W54050  13.415   0.149  12.136
49983W        W54051  12.546   3.580  12.639
49984W        W54052  13.760   3.042  13.576
49985W        W54053  13.344   3.191  12.687
49986W        W54054  13.363   2.171  12.281
49987W        W54055  12.825   0.396  11.352
49988W        W54056  14.506   0.024  12.074
49989W        W54057  12.194   1.659  11.237
49990W        W54058  14.360   0.996  12.227
49991W        W54059  13.052   2.166  11.104
49992W        W54060  13.988   2.366  13.852
49993W        W54061  13.642   3.067  11.319
49994W        W54062  12.257   0.742  14.225
49995W        W54063  12.077   1.326  13.466
49996W        W54064  14.169   2.821  13.743
49997W        W54065  13.269   0.771  14.120
49998W        W54066  11.113   1.242  13.897
49999W        W54067  12.873   1.719  13.623
50000W        W54068  11.230   2.477  12.280
50001W        W54069  11.377   1.774  13.170
50002W        W54070  13.694   2.060  13.520
50003W        W54071  13.466   3.440  14.331
50004W        W54072  13.362   1.179  13.884
50005W        W54073  13.639   3.233  12.289
50006W        W54074  12.641   2.953  13.612
50007W        W54075  12.126   3.308  12.881
50008W        W54076  13.931   2.479  13.300
50009W        W54077  12.981   2.551  14.437
50010W        W54078  11.586   2.504  12.776
50011W        W54079  13.932   2.263  12.421
50012W        W54080  13.573   3.329  13.172
50013W        W54081  11.551   3.058  13.042
50014W        W54082  12.572   1.110  14.252
50015W        W54083  13.023   3.276  11.763
50016W        W54084  12.331   2.531  14.401
50017W        W54085  12.457   2.769  11.778
50018W        W54086  11.678   1.509  11.037
50019W        W54087  11.017   3.595  17.936
50020W        W54088  11.393   2.488  17.459
50021W        W54089  14.098   2.218  15.229
50022W        W54090  14.228   3.303  17.256
50023W        W54091  12.146   3.294  14.782
50024W        W54092  12.229   1.446  15.765
50025W        W54093  11.744   1.294  15.929
50026W        W54094  12.735   2.109  15.363
50027W        W54095  12.410   3.201  17.718
50028W        W54096  11.059   0.762  17.681
50029W        W54097  11.821   0.042  17.483
50030W        W54098  13.515   0.430  16.370
50031W        W54099  13.164   1.301  14.940
50032W        W54100  13.734   0.735  18.031
50033W        W54101  11.100   0.527  17.156
50034W        W54102  11.199   3.146  18.177
50035W        W54103  12.721   2.536  14.909
50036W        W54104  11.153   1.319  16.602
50037W        W54105  12.046   1.210  17.839
50038W        W54106  14.505   1.069  16.338
50039W        W54107  14.269   2.112  17.197
50040W        W54108  12.577   1.445  16.224
50041W        W54109  13.123   2.784  16.593
50042W        W54110  11.623   2.218  16.825
50043W        W54111  10.982   1.746  16.396
50044W        W54112  12.018   1.718  17.588
50045W        W54113  14.289   1.501  17.842
50046W        W54114  11.905   2.945  16.287
50047W        W54115  13.026   2.634  17.421
50048W        W54116  12.246   1.274  16.646
50049W        W54117  12.538   2.058  16.289
50050W        W54118  13.535   2.831  18.137
50051W        W54119  12.614   2.151  18.147
50052W        W54120  12.595   1.867  17.625
50053W        W54121  11.004   1.258  18.147
50054W        W54122  13.836   2.793  17.746
50055W        W54123  11.417   0.375  15.744
50056W        W54124  11.944   2.633  16.743
50057W        W54125  14.407   2.416  16.033
50058W        W54126  13.820   0.816  16.600
50059W        W54127  14.105   0.769  14.695
50060W        W54128  14.570   1.570  17.001
50061W        W54129  12.537   3.277  16.754
50062W        W54130  14.311   2.743  15.192
50063W        W54131  11.440   3.529  14.946
50064W        W54132  11.833   3.575  15.622
50065W        W54133  11.630   0.329  17.048
50066W        W54134  14.253   1.347  17.323
50067W        W54135  13.658   1.769  15.782
50068W        W54136  13.624   1.457  14.809
50069W        W54137  12.832   2.601  16.949
50070W        W54138  12.638   0.931  16.148
50071W        W54139  13.238   3.018  17.142
50072W        W54140  14.109   1.809  15.564
50073W        W54141  13.011   0.467  15.580
50074W        W54142  11.668   3.161  15.263
50075W        W54143  11.039   0.660  15.862
50076W        W54144  13.825   1.267  16.336
50077W        W54145  11.283   2.884  16.251
50078W        W54146  12.624   3.234  15.121
50079W        W54147  14.016   1.260  14.585
50080W        W54148  11.039   3.018  16.749
50081W        W54149  11.830   2.590  17.229
50082W        W54150  12.203   1.950  15.848
50083W        W54151  12.225   0.355  16.941
50084W        W54152  14.454   0.117  16.238
50085W        W54153  11.673   1.989  14.706
50086W        W54154  11.328   1.022  14.885
50087W        W54155  11.390   2.978  15.679
50088W        W54156  12.521   2.461  15.927
50089W        W54157  13.853   3.320  17.641
50090W        W54158  12.779   0.962  15.325
50091W        W54159  14.162   3.360  16.097
50092W        W54160  13.839   1.213  17.695
50093W        W54161  14.552   2.869  15.829
50094W        W54162  13.179   2.161  17.313
50095W        W54163  10.945   1.712  15.519
50096W        W54164  12.056   2.127  17.092
50097W        W54165  13.260   1.391  15.470
50098W        W54166  13.137   1.881  15.574
50099W        W54167  11.480   1.301  17.048
50100W        W54168  11.465   1.177  17.970
50101W        W54169  11.355   0.094  16.129
50102W        W54170  13.123   0.441  16.690
50103W        W54171  12.771   0.626  17.853
50104W        W54172  13.126   0.775  15.031
50105W        W54173  14.309   3.168  17.785
50106W        W54174  13.276   0.249  17.824
50107W        W54175  14.295   2.550  17.946
50108W        W54176  13.725   0.717  17.542
50109W        W54177  13.525   0.655  15.812
50110W        W54178  13.918   1.789  18.216
50111W        W54179  11.658   3.365  16.202
50112W        W54180  12.316   1.082  15.188
50113W        W54181  11.885   0.366  17.852
50114W        W54182  13.937   0.850  15.533
50115W        W54183  14.304   1.332  15.478
50116W        W54184  12.047   3.549  17.949
50117W        W54185  11.973   0.085  15.184
50118W        W54186  14.294   0.619  16.219
50119W        W54187  14.444   2.868  14.664
50120W        W54188  11.351   2.071  16.366
50121W        W54189  13.268   0.658  14.596
50122W        W54190  14.441   0.184  17.066
50123W        W54191  12.886   1.396  17.620
50124W        W54192  12.979   2.735  15.323
50125W        W54193  13.379   2.029  18.063
50126W        W54194  13.053   0.006  16.372
50127W        W54195  11.665   0.909  16.435
50128W        W54196  11.219   2.109  17.209
50129W        W54197  13.078   3.302  15.915
50130W        W54198  14.272   0.899  16.787
50131W        W54199  12.909   3.246  17.554
50132W        W54200  14.252   2.305  14.759
50133W        W54201  12.687   1.788  15.820
50134W        W54202  14.539   0.299  17.561
50135W        W54203  12.688   2.134  17.155
50136W        W54204  12.905   1.020  16.600
50137W        W54205  13.757   1.318  15.438
50138W        W54206  14.044   1.051  15.080
50139W        W54207  13.853   3.091  15.469
50140W        W54208  13.687   2.694  16.265
50141W        W54209  13.583   1.773  15.243
50142W        W54210  13.016   1.983  16.229
50143W        W54211  13.897   1.771  16.296
50144W        W54212  11.272   0.786  16.720
50145W        W54213  14.050   1.838  17.547
50146W        W54214  14.401   3.456  16.693
50147W        W54215  12.331   2.900  16.095
50148W        W54216  13.338   3.433  17.419
50149W        W54217  13.332   0.763  17.183
50150W        W54218  12.539   3.471  17.244
50151W        W54219  14.236   0.425  15.710
50152W        W54220  14.027   1.744  17.011
50153W        W54221  11.010   1.065  17.049
50154W        W54222  13.870   0.860  16.067
50155W        W54223  14.281   1.011  17.844
50156W        W54224  13.166   2.710  16.062
50157W        W54225  12.422   3.301  15.675
50158W        W54226  11.537   0.481  14.933
50159W        W54227  12.641   0.135  16.743
50160W        W54228  11.669   3.255  14.591
50161W        W54229  12.043   1.721  15.342
50162W        W54230  12.697   2.350  17.655
50163W        W54231  12.527   0.708  15.645
50164W        W54232  13.883   0.305  16.073
50165W        W54233  13.603   3.587  16.401
50166W        W54234  13.015   3.235  16.741
50167W        W54235  12.411   2.272  16.702
50168W        W54236  14.181   2.995  16.828
50169W        W54237  11.875   0.498  15.597
50170W        W54238  12.397   2.795  16.557
50171W        W54239  11.880   0.726  14.622
50172W        W54240  12.681   1.335  17.016
50173W        W54241  13.529   0.201  16.886
50174W        W54242  10.949   2.044  16.771
50175W        W54243  12.653   1.862  14.929
50176W        W54244  11.921   0.177  14.699
50177W        W54245  12.659   1.258  15.750
50178W        W54246  13.629   0.234  17.449
50179W        W54247  12.217   2.246  17.558
50180W        W54248  13.021   2.028  17.775
50181W        W54249  13.638   2.058  17.668
50182W        W54250  12.922   0.198  18.173
50183W        W54251  12.144   0.814  16.566
50184W        W54252  11.570   0.770  15.964
50185W        W54253  11.356   3.482  15.640
50186W        W54254  12.688   2.812  17.765
50187W        W54255  11.723   2.297  15.124
50188W        W54256  13.403   1.682  16.345
50189W        W54257  13.683   1.481  16.744
50190W        W54258  12.888   2.155  16.678
50191W        W54259  13.358   2.529  14.810
50192W        W54260  13.030   0.550  16.138
50193W        W54261  14.509   0.828  15.406
50194W        W54262  11.003   3.417  17.437
50195W        W54263  11.420   2.643  16.969
50196W        W54264  10.987   3.489  15.201
50197W        W54265  12.886   0.759  17.007
50198W        W54266  12.249   2.782  14.856
50199W        W54267  14.154   3.164  15.042
50200W        W54268  13.129   1.817  15.056
50201W        W54269  11.972   1.008  15.573
50202W        W54270  12.804   0.918  14.625
50203W        W54271  13.388   2.483  17.803
50204W        W54272  13.741   0.389  15.420
50205W        W54273  11.071   0.237  14.868
50206W        W54274  12.357   2.556  17.158
50207W        W54275  12.156   2.472  16.250
50208W        W54276  11.898   2.424  14.648
50209W        W54277  11.139   2.665  15.416
50210W        W54278  11.643   1.735  17.858
50211W        W54279  12.347   0.295  18.044
50212W        W54280  13.056   0.437  17.400
50213W        W54281  12.251   0.205  15.681
50214W        W54282  13.310   0.282  15.186
50215W        W54283  11.255   0.214  16.763
50216W        W54284  11.303   1.177  16.133
50217W        W54285  13.992   0.285  16.539
50218W        W54286  11.414   0.783  15.353
50219W        W54287  13.985   0.471  16.969
50220W        W54288  14.381   1.674  14.654
50221W        W54289  11.673   0.432  16.473
50222W        W54290  12.787   1.004  17.413
50223W        W54291  10.935   0.694  14.891
50224W        W54292  11.721   2.083  17.452
50225W        W54293  13.079   1.481  16.631
50226W        W54294  12.946   3.560  14.927
50227W        W54295  11.092   2.067  14.624
50228W        W54296  11.827   2.478  17.750
50229W        W54297  11.348   1.645  17.381
50230W        W54298  12.339   1.750  17.175
50231W        W54299  14.107   0.109  17.437
50232W        W54300  14.505   1.719  17.428
50233W        W54301  14.493   1.919  15.114
50234W        W54302  13.356   2.251  15.213
50235W        W54303  13.830   3.551  14.908
50236W        W54304  13.007   1.541  18.050
50237W        W54305  11.337   2.508  18.090
50238W        W54306  14.543   0.430  18.042
50239W        W54307  14.261   1.358  16.663
50240W        W54308  12.569   3.488  18.140
50241W        W54309  12.424   0.117  14.867
50242W        W54310  13.963   2.716  14.810
50243W        W54311  11.732   0.809  17.696
50244W        W54312  12.166   2.803  17.558
50245W        W54313  14.292   0.794  17.356
50246W        W54314  13.503   3.453  15.324
50247W        W54315  13.742   2.072  16.691
50248W        W54316  11.992   0.488  17.358
50249W        W54317  12.461   1.557  18.115
50250W        W54318  11.964   2.736  15.309
50251W        W54319  13.719   2.234  15.573
50252W        W54320  11.487   0.860  17.297
50253W        W54321  12.816   2.922  15.761
50254W        W54322  14.566   1.482  15.942
50255W        W54323  12.788   0.115  17.661
50256W        W54324  13.568   2.820  16.740
50257W        W54325  13.090   2.966  14.876
50258W        W54326  11.100   2.858  17.718
50259W        W54327  11.843   0.850  16.956
50260W        W54328  11.813   0.198  16.066
50261W        W54329  13.434   1.040  16.758
50262W        W54330  12.232   2.211  14.958
50263W        W54331  14.230   2.153  16.457
50264W        W54332  11.557   2.911  17.880
50265W        W54333  13.944   3.593  15.677
50266W        W54334  12.043   0.613  16.122
50267W        W54335  11.812   2.106  16.212
50268W        W54336  12.125   3.517  16.962
50269W        W54337  14.192   3.613  17.994
50270W        W54338  13.351   1.801  16.927
50271W        W54339  11.200   1.599  14.842
50272W        W54340  14.334   3.257  15.539
50273W        W54341  14.171   0.581  15.158
50274W        W54342  12.310   0.100  17.561
50275W        W54343  14.016   2.902  16.019
50276W        W54344  14.045   1.458  15.924
50277W        W54345  12.162   1.131  16.140
50278W        W54346  12.407   1.393  17.464
50279W        W54347  13.518   2.546  17.327
50280W        W54348  12.168   1.000  17.439
50281W        W54349  12.147   3.466  16.055
50282W        W54350  11.464   3.425  17.689
50283W        W54351  11.576   2.786  14.819
50284W        W54352  14.093   2.544  15.629
50285W        W54353  11.697   1.336  17.515
50286W        W54354  14.470   1.266  14.996
50287W        W54355  12.215   2.323  15.467
50288W        W54356  13.314   1.705  17.548
50289W        W54357  13.205   1.333  17.092
50290W        W54358  11.765   1.705  17.121
50291W        W54359  13.975   3.593  16.950
50292W        W54360  13.766   0.227  17.944
50293W        W54361  11.430   0.377  17.531
50294W        W54362  11.769   1.400  16.584
50295W        W54363  12.138   1.214  14.706
50296W        W54364  10.941   2.973  17.251
50297W        W54365  12.526   1.682  16.694
50298W        W54366  12.349   0.707  14.799
50299W        W54367  11.484   1.523  15.580
50300W        W54368  11.255   3.375  17.017
50301W        W54369  14.050   1.601  15.125
50302W        W54370  14.145   0.517  17.811
50303W        W54371  13.581   2.726  15.774
50304W        W54372  11.179   1.650  17.951
50305W        W54373  14.145   0.114  15.247
50306W        W54374  13.665   2.589  15.258
50307W        W54375  12.567   1.647  15.343
50308W        W54376  13.754   0.451  14.866
50309W        W54377  13.819   1.058  17.052
50310W        W54378  11.528   1.651  16.259
50311W        W54379  11.822   2.590  15.908
50312W        W54380  13.585   1.210  15.873
50313W        W54381  12.608   0.589  16.569
50314W        W54382  14.570   2.500  17.080
50315W        W54383  14.488   0.487  16.641
50316W        W54384  11.027   3.317  16.017
50317W        W54385  11.536   2.504  15.553
50318W        W54386  11.451   0.121  18.106
50319W        W54387  12.570   2.974  18.208
50320W        W54388  14.325   1.942  15.998
50321W        W54389  13.679   2.119  14.878
50322W        W54390  12.974   3.640  17.090
50323W        W54391  13.831   2.362  18.127
50324W        W54392  12.646   0.072  15.407
50325W        W54393  13.359   0.941  16.266
50326W        W54394  11.045   2.528  16.598
50327W        W54395  12.298   0.490  15.239
50328W        W54396  12.102   1.974  18.088
50329W        W54397  13.096   0.955  15.802
50330W        W54398  13.301   2.365  16.924
50331W        W54399  11.455   2.970  17.359
50332W        W54400  12.046   2.953  18.082
50333W        W54401  11.897   0.750  15.096
50334W        W54402  13.414   0.892  15.421
50335W        W54403  13.372   3.000  17.658
50336W        W54404  12.057   1.592  16.257
50337W        W54405  11.712   3.290  17.122
50338W        W54406  14.457   3.407  14.723
50339W        W54407  11.320   2.079  17.719
50340W        W54408  13.315   2.341  16.407
50341W        W54409  11.751   1.990  15.649
50342W        W54410  12.122   2.997  17.044
50343W        W54411  12.500   0.416  16.085
50344W        W54412  11.111   2.400  15.015
50345W        W54413  12.630   1.351  14.885
50346W        W54414  11.276   1.900  15.904
50347W        W54415  12.566   0.542  17.368
50348W        W54416  14.238   0.251  14.795
50349W        W54417  14.331   1.997  17.894
50350W        W54418  12.985   3.254  18.046
50351W        W54419  14.543   2.348  17.568
50352W        W54420  13.951   3.146  18.179
50353W        W54421  11.690   3.602  16.657
50354W        W54422  14.549   2.224  15.531
50355W        W54423  13.079   1.491  16.044
50356W        W54424  12.846   0.103  15.934
50357W        W54425  11.905   3.087  15.771
50358W        W54426  12.404   0.828  16.996
50359W        W54427  12.104   0.197  16.465
50360W        W54428  11.167   3.019  15.013
50361W        W54429  12.983   2.383  15.731
50362W        W54430  11.858   3.178  17.610
50363W        W54431  11.335   2.001  15.306
50364W        W54432  11.220   0.544  16.305
50365W        W54433  12.768   2.509  16.362
50366W        W54434  11.020   0.363  15.382
50367W        W54435  13.684   1.569  17.309
50368W        W54436  13.561   0.955  14.881
50369W        W54437  14.078   2.627  16.529
50370W        W54438  12.739   3.111  16.360
50371W        W54439  12.151   3.215  15.271
50372W        W54440  13.433   0.118  14.701
50373W        W54441  11.233   3.378  16.442
50374W        W54442  13.430   1.136  18.077
50375W        W54443  11.413   0.666  18.076
50376W        W54444  11.144   1.266  15.409
50377W        W54445  11.835   1.255  15.134
50378W        W54446  13.598   1.582  17.951
50379W        W54447  11.941   1.863  16.660
50380W        W54448  13.415   0.149  15.780
50381W        W54449  12.546   3.580  16.283
50382W        W54450  13.760   3.042  17.220
50383W        W54451  13.344   3.191  16.331
50384W        W54452  13.363   2.171  15.925
50385W        W54453  12.825   0.396  14.996
50386W        W54454  14.506   0.024  15.718
50387W        W54455  12.194   1.659  14.881
50388W        W54456  14.360   0.996  15.871
50389W        W54457  13.052   2.166  14.748
50390W        W54458  13.988   2.366  17.496
50391W        W54459  13.642   3.067  14.963
50392W        W54460  12.257   0.742  17.869
50393W        W54461  12.077   1.326  17.110
50394W        W54462  14.169   2.821  17.387
50395W        W54463  13.269   0.771  17.764
50396W        W54464  11.113   1.242  17.541
50397W        W54465  12.873   1.719  17.267
50398W        W54466  11.230   2.477  15.924
50399W        W54467  11.377   1.774  16.814
50400W        W54468  13.694   2.060  17.164
50401W        W54469  13.466   3.440  17.975
50402W        W54470  13.362   1.179  17.528
50403W        W54471  13.639   3.233  15.933
50404W        W54472  12.641   2.953  17.256
50405W        W54473  12.126   3.308  16.525
50406W        W54474  13.931   2.479  16.944
50407W        W54475  12.981   2.551  18.081
50408W        W54476  11.586   2.504  16.420
50409W        W54477  13.932   2.263  16.065
50410W        W54478  13.573   3.329  16.816
50411W        W54479  11.551   3.058  16.686
50412W        W54480  12.572   1.110  17.896
50413W        W54481  13.023   3.276  15.407
50414W        W54482  12.331   2.531  18.045
50415W        W54483  12.457   2.769  15.422
50416W        W54484  11.678   1.509  14.681
50417W        W54485  11.017   3.595  21.580
50418W        W54486  11.393   2.488  21.103
50419W        W54487  14.098   2.218  18.873
50420W        W54488  14.228   3.303  20.900
50421W        W54489  12.146   3.294  18.426
50422W        W54490  12.229   1.446  19.409
50423W        W54491  11.744   1.294  19.573
50424W        W54492  12.735   2.109  19.007
50425W        W54493  12.410   3.201  21.362
50426W        W54494  11.059   0.762  21.325
50427W        W54495  11.821   0.042  21.127
50428W        W54496  13.515   0.430  20.014
50429W        W54497  13.164   1.301  18.584
50430W        W54498  13.734   0.735  21.675
50431W        W54499  11.100   0.527  20.800
50432W        W54500  11.199   3.146  21.821
50433W        W54501  12.721   2.536  18.553
50434W        W54502  11.153   1.319  20.246
50435W        W54503  12.046   1.210  21.483
50436W        W54504  14.505   1.069  19.982
50437W        W54505  14.269   2.112  20.841
50438W        W54506  12.577   1.445  19.868
50439W        W54507  11.623   2.218  20.469
50440W        W54508  10.982   1.746  20.040
50441W        W54509  12.018   1.718  21.232
50442W        W54510  14.289   1.501  21.486
50443W        W54511  11.905   2.945  19.931
50444W        W54512  13.026   2.634  21.065
50445W        W54513  12.246   1.274  20.290
50446W        W54514  12.538   2.058  19.933
50447W        W54515  12.614   2.151  21.791
50448W        W54516  12.595   1.867  21.269
50449W        W54517  11.004   1.258  21.791
50450W        W54518  11.417   0.375  19.388
50451W        W54519  11.944   2.633  20.387
50452W        W54520  14.407   2.416  19.677
50453W        W54521  13.820   0.816  20.244
50454W        W54522  14.105   0.769  18.339
50455W        W54523  14.570   1.570  20.645
50456W        W54524  12.537   3.277  20.398
50457W        W54525  14.311   2.743  18.836
50458W        W54526  11.440   3.529  18.590
50459W        W54527  11.630   0.329  20.692
50460W        W54528  14.253   1.347  20.967
50461W        W54529  13.658   1.769  19.426
50462W        W54530  13.624   1.457  18.453
50463W        W54531  12.638   0.931  19.792
50464W        W54532  13.238   3.018  20.786
50465W        W54533  14.109   1.809  19.208
50466W        W54534  13.011   0.467  19.224
50467W        W54535  11.039   0.660  19.506
50468W        W54536  13.825   1.267  19.980
50469W        W54537  11.283   2.884  19.895
50470W        W54538  12.624   3.234  18.765
50471W        W54539  14.016   1.260  18.229
50472W        W54540  11.039   3.018  20.393
50473W        W54541  11.830   2.590  20.873
50474W        W54542  12.203   1.950  19.492
50475W        W54543  12.225   0.355  20.585
50476W        W54544  14.454   0.117  19.882
50477W        W54545  11.673   1.989  18.350
50478W        W54546  11.328   1.022  18.529
50479W        W54547  11.390   2.978  19.323
50480W        W54548  12.521   2.461  19.571
50481W        W54549  12.779   0.962  18.969
50482W        W54550  14.162   3.360  19.741
50483W        W54551  13.839   1.213  21.339
50484W        W54552  14.552   2.869  19.473
50485W        W54553  13.179   2.161  20.957
50486W        W54554  10.945   1.712  19.163
50487W        W54555  12.056   2.127  20.736
50488W        W54556  13.260   1.391  19.114
50489W        W54557  13.137   1.881  19.218
50490W        W54558  11.480   1.301  20.692
50491W        W54559  11.465   1.177  21.614
50492W        W54560  11.355   0.094  19.773
50493W        W54561  13.123   0.441  20.334
50494W        W54562  12.771   0.626  21.497
50495W        W54563  13.126   0.775  18.675
50496W        W54564  14.309   3.168  21.429
50497W        W54565  13.276   0.249  21.468
50498W        W54566  14.295   2.550  21.590
50499W        W54567  13.725   0.717  21.186
50500W        W54568  13.525   0.655  19.456
50501W        W54569  13.918   1.789  21.860
50502W        W54570  11.658   3.365  19.846
50503W        W54571  12.316   1.082  18.832
50504W        W54572  11.885   0.366  21.496
50505W        W54573  13.937   0.850  19.177
50506W        W54574  14.304   1.332  19.122
50507W        W54575  12.047   3.549  21.593
50508W        W54576  11.973   0.085  18.828
50509W        W54577  14.294   0.619  19.863
50510W        W54578  14.444   2.868  18.308
50511W        W54579  11.351   2.071  20.010
50512W        W54580  13.268   0.658  18.240
50513W        W54581  14.402   2.990  19.960
50514W        W54582  14.441   0.184  20.710
50515W        W54583  12.886   1.396  21.264
50516W        W54584  12.979   2.735  18.967
50517W        W54585  13.379   2.029  21.707
50518W        W54586  13.053   0.006  20.016
50519W        W54587  11.665   0.909  20.079
50520W        W54588  11.219   2.109  20.853
50521W        W54589  13.078   3.302  19.559
50522W        W54590  14.272   0.899  20.431
50523W        W54591  12.909   3.246  21.198
50524W        W54592  14.252   2.305  18.403
50525W        W54593  12.687   1.788  19.464
50526W        W54594  14.539   0.299  21.205
50527W        W54595  12.688   2.134  20.799
50528W        W54596  12.905   1.020  20.244
50529W        W54597  13.757   1.318  19.082
50530W        W54598  14.044   1.051  18.724
50531W        W54599  13.853   3.091  19.113
50532W        W54600  13.687   2.694  19.909
50533W        W54601  13.583   1.773  18.887
50534W        W54602  13.016   1.983  19.873
50535W        W54603  13.897   1.771  19.940
50536W        W54604  11.272   0.786  20.364
50537W        W54605  14.050   1.838  21.191
50538W        W54606  14.401   3.456  20.337
50539W        W54607  12.331   2.900  19.739
50540W        W54608  13.338   3.433  21.063
50541W        W54609  13.332   0.763  20.827
50542W        W54610  12.539   3.471  20.888
50543W        W54611  14.236   0.425  19.354
50544W        W54612  14.027   1.744  20.655
50545W        W54613  11.010   1.065  20.693
50546W        W54614  13.870   0.860  19.711
50547W        W54615  14.281   1.011  21.488
50548W        W54616  13.166   2.710  19.706
50549W        W54617  12.422   3.301  19.319
50550W        W54618  11.537   0.481  18.577
50551W        W54619  12.641   0.135  20.387
50552W        W54620  11.669   3.255  18.235
50553W        W54621  12.043   1.721  18.986
50554W        W54622  12.697   2.350  21.299
50555W        W54623  12.527   0.708  19.289
50556W        W54624  13.883   0.305  19.717
50557W        W54625  13.603   3.587  20.045
50558W        W54626  12.411   2.272  20.346
50559W        W54627  14.181   2.995  20.472
50560W        W54628  11.875   0.498  19.241
50561W        W54629  12.397   2.795  20.201
50562W        W54630  11.880   0.726  18.266
50563W        W54631  12.681   1.335  20.660
50564W        W54632  13.529   0.201  20.530
50565W        W54633  10.949   2.044  20.415
50566W        W54634  12.653   1.862  18.573
50567W        W54635  11.921   0.177  18.343
50568W        W54636  12.659   1.258  19.394
50569W        W54637  13.629   0.234  21.093
50570W        W54638  12.217   2.246  21.202
50571W        W54639  13.021   2.028  21.419
50572W        W54640  13.638   2.058  21.312
50573W        W54641  12.922   0.198  21.817
50574W        W54642  12.144   0.814  20.210
50575W        W54643  11.570   0.770  19.608
50576W        W54644  11.356   3.482  19.284
50577W        W54645  12.688   2.812  21.409
50578W        W54646  11.723   2.297  18.768
50579W        W54647  13.403   1.682  19.989
50580W        W54648  13.683   1.481  20.388
50581W        W54649  13.358   2.529  18.454
50582W        W54650  13.030   0.550  19.782
50583W        W54651  14.509   0.828  19.050
50584W        W54652  11.003   3.417  21.081
50585W        W54653  11.420   2.643  20.613
50586W        W54654  10.987   3.489  18.845
50587W        W54655  12.886   0.759  20.651
50588W        W54656  12.249   2.782  18.500
50589W        W54657  14.154   3.164  18.686
50590W        W54658  13.129   1.817  18.700
50591W        W54659  11.972   1.008  19.217
50592W        W54660  12.804   0.918  18.269
50593W        W54661  13.388   2.483  21.447
50594W        W54662  13.741   0.389  19.064
50595W        W54663  11.071   0.237  18.512
50596W        W54664  12.156   2.472  19.894
50597W        W54665  11.898   2.424  18.292
50598W        W54666  11.139   2.665  19.060
50599W        W54667  11.643   1.735  21.502
50600W        W54668  12.347   0.295  21.688
50601W        W54669  13.056   0.437  21.044
50602W        W54670  12.251   0.205  19.325
50603W        W54671  13.310   0.282  18.830
50604W        W54672  11.255   0.214  20.407
50605W        W54673  11.303   1.177  19.777
50606W        W54674  13.992   0.285  20.183
50607W        W54675  11.414   0.783  18.997
50608W        W54676  13.985   0.471  20.613
50609W        W54677  14.381   1.674  18.298
50610W        W54678  11.673   0.432  20.117
50611W        W54679  12.787   1.004  21.057
50612W        W54680  10.935   0.694  18.535
50613W        W54681  11.721   2.083  21.096
50614W        W54682  13.079   1.481  20.275
50615W        W54683  12.946   3.560  18.571
50616W        W54684  11.092   2.067  18.268
50617W        W54685  11.827   2.478  21.394
50618W        W54686  11.348   1.645  21.025
50619W        W54687  12.339   1.750  20.819
50620W        W54688  14.107   0.109  21.081
50621W        W54689  14.505   1.719  21.072
50622W        W54690  14.493   1.919  18.758
50623W        W54691  13.356   2.251  18.857
50624W        W54692  13.830   3.551  18.552
50625W        W54693  13.007   1.541  21.694
50626W        W54694  11.337   2.508  21.734
50627W        W54695  14.543   0.430  21.686
50628W        W54696  14.261   1.358  20.307
50629W        W54697  12.569   3.488  21.784
50630W        W54698  12.424   0.117  18.511
50631W        W54699  13.963   2.716  18.454
50632W        W54700  11.732   0.809  21.340
50633W        W54701  12.166   2.803  21.202
50634W        W54702  14.292   0.794  21.000
50635W        W54703  13.503   3.453  18.968
50636W        W54704  13.742   2.072  20.335
50637W        W54705  11.992   0.488  21.002
50638W        W54706  12.461   1.557  21.759
50639W        W54707  11.964   2.736  18.953
50640W        W54708  13.719   2.234  19.217
50641W        W54709  11.487   0.860  20.941
50642W        W54710  12.816   2.922  19.405
50643W        W54711  14.566   1.482  19.586
50644W        W54712  12.788   0.115  21.305
50645W        W54713  13.568   2.820  20.384
50646W        W54714  13.871   3.164  20.092
50647W        W54715  13.090   2.966  18.520
50648W        W54716  11.100   2.858  21.362
50649W        W54717  11.843   0.850  20.600
50650W        W54718  11.813   0.198  19.710
50651W        W54719  13.434   1.040  20.402
50652W        W54720  12.232   2.211  18.602
50653W        W54721  14.230   2.153  20.101
50654W        W54722  11.557   2.911  21.524
50655W        W54723  13.944   3.593  19.321
50656W        W54724  12.043   0.613  19.766
50657W        W54725  11.812   2.106  19.856
50658W        W54726  12.125   3.517  20.606
50659W        W54727  14.192   3.613  21.638
50660W        W54728  13.351   1.801  20.571
50661W        W54729  11.200   1.599  18.486
50662W        W54730  14.334   3.257  19.183
50663W        W54731  14.171   0.581  18.802
50664W        W54732  12.310   0.100  21.205
50665W        W54733  14.016   2.902  19.663
50666W        W54734  14.045   1.458  19.568
50667W        W54735  12.162   1.131  19.784
50668W        W54736  12.407   1.393  21.108
50669W        W54737  13.518   2.546  20.971
50670W        W54738  12.168   1.000  21.083
50671W        W54739  12.147   3.466  19.699
50672W        W54740  11.464   3.425  21.333
50673W        W54741  11.576   2.786  18.463
50674W        W54742  14.093   2.544  19.273
50675W        W54743  11.697   1.336  21.159
50676W        W54744  14.470   1.266  18.640
50677W        W54745  12.215   2.323  19.111
50678W        W54746  13.314   1.705  21.192
50679W        W54747  13.205   1.333  20.736
50680W        W54748  11.765   1.705  20.765
50681W        W54749  13.975   3.593  20.594
50682W        W54750  13.766   0.227  21.588
50683W        W54751  11.430   0.377  21.175
50684W        W54752  11.769   1.400  20.228
50685W        W54753  12.138   1.214  18.350
50686W        W54754  10.941   2.973  20.895
50687W        W54755  12.526   1.682  20.338
50688W        W54756  12.349   0.707  18.443
50689W        W54757  11.484   1.523  19.224
50690W        W54758  11.255   3.375  20.661
50691W        W54759  14.050   1.601  18.769
50692W        W54760  14.145   0.517  21.455
50693W        W54761  13.581   2.726  19.418
50694W        W54762  11.179   1.650  21.595
50695W        W54763  14.145   0.114  18.891
50696W        W54764  13.665   2.589  18.902
50697W        W54765  12.567   1.647  18.987
50698W        W54766  13.754   0.451  18.510
50699W        W54767  13.819   1.058  20.696
50700W        W54768  11.528   1.651  19.903
50701W        W54769  11.822   2.590  19.552
50702W        W54770  13.585   1.210  19.517
50703W        W54771  12.608   0.589  20.213
50704W        W54772  14.570   2.500  20.724
50705W        W54773  14.488   0.487  20.285
50706W        W54774  11.027   3.317  19.661
50707W        W54775  11.536   2.504  19.197
50708W        W54776  11.451   0.121  21.750
50709W        W54777  12.570   2.974  21.852
50710W        W54778  14.325   1.942  19.642
50711W        W54779  13.679   2.119  18.522
50712W        W54780  12.974   3.640  20.734
50713W        W54781  13.831   2.362  21.771
50714W        W54782  12.646   0.072  19.051
50715W        W54783  13.359   0.941  19.910
50716W        W54784  11.045   2.528  20.242
50717W        W54785  12.298   0.490  18.883
50718W        W54786  12.102   1.974  21.732
50719W        W54787  13.096   0.955  19.446
50720W        W54788  13.301   2.365  20.568
50721W        W54789  11.455   2.970  21.003
50722W        W54790  12.046   2.953  21.726
50723W        W54791  11.897   0.750  18.740
50724W        W54792  13.414   0.892  19.065
50725W        W54793  13.372   3.000  21.302
50726W        W54794  12.057   1.592  19.901
50727W        W54795  11.712   3.290  20.766
50728W        W54796  14.457   3.407  18.367
50729W        W54797  11.320   2.079  21.363
50730W        W54798  13.315   2.341  20.051
50731W        W54799  11.751   1.990  19.293
50732W        W54800  12.122   2.997  20.688
50733W        W54801  12.500   0.416  19.729
50734W        W54802  11.111   2.400  18.659
50735W        W54803  12.630   1.351  18.529
50736W        W54804  11.276   1.900  19.548
50737W        W54805  12.566   0.542  21.012
50738W        W54806  14.238   0.251  18.439
50739W        W54807  14.331   1.997  21.538
50740W        W54808  12.985   3.254  21.690
50741W        W54809  14.543   2.348  21.212
50742W        W54810  13.951   3.146  21.823
50743W        W54811  11.690   3.602  20.301
50744W        W54812  14.549   2.224  19.175
50745W        W54813  13.079   1.491  19.688
50746W        W54814  12.846   0.103  19.578
50747W        W54815  11.905   3.087  19.415
50748W        W54816  12.404   0.828  20.640
50749W        W54817  12.104   0.197  20.109
50750W        W54818  11.167   3.019  18.657
50751W        W54819  12.983   2.383  19.375
50752W        W54820  11.858   3.178  21.254
50753W        W54821  11.335   2.001  18.950
50754W        W54822  11.220   0.544  19.949
50755W        W54823  11.020   0.363  19.026
50756W        W54824  13.684   1.569  20.953
50757W        W54825  13.561   0.955  18.525
50758W        W54826  14.078   2.627  20.173
50759W        W54827  12.739   3.111  20.004
50760W        W54828  12.151   3.215  18.915
50761W        W54829  13.433   0.118  18.345
50762W        W54830  13.430   1.136  21.721
50763W        W54831  11.413   0.666  21.720
50764W        W54832  11.144   1.266  19.053
50765W        W54833  11.835   1.255  18.778
50766W        W54834  13.598   1.582  21.595
50767W        W54835  11.941   1.863  20.304
50768W        W54836  13.415   0.149  19.424
50769W        W54837  12.546   3.580  19.927
50770W        W54838  13.760   3.042  20.864
50771W        W54839  13.344   3.191  19.975
50772W        W54840  13.363   2.171  19.569
50773W        W54841  12.825   0.396  18.640
50774W        W54842  14.506   0.024  19.362
50775W        W54843  12.194   1.659  18.525
50776W        W54844  14.360   0.996  19.515
50777W        W54845  13.052   2.166  18.392
50778W        W54846  13.988   2.366  21.140
50779W        W54847  13.642   3.067  18.607
50780W        W54848  12.257   0.742  21.513
50781W        W54849  12.077   1.326  20.754
50782W        W54850  14.169   2.821  21.031
50783W        W54851  13.269   0.771  21.408
50784W        W54852  11.113   1.242  21.185
50785W        W54853  12.873   1.719  20.911
50786W        W54854  11.230   2.477  19.568
50787W        W54855  11.377   1.774  20.458
50788W        W54856  13.694   2.060  20.808
50789W        W54857  13.466   3.440  21.619
50790W        W54858  13.362   1.179  21.172
50791W        W54859  13.639   3.233  19.577
50792W        W54860  12.641   2.953  20.900
50793W        W54861  12.126   3.308  20.169
50794W        W54862  13.931   2.479  20.588
50795W        W54863  12.981   2.551  21.725
50796W        W54864  11.586   2.504  20.064
50797W        W54865  13.932   2.263  19.709
50798W        W54866  13.573   3.329  20.460
50799W        W54867  11.551   3.058  20.330
50800W        W54868  12.572   1.110  21.540
50801W        W54869  13.023   3.276  19.051
50802W        W54870  12.331   2.531  21.689
50803W        W54871  12.457   2.769  19.066
50804W        W54872  11.678   1.509  18.325
50805W        W54873  14.098   2.218  22.518
50806W        W54874  12.146   3.294  22.071
50807W        W54875  12.229   1.446  23.054
50808W        W54876  11.744   1.294  23.218
50809W        W54877  12.735   2.109  22.652
50810W        W54878  13.164   1.301  22.229
50811W        W54879  12.721   2.536  22.198
50812W        W54880  11.417   0.375  23.033
50813W        W54881  14.105   0.769  21.984
50814W        W54882  14.311   2.743  22.481
50815W        W54883  11.440   3.529  22.235
50816W        W54884  11.833   3.575  22.911
50817W        W54885  13.658   1.769  23.071
50818W        W54886  13.624   1.457  22.098
50819W        W54887  14.109   1.809  22.853
50820W        W54888  13.011   0.467  22.869
50821W        W54889  11.668   3.161  22.552
50822W        W54890  12.624   3.234  22.410
50823W        W54891  14.016   1.260  21.874
50824W        W54892  12.203   1.950  23.137
50825W        W54893  11.673   1.989  21.995
50826W        W54894  11.328   1.022  22.174
50827W        W54895  11.390   2.978  22.968
50828W        W54896  12.521   2.461  23.216
50829W        W54897  12.779   0.962  22.614
50830W        W54898  10.945   1.712  22.808
50831W        W54899  13.260   1.391  22.759
50832W        W54900  13.137   1.881  22.863
50833W        W54901  13.126   0.775  22.320
50834W        W54902  13.525   0.655  23.101
50835W        W54903  12.316   1.082  22.477
50836W        W54904  13.937   0.850  22.822
50837W        W54905  14.304   1.332  22.767
50838W        W54906  11.973   0.085  22.473
50839W        W54907  14.444   2.868  21.953
50840W        W54908  13.268   0.658  21.885
50841W        W54909  12.979   2.735  22.612
50842W        W54910  13.078   3.302  23.204
50843W        W54911  14.252   2.305  22.048
50844W        W54912  12.687   1.788  23.109
50845W        W54913  13.757   1.318  22.727
50846W        W54914  14.044   1.051  22.369
50847W        W54915  13.853   3.091  22.758
50848W        W54916  13.583   1.773  22.532
50849W        W54917  14.236   0.425  22.999
50850W        W54918  12.422   3.301  22.964
50851W        W54919  11.537   0.481  22.222
50852W        W54920  11.669   3.255  21.880
50853W        W54921  12.043   1.721  22.631
50854W        W54922  12.527   0.708  22.934
50855W        W54923  11.875   0.498  22.886
50856W        W54924  11.880   0.726  21.911
50857W        W54925  12.653   1.862  22.218
50858W        W54926  11.921   0.177  21.988
50859W        W54927  12.659   1.258  23.039
50860W        W54928  11.570   0.770  23.253
50861W        W54929  11.356   3.482  22.929
50862W        W54930  11.723   2.297  22.413
50863W        W54931  13.358   2.529  22.099
50864W        W54932  14.509   0.828  22.695
50865W        W54933  10.987   3.489  22.490
50866W        W54934  12.249   2.782  22.145
50867W        W54935  14.154   3.164  22.331
50868W        W54936  13.129   1.817  22.345
50869W        W54937  11.972   1.008  22.862
50870W        W54938  12.804   0.918  21.914
50871W        W54939  13.741   0.389  22.709
50872W        W54940  11.071   0.237  22.157
50873W        W54941  11.898   2.424  21.937
50874W        W54942  11.139   2.665  22.705
50875W        W54943  12.251   0.205  22.970
50876W        W54944  13.310   0.282  22.475
50877W        W54945  11.414   0.783  22.642
50878W        W54946  14.381   1.674  21.943
50879W        W54947  10.935   0.694  22.180
50880W        W54948  12.946   3.560  22.216
50881W        W54949  11.092   2.067  21.913
50882W        W54950  14.493   1.919  22.403
50883W        W54951  13.356   2.251  22.502
50884W        W54952  13.830   3.551  22.197
50885W        W54953  12.424   0.117  22.156
50886W        W54954  13.963   2.716  22.099
50887W        W54955  13.503   3.453  22.613
50888W        W54956  11.964   2.736  22.598
50889W        W54957  13.719   2.234  22.862
50890W        W54958  12.816   2.922  23.050
50891W        W54959  14.566   1.482  23.231
50892W        W54960  13.090   2.966  22.165
50893W        W54961  12.232   2.211  22.247
50894W        W54962  13.944   3.593  22.966
50895W        W54963  11.200   1.599  22.131
50896W        W54964  14.334   3.257  22.828
50897W        W54965  14.171   0.581  22.447
50898W        W54966  14.045   1.458  23.213
50899W        W54967  11.576   2.786  22.108
50900W        W54968  14.093   2.544  22.918
50901W        W54969  14.470   1.266  22.285
50902W        W54970  12.215   2.323  22.756
50903W        W54971  12.138   1.214  21.995
50904W        W54972  12.349   0.707  22.088
50905W        W54973  11.484   1.523  22.869
50906W        W54974  14.050   1.601  22.414
50907W        W54975  13.581   2.726  23.063
50908W        W54976  14.145   0.114  22.536
50909W        W54977  13.665   2.589  22.547
50910W        W54978  12.567   1.647  22.632
50911W        W54979  13.754   0.451  22.155
50912W        W54980  11.822   2.590  23.197
50913W        W54981  13.585   1.210  23.162
50914W        W54982  11.027   3.317  23.306
50915W        W54983  11.536   2.504  22.842
50916W        W54984  14.325   1.942  23.287
50917W        W54985  13.679   2.119  22.167
50918W        W54986  12.646   0.072  22.696
50919W        W54987  12.298   0.490  22.528
50920W        W54988  13.096   0.955  23.091
50921W        W54989  11.897   0.750  22.385
50922W        W54990  13.414   0.892  22.710
50923W        W54991  14.457   3.407  22.012
50924W        W54992  11.111   2.400  22.304
50925W        W54993  12.630   1.351  22.174
50926W        W54994  11.276   1.900  23.193
50927W        W54995  14.238   0.251  22.084
50928W        W54996  14.549   2.224  22.820
50929W        W54997  12.846   0.103  23.223
50930W        W54998  11.905   3.087  23.060
50931W        W54999  11.167   3.019  22.302
50932W        W55000  12.983   2.383  23.020
50933W        W55001  11.335   2.001  22.595
50934W        W55002  11.020   0.363  22.671
50935W        W55003  13.561   0.955  22.170
50936W        W55004  12.151   3.215  22.560
50937W        W55005  13.433   0.118  21.990
50938W        W55006  11.144   1.266  22.698
50939W        W55007  11.835   1.255  22.423
50940W        W55008  13.363   2.171  23.214
50941W        W55009  12.825   0.396  22.285
50942W        W55010  14.506   0.024  23.007
50943W        W55011  12.194   1.659  22.170
50944W        W55012  14.360   0.996  23.160
50945W        W55013  13.052   2.166  22.037
50946W        W55014  13.642   3.067  22.252
50947W        W55015  11.230   2.477  23.213
50948W        W55016  13.639   3.233  23.222
50949W        W55017  13.023   3.276  22.696
50950W        W55018  12.457   2.769  22.711
50951W        W55019  11.678   1.509  21.970
50952W        W55020  11.017   7.239   3.359
50953W        W55021  11.393   6.132   2.882
50954W        W55022  14.098   5.862   0.652
50955W        W55023  14.228   6.947   2.679
50956W        W55024  12.146   6.938   0.205
50957W        W55025  12.229   5.090   1.188
50958W        W55026  11.744   4.938   1.352
50959W        W55027  12.735   5.753   0.786
50960W        W55028  12.410   6.845   3.141
50961W        W55029  11.059   4.406   3.104
50962W        W55030  11.821   3.686   2.906
50963W        W55031  13.515   4.074   1.793
50964W        W55032  13.164   4.945   0.363
50965W        W55033  13.734   4.379   3.454
50966W        W55034  11.100   4.171   2.579
50967W        W55035  11.199   6.790   3.600
50968W        W55036  12.721   6.180   0.332
50969W        W55037  11.153   4.963   2.025
50970W        W55038  12.046   4.854   3.262
50971W        W55039  14.505   4.713   1.761
50972W        W55040  14.269   5.756   2.620
50973W        W55041  12.577   5.089   1.647
50974W        W55042  13.123   6.428   2.016
50975W        W55043  11.623   5.862   2.248
50976W        W55044  10.982   5.390   1.819
50977W        W55045  12.018   5.362   3.011
50978W        W55046  11.905   6.589   1.710
50979W        W55047  13.026   6.278   2.844
50980W        W55048  12.246   4.918   2.069
50981W        W55049  12.538   5.702   1.712
50982W        W55050  12.614   5.795   3.570
50983W        W55051  12.595   5.511   3.048
50984W        W55052  11.004   4.902   3.570
50985W        W55053  13.836   6.437   3.169
50986W        W55054  11.417   4.019   1.167
50987W        W55055  11.944   6.277   2.166
50988W        W55056  14.407   6.060   1.456
50989W        W55057  13.820   4.460   2.023
50990W        W55058  14.105   4.413   0.118
50991W        W55059  14.570   5.214   2.424
50992W        W55060  12.537   6.921   2.177
50993W        W55061  14.311   6.387   0.615
50994W        W55062  11.440   7.173   0.369
50995W        W55063  11.833   7.219   1.045
50996W        W55064  11.630   3.973   2.471
50997W        W55065  14.253   4.991   2.746
50998W        W55066  13.658   5.413   1.205
50999W        W55067  13.624   5.101   0.232
51000W        W55068  12.832   6.245   2.372
51001W        W55069  12.638   4.575   1.571
51002W        W55070  13.238   6.662   2.565
51003W        W55071  14.109   5.453   0.987
51004W        W55072  13.011   4.111   1.003
51005W        W55073  11.668   6.805   0.686
51006W        W55074  11.039   4.304   1.285
51007W        W55075  13.825   4.911   1.759
51008W        W55076  11.283   6.528   1.674
51009W        W55077  12.624   6.878   0.544
51010W        W55078  14.016   4.904   0.008
51011W        W55079  11.039   6.662   2.172
51012W        W55080  11.830   6.234   2.652
51013W        W55081  12.203   5.594   1.271
51014W        W55082  12.225   3.999   2.364
51015W        W55083  14.454   3.761   1.661
51016W        W55084  11.673   5.633   0.129
51017W        W55085  11.328   4.666   0.308
51018W        W55086  11.390   6.622   1.102
51019W        W55087  12.521   6.105   1.350
51020W        W55088  13.853   6.964   3.064
51021W        W55089  12.779   4.606   0.748
51022W        W55090  14.162   7.004   1.520
51023W        W55091  13.839   4.857   3.118
51024W        W55092  14.552   6.513   1.252
51025W        W55093  13.179   5.805   2.736
51026W        W55094  10.945   5.356   0.942
51027W        W55095  12.056   5.771   2.515
51028W        W55096  13.260   5.035   0.893
51029W        W55097  13.137   5.525   0.997
51030W        W55098  11.480   4.945   2.471
51031W        W55099  11.465   4.821   3.393
51032W        W55100  11.355   3.738   1.552
51033W        W55101  13.123   4.085   2.113
51034W        W55102  12.771   4.270   3.276
51035W        W55103  13.126   4.419   0.454
51036W        W55104  14.309   6.812   3.208
51037W        W55105  13.276   3.893   3.247
51038W        W55106  13.725   4.361   2.965
51039W        W55107  13.525   4.299   1.235
51040W        W55108  13.918   5.433   3.639
51041W        W55109  11.658   7.009   1.625
51042W        W55110  12.316   4.726   0.611
51043W        W55111  11.885   4.010   3.275
51044W        W55112  13.937   4.494   0.956
51045W        W55113  14.304   4.976   0.901
51046W        W55114  12.047   7.193   3.372
51047W        W55115  11.973   3.729   0.607
51048W        W55116  14.294   4.263   1.642
51049W        W55117  14.444   6.512   0.087
51050W        W55118  11.351   5.715   1.789
51051W        W55119  13.268   4.302   0.019
51052W        W55120  14.402   6.634   1.739
51053W        W55121  14.441   3.828   2.489
51054W        W55122  12.979   6.379   0.746
51055W        W55123  13.379   5.673   3.486
51056W        W55124  13.053   3.650   1.795
51057W        W55125  11.665   4.553   1.858
51058W        W55126  11.219   5.753   2.632
51059W        W55127  13.078   6.946   1.338
51060W        W55128  14.272   4.543   2.210
51061W        W55129  12.909   6.890   2.977
51062W        W55130  14.252   5.949   0.182
51063W        W55131  12.687   5.432   1.243
51064W        W55132  14.539   3.943   2.984
51065W        W55133  12.688   5.778   2.578
51066W        W55134  12.905   4.664   2.023
51067W        W55135  13.757   4.962   0.861
51068W        W55136  14.044   4.695   0.503
51069W        W55137  13.853   6.735   0.892
51070W        W55138  13.687   6.338   1.688
51071W        W55139  13.583   5.417   0.666
51072W        W55140  13.016   5.627   1.652
51073W        W55141  13.897   5.415   1.719
51074W        W55142  11.272   4.430   2.143
51075W        W55143  14.050   5.482   2.970
51076W        W55144  14.401   7.100   2.116
51077W        W55145  12.331   6.544   1.518
51078W        W55146  13.338   7.077   2.842
51079W        W55147  13.332   4.407   2.606
51080W        W55148  12.539   7.115   2.667
51081W        W55149  14.236   4.069   1.133
51082W        W55150  14.027   5.388   2.434
51083W        W55151  11.010   4.709   2.472
51084W        W55152  13.870   4.504   1.490
51085W        W55153  13.166   6.354   1.485
51086W        W55154  12.422   6.945   1.098
51087W        W55155  11.537   4.125   0.356
51088W        W55156  12.641   3.779   2.166
51089W        W55157  11.669   6.899   0.014
51090W        W55158  12.043   5.365   0.765
51091W        W55159  12.697   5.994   3.078
51092W        W55160  12.527   4.352   1.068
51093W        W55161  13.883   3.949   1.496
51094W        W55162  13.603   7.231   1.824
51095W        W55163  13.015   6.879   2.164
51096W        W55164  12.411   5.916   2.125
51097W        W55165  14.181   6.639   2.251
51098W        W55166  11.875   4.142   1.020
51099W        W55167  12.397   6.439   1.980
51100W        W55168  11.880   4.370   0.045
51101W        W55169  12.681   4.979   2.439
51102W        W55170  13.529   3.845   2.309
51103W        W55171  10.949   5.688   2.194
51104W        W55172  12.653   5.506   0.352
51105W        W55173  11.921   3.821   0.122
51106W        W55174  12.659   4.902   1.173
51107W        W55175  13.629   3.878   2.872
51108W        W55176  12.217   5.890   2.981
51109W        W55177  13.021   5.672   3.198
51110W        W55178  12.922   3.842   3.596
51111W        W55179  12.144   4.458   1.989
51112W        W55180  11.570   4.414   1.387
51113W        W55181  11.356   7.126   1.063
51114W        W55182  12.688   6.456   3.188
51115W        W55183  11.723   5.941   0.547
51116W        W55184  13.403   5.326   1.768
51117W        W55185  13.683   5.125   2.167
51118W        W55186  12.888   5.799   2.101
51119W        W55187  13.358   6.173   0.233
51120W        W55188  13.030   4.194   1.561
51121W        W55189  14.509   4.472   0.829
51122W        W55190  11.003   7.061   2.860
51123W        W55191  11.420   6.287   2.392
51124W        W55192  10.987   7.133   0.624
51125W        W55193  12.886   4.403   2.430
51126W        W55194  12.249   6.426   0.279
51127W        W55195  14.154   6.808   0.465
51128W        W55196  13.129   5.461   0.479
51129W        W55197  11.972   4.652   0.996
51130W        W55198  12.804   4.562   0.048
51131W        W55199  13.388   6.127   3.226
51132W        W55200  13.741   4.033   0.843
51133W        W55201  11.071   3.881   0.291
51134W        W55202  12.357   6.200   2.581
51135W        W55203  12.156   6.116   1.673
51136W        W55204  11.898   6.068   0.071
51137W        W55205  11.139   6.309   0.839
51138W        W55206  11.643   5.379   3.281
51139W        W55207  12.347   3.939   3.467
51140W        W55208  13.056   4.081   2.823
51141W        W55209  12.251   3.849   1.104
51142W        W55210  13.310   3.926   0.609
51143W        W55211  11.255   3.858   2.186
51144W        W55212  11.303   4.821   1.556
51145W        W55213  13.992   3.929   1.962
51146W        W55214  11.414   4.427   0.776
51147W        W55215  13.985   4.115   2.392
51148W        W55216  14.381   5.318   0.077
51149W        W55217  11.673   4.076   1.896
51150W        W55218  12.787   4.648   2.836
51151W        W55219  10.935   4.338   0.314
51152W        W55220  11.721   5.727   2.875
51153W        W55221  13.079   5.125   2.054
51154W        W55222  12.946   7.204   0.350
51155W        W55223  11.092   5.711   0.047
51156W        W55224  11.827   6.122   3.173
51157W        W55225  11.348   5.289   2.804
51158W        W55226  12.339   5.394   2.598
51159W        W55227  14.107   3.753   2.860
51160W        W55228  14.505   5.363   2.851
51161W        W55229  14.493   5.563   0.537
51162W        W55230  13.356   5.895   0.636
51163W        W55231  13.830   7.195   0.331
51164W        W55232  11.337   6.152   3.513
51165W        W55233  14.543   4.074   3.465
51166W        W55234  14.261   5.002   2.086
51167W        W55235  12.569   7.132   3.563
51168W        W55236  12.424   3.761   0.290
51169W        W55237  13.963   6.360   0.233
51170W        W55238  11.732   4.453   3.119
51171W        W55239  12.166   6.447   2.981
51172W        W55240  14.292   4.438   2.779
51173W        W55241  13.503   7.097   0.747
51174W        W55242  13.742   5.716   2.114
51175W        W55243  11.992   4.132   2.781
51176W        W55244  12.461   5.201   3.538
51177W        W55245  11.964   6.380   0.732
51178W        W55246  13.719   5.878   0.996
51179W        W55247  11.487   4.504   2.720
51180W        W55248  12.816   6.566   1.184
51181W        W55249  14.566   5.126   1.365
51182W        W55250  12.788   3.759   3.084
51183W        W55251  13.568   6.464   2.163
51184W        W55252  13.871   6.808   1.871
51185W        W55253  13.090   6.610   0.299
51186W        W55254  11.100   6.502   3.141
51187W        W55255  11.843   4.494   2.379
51188W        W55256  11.813   3.842   1.489
51189W        W55257  13.434   4.684   2.181
51190W        W55258  12.232   5.855   0.381
51191W        W55259  14.230   5.797   1.880
51192W        W55260  11.557   6.555   3.303
51193W        W55261  13.944   7.237   1.100
51194W        W55262  12.043   4.257   1.545
51195W        W55263  11.812   5.750   1.635
51196W        W55264  12.125   7.161   2.385
51197W        W55265  14.192   7.257   3.417
51198W        W55266  13.351   5.445   2.350
51199W        W55267  11.200   5.243   0.265
51200W        W55268  14.334   6.901   0.962
51201W        W55269  14.171   4.225   0.581
51202W        W55270  12.310   3.744   2.984
51203W        W55271  14.016   6.546   1.442
51204W        W55272  14.045   5.102   1.347
51205W        W55273  12.162   4.775   1.563
51206W        W55274  12.407   5.037   2.887
51207W        W55275  13.518   6.190   2.750
51208W        W55276  12.168   4.644   2.862
51209W        W55277  12.147   7.110   1.478
51210W        W55278  11.464   7.069   3.112
51211W        W55279  11.576   6.430   0.242
51212W        W55280  14.093   6.188   1.052
51213W        W55281  11.697   4.980   2.938
51214W        W55282  14.470   4.910   0.419
51215W        W55283  12.215   5.967   0.890
51216W        W55284  13.205   4.977   2.515
51217W        W55285  11.765   5.349   2.544
51218W        W55286  13.975   7.237   2.373
51219W        W55287  13.766   3.871   3.367
51220W        W55288  11.430   4.021   2.954
51221W        W55289  11.769   5.044   2.007
51222W        W55290  12.138   4.858   0.129
51223W        W55291  10.941   6.617   2.674
51224W        W55292  12.526   5.326   2.117
51225W        W55293  12.349   4.351   0.222
51226W        W55294  11.484   5.167   1.003
51227W        W55295  11.255   7.019   2.440
51228W        W55296  14.050   5.245   0.548
51229W        W55297  14.145   4.161   3.234
51230W        W55298  13.581   6.370   1.197
51231W        W55299  11.179   5.294   3.374
51232W        W55300  14.145   3.758   0.670
51233W        W55301  13.665   6.233   0.681
51234W        W55302  12.567   5.291   0.766
51235W        W55303  13.754   4.095   0.289
51236W        W55304  13.819   4.702   2.475
51237W        W55305  11.528   5.295   1.682
51238W        W55306  11.822   6.234   1.331
51239W        W55307  13.585   4.854   1.296
51240W        W55308  12.608   4.233   1.992
51241W        W55309  14.570   6.144   2.503
51242W        W55310  14.488   4.131   2.064
51243W        W55311  11.027   6.961   1.440
51244W        W55312  11.536   6.148   0.976
51245W        W55313  11.451   3.765   3.529
51246W        W55314  12.570   6.618   3.631
51247W        W55315  14.325   5.586   1.421
51248W        W55316  13.679   5.763   0.301
51249W        W55317  12.974   7.284   2.513
51250W        W55318  12.646   3.716   0.830
51251W        W55319  13.359   4.585   1.689
51252W        W55320  11.045   6.172   2.021
51253W        W55321  12.298   4.134   0.662
51254W        W55322  12.102   5.618   3.511
51255W        W55323  13.096   4.599   1.225
51256W        W55324  13.301   6.009   2.347
51257W        W55325  11.455   6.614   2.782
51258W        W55326  12.046   6.597   3.505
51259W        W55327  11.897   4.394   0.519
51260W        W55328  13.414   4.536   0.844
51261W        W55329  13.372   6.644   3.081
51262W        W55330  12.057   5.236   1.680
51263W        W55331  11.712   6.934   2.545
51264W        W55332  14.457   7.051   0.146
51265W        W55333  11.320   5.723   3.142
51266W        W55334  13.315   5.985   1.830
51267W        W55335  11.751   5.634   1.072
51268W        W55336  12.122   6.641   2.467
51269W        W55337  12.500   4.060   1.508
51270W        W55338  11.111   6.044   0.438
51271W        W55339  12.630   4.995   0.308
51272W        W55340  11.276   5.544   1.327
51273W        W55341  12.566   4.186   2.791
51274W        W55342  14.238   3.895   0.218
51275W        W55343  12.985   6.898   3.469
51276W        W55344  14.543   5.992   2.991
51277W        W55345  13.951   6.790   3.602
51278W        W55346  11.690   7.246   2.080
51279W        W55347  14.549   5.868   0.954
51280W        W55348  13.079   5.135   1.467
51281W        W55349  12.846   3.747   1.357
51282W        W55350  11.905   6.731   1.194
51283W        W55351  12.404   4.472   2.419
51284W        W55352  12.104   3.841   1.888
51285W        W55353  11.167   6.663   0.436
51286W        W55354  12.983   6.027   1.154
51287W        W55355  11.858   6.822   3.033
51288W        W55356  11.335   5.645   0.729
51289W        W55357  11.220   4.188   1.728
51290W        W55358  12.768   6.153   1.785
51291W        W55359  11.020   4.007   0.805
51292W        W55360  13.684   5.213   2.732
51293W        W55361  13.561   4.599   0.304
51294W        W55362  14.078   6.271   1.952
51295W        W55363  12.739   6.755   1.783
51296W        W55364  12.151   6.859   0.694
51297W        W55365  13.433   3.762   0.124
51298W        W55366  11.233   7.022   1.865
51299W        W55367  13.430   4.780   3.500
51300W        W55368  11.413   4.310   3.499
51301W        W55369  11.144   4.910   0.832
51302W        W55370  11.835   4.899   0.557
51303W        W55371  13.598   5.226   3.374
51304W        W55372  11.941   5.507   2.083
51305W        W55373  13.415   3.793   1.203
51306W        W55374  12.546   7.224   1.706
51307W        W55375  13.760   6.686   2.643
51308W        W55376  13.344   6.835   1.754
51309W        W55377  13.363   5.815   1.348
51310W        W55378  12.825   4.040   0.419
51311W        W55379  14.506   3.668   1.141
51312W        W55380  12.194   5.303   0.304
51313W        W55381  14.360   4.640   1.294
51314W        W55382  13.052   5.810   0.171
51315W        W55383  13.988   6.010   2.919
51316W        W55384  13.642   6.711   0.386
51317W        W55385  12.077   4.970   2.533
51318W        W55386  14.169   6.465   2.810
51319W        W55387  13.269   4.415   3.187
51320W        W55388  11.113   4.886   2.964
51321W        W55389  11.230   6.121   1.347
51322W        W55390  11.377   5.418   2.237
51323W        W55391  13.694   5.704   2.587
51324W        W55392  13.466   7.084   3.398
51325W        W55393  13.362   4.823   2.951
51326W        W55394  13.639   6.877   1.356
51327W        W55395  12.641   6.597   2.679
51328W        W55396  12.126   6.952   1.948
51329W        W55397  13.931   6.123   2.367
51330W        W55398  12.981   6.195   3.504
51331W        W55399  11.586   6.148   1.843
51332W        W55400  13.932   5.907   1.488
51333W        W55401  13.573   6.973   2.239
51334W        W55402  11.551   6.702   2.109
51335W        W55403  13.023   6.920   0.830
51336W        W55404  12.331   6.175   3.468
51337W        W55405  12.457   6.413   0.845
51338W        W55406  11.678   5.153   0.104
51339W        W55407  11.017   7.239   7.003
51340W        W55408  11.393   6.132   6.526
51341W        W55409  14.228   6.947   6.323
51342W        W55410  12.146   6.938   3.849
51343W        W55411  12.229   5.090   4.832
51344W        W55412  11.744   4.938   4.996
51345W        W55413  12.735   5.753   4.430
51346W        W55414  12.410   6.845   6.785
51347W        W55415  11.059   4.406   6.748
51348W        W55416  11.821   3.686   6.550
51349W        W55417  13.515   4.074   5.437
51350W        W55418  13.164   4.945   4.007
51351W        W55419  13.734   4.379   7.098
51352W        W55420  11.100   4.171   6.223
51353W        W55421  11.199   6.790   7.244
51354W        W55422  12.721   6.180   3.976
51355W        W55423  11.153   4.963   5.669
51356W        W55424  12.046   4.854   6.906
51357W        W55425  14.505   4.713   5.405
51358W        W55426  14.269   5.756   6.264
51359W        W55427  12.577   5.089   5.291
51360W        W55428  13.123   6.428   5.660
51361W        W55429  11.623   5.862   5.892
51362W        W55430  10.982   5.390   5.463
51363W        W55431  12.018   5.362   6.655
51364W        W55432  14.289   5.145   6.909
51365W        W55433  11.905   6.589   5.354
51366W        W55434  13.026   6.278   6.488
51367W        W55435  12.538   5.702   5.356
51368W        W55436  13.535   6.475   7.204
51369W        W55437  12.614   5.795   7.214
51370W        W55438  12.595   5.511   6.692
51371W        W55439  11.004   4.902   7.214
51372W        W55440  13.836   6.437   6.813
51373W        W55441  11.417   4.019   4.811
51374W        W55442  11.944   6.277   5.810
51375W        W55443  14.407   6.060   5.100
51376W        W55444  13.820   4.460   5.667
51377W        W55445  14.105   4.413   3.762
51378W        W55446  14.570   5.214   6.068
51379W        W55447  12.537   6.921   5.821
51380W        W55448  14.311   6.387   4.259
51381W        W55449  11.440   7.173   4.013
51382W        W55450  11.833   7.219   4.689
51383W        W55451  11.630   3.973   6.115
51384W        W55452  14.253   4.991   6.390
51385W        W55453  13.658   5.413   4.849
51386W        W55454  13.624   5.101   3.876
51387W        W55455  12.832   6.245   6.016
51388W        W55456  13.238   6.662   6.209
51389W        W55457  13.011   4.111   4.647
51390W        W55458  11.668   6.805   4.330
51391W        W55459  11.039   4.304   4.929
51392W        W55460  11.283   6.528   5.318
51393W        W55461  12.624   6.878   4.188
51394W        W55462  14.016   4.904   3.652
51395W        W55463  11.039   6.662   5.816
51396W        W55464  11.830   6.234   6.296
51397W        W55465  12.203   5.594   4.915
51398W        W55466  12.225   3.999   6.008
51399W        W55467  14.454   3.761   5.305
51400W        W55468  11.673   5.633   3.773
51401W        W55469  11.328   4.666   3.952
51402W        W55470  11.390   6.622   4.746
51403W        W55471  12.521   6.105   4.994
51404W        W55472  13.853   6.964   6.708
51405W        W55473  12.779   4.606   4.392
51406W        W55474  14.162   7.004   5.164
51407W        W55475  13.839   4.857   6.762
51408W        W55476  14.552   6.513   4.896
51409W        W55477  13.179   5.805   6.380
51410W        W55478  10.945   5.356   4.586
51411W        W55479  12.056   5.771   6.159
51412W        W55480  13.260   5.035   4.537
51413W        W55481  13.137   5.525   4.641
51414W        W55482  11.480   4.945   6.115
51415W        W55483  11.465   4.821   7.037
51416W        W55484  11.355   3.738   5.196
51417W        W55485  13.123   4.085   5.757
51418W        W55486  12.771   4.270   6.920
51419W        W55487  13.126   4.419   4.098
51420W        W55488  14.309   6.812   6.852
51421W        W55489  13.276   3.893   6.891
51422W        W55490  14.295   6.194   7.013
51423W        W55491  13.725   4.361   6.609
51424W        W55492  13.525   4.299   4.879
51425W        W55493  13.918   5.433   7.283
51426W        W55494  11.658   7.009   5.269
51427W        W55495  12.316   4.726   4.255
51428W        W55496  11.885   4.010   6.919
51429W        W55497  13.937   4.494   4.600
51430W        W55498  14.304   4.976   4.545
51431W        W55499  12.047   7.193   7.016
51432W        W55500  14.294   4.263   5.286
51433W        W55501  14.444   6.512   3.731
51434W        W55502  11.351   5.715   5.433
51435W        W55503  13.268   4.302   3.663
51436W        W55504  14.402   6.634   5.383
51437W        W55505  14.441   3.828   6.133
51438W        W55506  12.886   5.040   6.687
51439W        W55507  12.979   6.379   4.390
51440W        W55508  13.379   5.673   7.130
51441W        W55509  13.053   3.650   5.439
51442W        W55510  11.665   4.553   5.502
51443W        W55511  11.219   5.753   6.276
51444W        W55512  13.078   6.946   4.982
51445W        W55513  14.272   4.543   5.854
51446W        W55514  12.909   6.890   6.621
51447W        W55515  14.252   5.949   3.826
51448W        W55516  14.539   3.943   6.628
51449W        W55517  12.688   5.778   6.222
51450W        W55518  12.905   4.664   5.667
51451W        W55519  13.757   4.962   4.505
51452W        W55520  13.853   6.735   4.536
51453W        W55521  13.687   6.338   5.332
51454W        W55522  13.583   5.417   4.310
51455W        W55523  13.016   5.627   5.296
51456W        W55524  13.897   5.415   5.363
51457W        W55525  11.272   4.430   5.787
51458W        W55526  14.050   5.482   6.614
51459W        W55527  14.401   7.100   5.760
51460W        W55528  12.331   6.544   5.162
51461W        W55529  13.338   7.077   6.486
51462W        W55530  13.332   4.407   6.250
51463W        W55531  12.539   7.115   6.311
51464W        W55532  14.236   4.069   4.777
51465W        W55533  14.027   5.388   6.078
51466W        W55534  11.010   4.709   6.116
51467W        W55535  13.870   4.504   5.134
51468W        W55536  14.281   4.655   6.911
51469W        W55537  13.166   6.354   5.129
51470W        W55538  12.422   6.945   4.742
51471W        W55539  11.537   4.125   4.000
51472W        W55540  12.641   3.779   5.810
51473W        W55541  11.669   6.899   3.658
51474W        W55542  12.043   5.365   4.409
51475W        W55543  12.697   5.994   6.722
51476W        W55544  12.527   4.352   4.712
51477W        W55545  13.883   3.949   5.140
51478W        W55546  13.603   7.231   5.468
51479W        W55547  13.015   6.879   5.808
51480W        W55548  12.411   5.916   5.769
51481W        W55549  14.181   6.639   5.895
51482W        W55550  11.875   4.142   4.664
51483W        W55551  12.397   6.439   5.624
51484W        W55552  11.880   4.370   3.689
51485W        W55553  12.681   4.979   6.083
51486W        W55554  13.529   3.845   5.953
51487W        W55555  10.949   5.688   5.838
51488W        W55556  12.653   5.506   3.996
51489W        W55557  11.921   3.821   3.766
51490W        W55558  13.629   3.878   6.516
51491W        W55559  12.217   5.890   6.625
51492W        W55560  13.021   5.672   6.842
51493W        W55561  13.638   5.702   6.735
51494W        W55562  12.922   3.842   7.240
51495W        W55563  12.144   4.458   5.633
51496W        W55564  11.570   4.414   5.031
51497W        W55565  11.356   7.126   4.707
51498W        W55566  12.688   6.456   6.832
51499W        W55567  11.723   5.941   4.191
51500W        W55568  13.403   5.326   5.412
51501W        W55569  13.683   5.125   5.811
51502W        W55570  12.888   5.799   5.745
51503W        W55571  13.358   6.173   3.877
51504W        W55572  13.030   4.194   5.205
51505W        W55573  14.509   4.472   4.473
51506W        W55574  11.003   7.061   6.504
51507W        W55575  11.420   6.287   6.036
51508W        W55576  10.987   7.133   4.268
51509W        W55577  12.886   4.403   6.074
51510W        W55578  12.249   6.426   3.923
51511W        W55579  14.154   6.808   4.109
51512W        W55580  13.129   5.461   4.123
51513W        W55581  12.804   4.562   3.692
51514W        W55582  13.388   6.127   6.870
51515W        W55583  13.741   4.033   4.487
51516W        W55584  11.071   3.881   3.935
51517W        W55585  12.357   6.200   6.225
51518W        W55586  12.156   6.116   5.317
51519W        W55587  11.898   6.068   3.715
51520W        W55588  11.139   6.309   4.483
51521W        W55589  11.643   5.379   6.925
51522W        W55590  12.347   3.939   7.111
51523W        W55591  13.056   4.081   6.467
51524W        W55592  12.251   3.849   4.748
51525W        W55593  13.310   3.926   4.253
51526W        W55594  11.255   3.858   5.830
51527W        W55595  11.303   4.821   5.200
51528W        W55596  13.992   3.929   5.606
51529W        W55597  11.414   4.427   4.420
51530W        W55598  13.985   4.115   6.036
51531W        W55599  14.381   5.318   3.721
51532W        W55600  11.673   4.076   5.540
51533W        W55601  12.787   4.648   6.480
51534W        W55602  10.935   4.338   3.958
51535W        W55603  11.721   5.727   6.519
51536W        W55604  13.079   5.125   5.698
51537W        W55605  12.946   7.204   3.994
51538W        W55606  11.092   5.711   3.691
51539W        W55607  11.827   6.122   6.817
51540W        W55608  11.348   5.289   6.448
51541W        W55609  12.339   5.394   6.242
51542W        W55610  14.107   3.753   6.504
51543W        W55611  14.505   5.363   6.495
51544W        W55612  13.356   5.895   4.280
51545W        W55613  13.830   7.195   3.975
51546W        W55614  13.007   5.185   7.117
51547W        W55615  11.337   6.152   7.157
51548W        W55616  14.543   4.074   7.109
51549W        W55617  14.261   5.002   5.730
51550W        W55618  12.569   7.132   7.207
51551W        W55619  12.424   3.761   3.934
51552W        W55620  13.963   6.360   3.877
51553W        W55621  11.732   4.453   6.763
51554W        W55622  12.166   6.447   6.625
51555W        W55623  14.292   4.438   6.423
51556W        W55624  13.503   7.097   4.391
51557W        W55625  13.742   5.716   5.758
51558W        W55626  11.992   4.132   6.425
51559W        W55627  12.461   5.201   7.182
51560W        W55628  11.964   6.380   4.376
51561W        W55629  13.719   5.878   4.640
51562W        W55630  11.487   4.504   6.364
51563W        W55631  12.816   6.566   4.828
51564W        W55632  14.566   5.126   5.009
51565W        W55633  12.788   3.759   6.728
51566W        W55634  13.568   6.464   5.807
51567W        W55635  13.871   6.808   5.515
51568W        W55636  13.090   6.610   3.943
51569W        W55637  11.100   6.502   6.785
51570W        W55638  11.843   4.494   6.023
51571W        W55639  11.813   3.842   5.133
51572W        W55640  13.434   4.684   5.825
51573W        W55641  12.232   5.855   4.025
51574W        W55642  14.230   5.797   5.524
51575W        W55643  11.557   6.555   6.947
51576W        W55644  13.944   7.237   4.744
51577W        W55645  12.043   4.257   5.189
51578W        W55646  11.812   5.750   5.279
51579W        W55647  12.125   7.161   6.029
51580W        W55648  14.192   7.257   7.061
51581W        W55649  13.351   5.445   5.994
51582W        W55650  11.200   5.243   3.909
51583W        W55651  14.334   6.901   4.606
51584W        W55652  14.171   4.225   4.225
51585W        W55653  12.310   3.744   6.628
51586W        W55654  14.016   6.546   5.086
51587W        W55655  14.045   5.102   4.991
51588W        W55656  12.162   4.775   5.207
51589W        W55657  12.407   5.037   6.531
51590W        W55658  13.518   6.190   6.394
51591W        W55659  12.168   4.644   6.506
51592W        W55660  12.147   7.110   5.122
51593W        W55661  11.464   7.069   6.756
51594W        W55662  11.576   6.430   3.886
51595W        W55663  14.093   6.188   4.696
51596W        W55664  11.697   4.980   6.582
51597W        W55665  14.470   4.910   4.063
51598W        W55666  12.215   5.967   4.534
51599W        W55667  13.314   5.349   6.615
51600W        W55668  13.205   4.977   6.159
51601W        W55669  11.765   5.349   6.188
51602W        W55670  13.975   7.237   6.017
51603W        W55671  13.766   3.871   7.011
51604W        W55672  11.430   4.021   6.598
51605W        W55673  11.769   5.044   5.651
51606W        W55674  12.138   4.858   3.773
51607W        W55675  10.941   6.617   6.318
51608W        W55676  12.526   5.326   5.761
51609W        W55677  12.349   4.351   3.866
51610W        W55678  11.484   5.167   4.647
51611W        W55679  11.255   7.019   6.084
51612W        W55680  14.050   5.245   4.192
51613W        W55681  14.145   4.161   6.878
51614W        W55682  13.581   6.370   4.841
51615W        W55683  11.179   5.294   7.018
51616W        W55684  14.145   3.758   4.314
51617W        W55685  12.567   5.291   4.410
51618W        W55686  13.754   4.095   3.933
51619W        W55687  13.819   4.702   6.119
51620W        W55688  11.528   5.295   5.326
51621W        W55689  11.822   6.234   4.975
51622W        W55690  12.608   4.233   5.636
51623W        W55691  14.570   6.144   6.147
51624W        W55692  14.488   4.131   5.708
51625W        W55693  11.027   6.961   5.084
51626W        W55694  11.536   6.148   4.620
51627W        W55695  11.451   3.765   7.173
51628W        W55696  12.570   6.618   7.275
51629W        W55697  14.325   5.586   5.065
51630W        W55698  13.679   5.763   3.945
51631W        W55699  12.974   7.284   6.157
51632W        W55700  13.831   6.006   7.194
51633W        W55701  12.646   3.716   4.474
51634W        W55702  13.359   4.585   5.333
51635W        W55703  11.045   6.172   5.665
51636W        W55704  12.298   4.134   4.306
51637W        W55705  12.102   5.618   7.155
51638W        W55706  13.301   6.009   5.991
51639W        W55707  11.455   6.614   6.426
51640W        W55708  12.046   6.597   7.149
51641W        W55709  11.897   4.394   4.163
51642W        W55710  13.414   4.536   4.488
51643W        W55711  13.372   6.644   6.725
51644W        W55712  12.057   5.236   5.324
51645W        W55713  11.712   6.934   6.189
51646W        W55714  14.457   7.051   3.790
51647W        W55715  11.320   5.723   6.786
51648W        W55716  13.315   5.985   5.474
51649W        W55717  11.751   5.634   4.716
51650W        W55718  12.122   6.641   6.111
51651W        W55719  12.500   4.060   5.152
51652W        W55720  11.111   6.044   4.082
51653W        W55721  12.630   4.995   3.952
51654W        W55722  11.276   5.544   4.971
51655W        W55723  12.566   4.186   6.435
51656W        W55724  14.238   3.895   3.862
51657W        W55725  14.331   5.641   6.961
51658W        W55726  12.985   6.898   7.113
51659W        W55727  14.543   5.992   6.635
51660W        W55728  13.951   6.790   7.246
51661W        W55729  11.690   7.246   5.724
51662W        W55730  14.549   5.868   4.598
51663W        W55731  13.079   5.135   5.111
51664W        W55732  12.846   3.747   5.001
51665W        W55733  11.905   6.731   4.838
51666W        W55734  12.404   4.472   6.063
51667W        W55735  12.104   3.841   5.532
51668W        W55736  11.167   6.663   4.080
51669W        W55737  12.983   6.027   4.798
51670W        W55738  11.858   6.822   6.677
51671W        W55739  11.335   5.645   4.373
51672W        W55740  11.220   4.188   5.372
51673W        W55741  12.768   6.153   5.429
51674W        W55742  11.020   4.007   4.449
51675W        W55743  13.684   5.213   6.376
51676W        W55744  13.561   4.599   3.948
51677W        W55745  14.078   6.271   5.596
51678W        W55746  12.739   6.755   5.427
51679W        W55747  12.151   6.859   4.338
51680W        W55748  13.433   3.762   3.768
51681W        W55749  11.233   7.022   5.509
51682W        W55750  13.430   4.780   7.144
51683W        W55751  11.413   4.310   7.143
51684W        W55752  11.144   4.910   4.476
51685W        W55753  11.835   4.899   4.201
51686W        W55754  13.598   5.226   7.018
51687W        W55755  11.941   5.507   5.727
51688W        W55756  13.415   3.793   4.847
51689W        W55757  12.546   7.224   5.350
51690W        W55758  13.760   6.686   6.287
51691W        W55759  13.344   6.835   5.398
51692W        W55760  13.363   5.815   4.992
51693W        W55761  12.825   4.040   4.063
51694W        W55762  14.506   3.668   4.785
51695W        W55763  12.194   5.303   3.948
51696W        W55764  14.360   4.640   4.938
51697W        W55765  13.052   5.810   3.815
51698W        W55766  13.988   6.010   6.563
51699W        W55767  13.642   6.711   4.030
51700W        W55768  12.257   4.386   6.936
51701W        W55769  12.077   4.970   6.177
51702W        W55770  14.169   6.465   6.454
51703W        W55771  13.269   4.415   6.831
51704W        W55772  11.113   4.886   6.608
51705W        W55773  12.873   5.363   6.334
51706W        W55774  11.230   6.121   4.991
51707W        W55775  11.377   5.418   5.881
51708W        W55776  13.694   5.704   6.231
51709W        W55777  13.466   7.084   7.042
51710W        W55778  13.362   4.823   6.595
51711W        W55779  13.639   6.877   5.000
51712W        W55780  12.641   6.597   6.323
51713W        W55781  12.126   6.952   5.592
51714W        W55782  13.931   6.123   6.011
51715W        W55783  12.981   6.195   7.148
51716W        W55784  11.586   6.148   5.487
51717W        W55785  13.932   5.907   5.132
51718W        W55786  13.573   6.973   5.883
51719W        W55787  11.551   6.702   5.753
51720W        W55788  12.572   4.754   6.963
51721W        W55789  13.023   6.920   4.474
51722W        W55790  12.331   6.175   7.112
51723W        W55791  12.457   6.413   4.489
51724W        W55792  11.678   5.153   3.748
51725W        W55793  11.017   7.239  10.648
51726W        W55794  11.393   6.132  10.171
51727W        W55795  14.098   5.862   7.941
51728W        W55796  14.228   6.947   9.968
51729W        W55797  12.146   6.938   7.494
51730W        W55798  12.229   5.090   8.477
51731W        W55799  11.744   4.938   8.641
51732W        W55800  12.735   5.753   8.075
51733W        W55801  12.410   6.845  10.430
51734W        W55802  11.059   4.406  10.393
51735W        W55803  11.821   3.686  10.195
51736W        W55804  13.515   4.074   9.082
51737W        W55805  13.164   4.945   7.652
51738W        W55806  13.734   4.379  10.743
51739W        W55807  11.100   4.171   9.868
51740W        W55808  11.199   6.790  10.889
51741W        W55809  12.721   6.180   7.621
51742W        W55810  11.153   4.963   9.314
51743W        W55811  12.046   4.854  10.551
51744W        W55812  14.505   4.713   9.050
51745W        W55813  14.269   5.756   9.909
51746W        W55814  12.577   5.089   8.936
51747W        W55815  13.123   6.428   9.305
51748W        W55816  11.623   5.862   9.537
51749W        W55817  10.982   5.390   9.108
51750W        W55818  12.018   5.362  10.300
51751W        W55819  14.289   5.145  10.554
51752W        W55820  11.905   6.589   8.999
51753W        W55821  13.026   6.278  10.133
51754W        W55822  12.246   4.918   9.358
51755W        W55823  12.538   5.702   9.001
51756W        W55824  13.535   6.475  10.849
51757W        W55825  12.614   5.795  10.859
51758W        W55826  12.595   5.511  10.337
51759W        W55827  11.004   4.902  10.859
51760W        W55828  13.836   6.437  10.458
51761W        W55829  11.417   4.019   8.456
51762W        W55830  11.944   6.277   9.455
51763W        W55831  14.407   6.060   8.745
51764W        W55832  13.820   4.460   9.312
51765W        W55833  14.105   4.413   7.407
51766W        W55834  14.570   5.214   9.713
51767W        W55835  12.537   6.921   9.466
51768W        W55836  14.311   6.387   7.904
51769W        W55837  11.440   7.173   7.658
51770W        W55838  11.833   7.219   8.334
51771W        W55839  11.630   3.973   9.760
51772W        W55840  14.253   4.991  10.035
51773W        W55841  13.658   5.413   8.494
51774W        W55842  13.624   5.101   7.521
51775W        W55843  12.832   6.245   9.661
51776W        W55844  12.638   4.575   8.860
51777W        W55845  13.238   6.662   9.854
51778W        W55846  14.109   5.453   8.276
51779W        W55847  13.011   4.111   8.292
51780W        W55848  11.668   6.805   7.975
51781W        W55849  11.039   4.304   8.574
51782W        W55850  13.825   4.911   9.048
51783W        W55851  11.283   6.528   8.963
51784W        W55852  12.624   6.878   7.833
51785W        W55853  14.016   4.904   7.297
51786W        W55854  11.039   6.662   9.461
51787W        W55855  11.830   6.234   9.941
51788W        W55856  12.203   5.594   8.560
51789W        W55857  12.225   3.999   9.653
51790W        W55858  14.454   3.761   8.950
51791W        W55859  11.673   5.633   7.418
51792W        W55860  11.328   4.666   7.597
51793W        W55861  11.390   6.622   8.391
51794W        W55862  12.521   6.105   8.639
51795W        W55863  13.853   6.964  10.353
51796W        W55864  12.779   4.606   8.037
51797W        W55865  14.162   7.004   8.809
51798W        W55866  13.839   4.857  10.407
51799W        W55867  14.552   6.513   8.541
51800W        W55868  13.179   5.805  10.025
51801W        W55869  10.945   5.356   8.231
51802W        W55870  12.056   5.771   9.804
51803W        W55871  13.260   5.035   8.182
51804W        W55872  13.137   5.525   8.286
51805W        W55873  11.480   4.945   9.760
51806W        W55874  11.465   4.821  10.682
51807W        W55875  11.355   3.738   8.841
51808W        W55876  13.123   4.085   9.402
51809W        W55877  12.771   4.270  10.565
51810W        W55878  13.126   4.419   7.743
51811W        W55879  14.309   6.812  10.497
51812W        W55880  13.276   3.893  10.536
51813W        W55881  14.295   6.194  10.658
51814W        W55882  13.725   4.361  10.254
51815W        W55883  13.525   4.299   8.524
51816W        W55884  13.918   5.433  10.928
51817W        W55885  11.658   7.009   8.914
51818W        W55886  12.316   4.726   7.900
51819W        W55887  11.885   4.010  10.564
51820W        W55888  13.937   4.494   8.245
51821W        W55889  14.304   4.976   8.190
51822W        W55890  12.047   7.193  10.661
51823W        W55891  11.973   3.729   7.896
51824W        W55892  14.294   4.263   8.931
51825W        W55893  14.444   6.512   7.376
51826W        W55894  11.351   5.715   9.078
51827W        W55895  13.268   4.302   7.308
51828W        W55896  14.402   6.634   9.028
51829W        W55897  14.441   3.828   9.778
51830W        W55898  12.886   5.040  10.332
51831W        W55899  12.979   6.379   8.035
51832W        W55900  13.379   5.673  10.775
51833W        W55901  13.053   3.650   9.084
51834W        W55902  11.665   4.553   9.147
51835W        W55903  11.219   5.753   9.921
51836W        W55904  13.078   6.946   8.627
51837W        W55905  14.272   4.543   9.499
51838W        W55906  12.909   6.890  10.266
51839W        W55907  14.252   5.949   7.471
51840W        W55908  12.687   5.432   8.532
51841W        W55909  14.539   3.943  10.273
51842W        W55910  12.688   5.778   9.867
51843W        W55911  12.905   4.664   9.312
51844W        W55912  13.757   4.962   8.150
51845W        W55913  14.044   4.695   7.792
51846W        W55914  13.853   6.735   8.181
51847W        W55915  13.687   6.338   8.977
51848W        W55916  13.583   5.417   7.955
51849W        W55917  13.016   5.627   8.941
51850W        W55918  13.897   5.415   9.008
51851W        W55919  11.272   4.430   9.432
51852W        W55920  14.050   5.482  10.259
51853W        W55921  14.401   7.100   9.405
51854W        W55922  12.331   6.544   8.807
51855W        W55923  13.338   7.077  10.131
51856W        W55924  13.332   4.407   9.895
51857W        W55925  12.539   7.115   9.956
51858W        W55926  14.236   4.069   8.422
51859W        W55927  14.027   5.388   9.723
51860W        W55928  11.010   4.709   9.761
51861W        W55929  13.870   4.504   8.779
51862W        W55930  14.281   4.655  10.556
51863W        W55931  13.166   6.354   8.774
51864W        W55932  12.422   6.945   8.387
51865W        W55933  11.537   4.125   7.645
51866W        W55934  12.641   3.779   9.455
51867W        W55935  11.669   6.899   7.303
51868W        W55936  12.043   5.365   8.054
51869W        W55937  12.697   5.994  10.367
51870W        W55938  12.527   4.352   8.357
51871W        W55939  13.883   3.949   8.785
51872W        W55940  13.603   7.231   9.113
51873W        W55941  13.015   6.879   9.453
51874W        W55942  12.411   5.916   9.414
51875W        W55943  14.181   6.639   9.540
51876W        W55944  11.875   4.142   8.309
51877W        W55945  12.397   6.439   9.269
51878W        W55946  11.880   4.370   7.334
51879W        W55947  12.681   4.979   9.728
51880W        W55948  13.529   3.845   9.598
51881W        W55949  10.949   5.688   9.483
51882W        W55950  12.653   5.506   7.641
51883W        W55951  11.921   3.821   7.411
51884W        W55952  12.659   4.902   8.462
51885W        W55953  13.629   3.878  10.161
51886W        W55954  12.217   5.890  10.270
51887W        W55955  13.021   5.672  10.487
51888W        W55956  13.638   5.702  10.380
51889W        W55957  12.922   3.842  10.885
51890W        W55958  12.144   4.458   9.278
51891W        W55959  11.570   4.414   8.676
51892W        W55960  11.356   7.126   8.352
51893W        W55961  12.688   6.456  10.477
51894W        W55962  11.723   5.941   7.836
51895W        W55963  13.403   5.326   9.057
51896W        W55964  13.683   5.125   9.456
51897W        W55965  12.888   5.799   9.390
51898W        W55966  13.358   6.173   7.522
51899W        W55967  13.030   4.194   8.850
51900W        W55968  14.509   4.472   8.118
51901W        W55969  11.003   7.061  10.149
51902W        W55970  11.420   6.287   9.681
51903W        W55971  10.987   7.133   7.913
51904W        W55972  12.886   4.403   9.719
51905W        W55973  12.249   6.426   7.568
51906W        W55974  14.154   6.808   7.754
51907W        W55975  13.129   5.461   7.768
51908W        W55976  11.972   4.652   8.285
51909W        W55977  12.804   4.562   7.337
51910W        W55978  13.388   6.127  10.515
51911W        W55979  13.741   4.033   8.132
51912W        W55980  11.071   3.881   7.580
51913W        W55981  12.357   6.200   9.870
51914W        W55982  12.156   6.116   8.962
51915W        W55983  11.898   6.068   7.360
51916W        W55984  11.139   6.309   8.128
51917W        W55985  11.643   5.379  10.570
51918W        W55986  12.347   3.939  10.756
51919W        W55987  13.056   4.081  10.112
51920W        W55988  12.251   3.849   8.393
51921W        W55989  13.310   3.926   7.898
51922W        W55990  11.255   3.858   9.475
51923W        W55991  11.303   4.821   8.845
51924W        W55992  13.992   3.929   9.251
51925W        W55993  11.414   4.427   8.065
51926W        W55994  13.985   4.115   9.681
51927W        W55995  14.381   5.318   7.366
51928W        W55996  11.673   4.076   9.185
51929W        W55997  12.787   4.648  10.125
51930W        W55998  10.935   4.338   7.603
51931W        W55999  11.721   5.727  10.164
51932W        W56000  13.079   5.125   9.343
51933W        W56001  12.946   7.204   7.639
51934W        W56002  11.092   5.711   7.336
51935W        W56003  11.827   6.122  10.462
51936W        W56004  11.348   5.289  10.093
51937W        W56005  12.339   5.394   9.887
51938W        W56006  14.107   3.753  10.149
51939W        W56007  14.505   5.363  10.140
51940W        W56008  14.493   5.563   7.826
51941W        W56009  13.356   5.895   7.925
51942W        W56010  13.830   7.195   7.620
51943W        W56011  13.007   5.185  10.762
51944W        W56012  11.337   6.152  10.802
51945W        W56013  14.543   4.074  10.754
51946W        W56014  14.261   5.002   9.375
51947W        W56015  12.569   7.132  10.852
51948W        W56016  12.424   3.761   7.579
51949W        W56017  13.963   6.360   7.522
51950W        W56018  11.732   4.453  10.408
51951W        W56019  12.166   6.447  10.270
51952W        W56020  14.292   4.438  10.068
51953W        W56021  13.503   7.097   8.036
51954W        W56022  13.742   5.716   9.403
51955W        W56023  11.992   4.132  10.070
51956W        W56024  12.461   5.201  10.827
51957W        W56025  11.964   6.380   8.021
51958W        W56026  13.719   5.878   8.285
51959W        W56027  11.487   4.504  10.009
51960W        W56028  12.816   6.566   8.473
51961W        W56029  14.566   5.126   8.654
51962W        W56030  12.788   3.759  10.373
51963W        W56031  13.568   6.464   9.452
51964W        W56032  13.871   6.808   9.160
51965W        W56033  13.090   6.610   7.588
51966W        W56034  11.100   6.502  10.430
51967W        W56035  11.843   4.494   9.668
51968W        W56036  11.813   3.842   8.778
51969W        W56037  13.434   4.684   9.470
51970W        W56038  12.232   5.855   7.670
51971W        W56039  14.230   5.797   9.169
51972W        W56040  11.557   6.555  10.592
51973W        W56041  13.944   7.237   8.389
51974W        W56042  12.043   4.257   8.834
51975W        W56043  11.812   5.750   8.924
51976W        W56044  12.125   7.161   9.674
51977W        W56045  14.192   7.257  10.706
51978W        W56046  13.351   5.445   9.639
51979W        W56047  11.200   5.243   7.554
51980W        W56048  14.334   6.901   8.251
51981W        W56049  14.171   4.225   7.870
51982W        W56050  12.310   3.744  10.273
51983W        W56051  14.016   6.546   8.731
51984W        W56052  14.045   5.102   8.636
51985W        W56053  12.162   4.775   8.852
51986W        W56054  12.407   5.037  10.176
51987W        W56055  13.518   6.190  10.039
51988W        W56056  12.168   4.644  10.151
51989W        W56057  12.147   7.110   8.767
51990W        W56058  11.464   7.069  10.401
51991W        W56059  11.576   6.430   7.531
51992W        W56060  14.093   6.188   8.341
51993W        W56061  11.697   4.980  10.227
51994W        W56062  14.470   4.910   7.708
51995W        W56063  12.215   5.967   8.179
51996W        W56064  13.314   5.349  10.260
51997W        W56065  13.205   4.977   9.804
51998W        W56066  11.765   5.349   9.833
51999W        W56067  13.975   7.237   9.662
52000W        W56068  13.766   3.871  10.656
52001W        W56069  11.430   4.021  10.243
52002W        W56070  11.769   5.044   9.296
52003W        W56071  12.138   4.858   7.418
52004W        W56072  10.941   6.617   9.963
52005W        W56073  12.526   5.326   9.406
52006W        W56074  12.349   4.351   7.511
52007W        W56075  11.484   5.167   8.292
52008W        W56076  11.255   7.019   9.729
52009W        W56077  14.050   5.245   7.837
52010W        W56078  14.145   4.161  10.523
52011W        W56079  13.581   6.370   8.486
52012W        W56080  11.179   5.294  10.663
52013W        W56081  14.145   3.758   7.959
52014W        W56082  13.665   6.233   7.970
52015W        W56083  12.567   5.291   8.055
52016W        W56084  13.754   4.095   7.578
52017W        W56085  13.819   4.702   9.764
52018W        W56086  11.528   5.295   8.971
52019W        W56087  11.822   6.234   8.620
52020W        W56088  13.585   4.854   8.585
52021W        W56089  12.608   4.233   9.281
52022W        W56090  14.570   6.144   9.792
52023W        W56091  14.488   4.131   9.353
52024W        W56092  11.027   6.961   8.729
52025W        W56093  11.536   6.148   8.265
52026W        W56094  11.451   3.765  10.818
52027W        W56095  12.570   6.618  10.920
52028W        W56096  14.325   5.586   8.710
52029W        W56097  13.679   5.763   7.590
52030W        W56098  12.974   7.284   9.802
52031W        W56099  13.831   6.006  10.839
52032W        W56100  12.646   3.716   8.119
52033W        W56101  13.359   4.585   8.978
52034W        W56102  11.045   6.172   9.310
52035W        W56103  12.298   4.134   7.951
52036W        W56104  12.102   5.618  10.800
52037W        W56105  13.096   4.599   8.514
52038W        W56106  13.301   6.009   9.636
52039W        W56107  11.455   6.614  10.071
52040W        W56108  12.046   6.597  10.794
52041W        W56109  11.897   4.394   7.808
52042W        W56110  13.414   4.536   8.133
52043W        W56111  13.372   6.644  10.370
52044W        W56112  12.057   5.236   8.969
52045W        W56113  11.712   6.934   9.834
52046W        W56114  14.457   7.051   7.435
52047W        W56115  11.320   5.723  10.431
52048W        W56116  13.315   5.985   9.119
52049W        W56117  11.751   5.634   8.361
52050W        W56118  12.122   6.641   9.756
52051W        W56119  12.500   4.060   8.797
52052W        W56120  11.111   6.044   7.727
52053W        W56121  12.630   4.995   7.597
52054W        W56122  11.276   5.544   8.616
52055W        W56123  12.566   4.186  10.080
52056W        W56124  14.238   3.895   7.507
52057W        W56125  14.331   5.641  10.606
52058W        W56126  12.985   6.898  10.758
52059W        W56127  14.543   5.992  10.280
52060W        W56128  13.951   6.790  10.891
52061W        W56129  11.690   7.246   9.369
52062W        W56130  14.549   5.868   8.243
52063W        W56131  13.079   5.135   8.756
52064W        W56132  12.846   3.747   8.646
52065W        W56133  11.905   6.731   8.483
52066W        W56134  12.404   4.472   9.708
52067W        W56135  12.104   3.841   9.177
52068W        W56136  11.167   6.663   7.725
52069W        W56137  12.983   6.027   8.443
52070W        W56138  11.858   6.822  10.322
52071W        W56139  11.335   5.645   8.018
52072W        W56140  11.220   4.188   9.017
52073W        W56141  12.768   6.153   9.074
52074W        W56142  11.020   4.007   8.094
52075W        W56143  13.684   5.213  10.021
52076W        W56144  13.561   4.599   7.593
52077W        W56145  14.078   6.271   9.241
52078W        W56146  12.739   6.755   9.072
52079W        W56147  12.151   6.859   7.983
52080W        W56148  13.433   3.762   7.413
52081W        W56149  11.233   7.022   9.154
52082W        W56150  13.430   4.780  10.789
52083W        W56151  11.413   4.310  10.788
52084W        W56152  11.144   4.910   8.121
52085W        W56153  11.835   4.899   7.846
52086W        W56154  13.598   5.226  10.663
52087W        W56155  11.941   5.507   9.372
52088W        W56156  13.415   3.793   8.492
52089W        W56157  12.546   7.224   8.995
52090W        W56158  13.760   6.686   9.932
52091W        W56159  13.344   6.835   9.043
52092W        W56160  13.363   5.815   8.637
52093W        W56161  12.825   4.040   7.708
52094W        W56162  14.506   3.668   8.430
52095W        W56163  12.194   5.303   7.593
52096W        W56164  14.360   4.640   8.583
52097W        W56165  13.052   5.810   7.460
52098W        W56166  13.988   6.010  10.208
52099W        W56167  13.642   6.711   7.675
52100W        W56168  12.257   4.386  10.581
52101W        W56169  12.077   4.970   9.822
52102W        W56170  14.169   6.465  10.099
52103W        W56171  13.269   4.415  10.476
52104W        W56172  11.113   4.886  10.253
52105W        W56173  12.873   5.363   9.979
52106W        W56174  11.230   6.121   8.636
52107W        W56175  11.377   5.418   9.526
52108W        W56176  13.694   5.704   9.876
52109W        W56177  13.466   7.084  10.687
52110W        W56178  13.362   4.823  10.240
52111W        W56179  13.639   6.877   8.645
52112W        W56180  12.641   6.597   9.968
52113W        W56181  12.126   6.952   9.237
52114W        W56182  13.931   6.123   9.656
52115W        W56183  12.981   6.195  10.793
52116W        W56184  11.586   6.148   9.132
52117W        W56185  13.932   5.907   8.777
52118W        W56186  13.573   6.973   9.528
52119W        W56187  11.551   6.702   9.398
52120W        W56188  12.572   4.754  10.608
52121W        W56189  13.023   6.920   8.119
52122W        W56190  12.331   6.175  10.757
52123W        W56191  12.457   6.413   8.134
52124W        W56192  11.678   5.153   7.393
52125W        W56193  11.017   7.239  14.292
52126W        W56194  11.393   6.132  13.815
52127W        W56195  14.098   5.862  11.585
52128W        W56196  14.228   6.947  13.612
52129W        W56197  12.146   6.938  11.138
52130W        W56198  12.229   5.090  12.121
52131W        W56199  11.744   4.938  12.285
52132W        W56200  12.735   5.753  11.719
52133W        W56201  12.410   6.845  14.074
52134W        W56202  11.059   4.406  14.037
52135W        W56203  11.821   3.686  13.839
52136W        W56204  13.515   4.074  12.726
52137W        W56205  13.164   4.945  11.296
52138W        W56206  13.734   4.379  14.387
52139W        W56207  11.100   4.171  13.512
52140W        W56208  11.199   6.790  14.533
52141W        W56209  12.721   6.180  11.265
52142W        W56210  11.153   4.963  12.958
52143W        W56211  12.046   4.854  14.195
52144W        W56212  14.505   4.713  12.694
52145W        W56213  14.269   5.756  13.553
52146W        W56214  12.577   5.089  12.580
52147W        W56215  13.123   6.428  12.949
52148W        W56216  11.623   5.862  13.181
52149W        W56217  10.982   5.390  12.752
52150W        W56218  12.018   5.362  13.944
52151W        W56219  14.289   5.145  14.198
52152W        W56220  11.905   6.589  12.643
52153W        W56221  13.026   6.278  13.777
52154W        W56222  12.246   4.918  13.002
52155W        W56223  12.538   5.702  12.645
52156W        W56224  13.535   6.475  14.493
52157W        W56225  12.614   5.795  14.503
52158W        W56226  12.595   5.511  13.981
52159W        W56227  11.004   4.902  14.503
52160W        W56228  13.836   6.437  14.102
52161W        W56229  11.417   4.019  12.100
52162W        W56230  11.944   6.277  13.099
52163W        W56231  14.407   6.060  12.389
52164W        W56232  13.820   4.460  12.956
52165W        W56233  14.105   4.413  11.051
52166W        W56234  14.570   5.214  13.357
52167W        W56235  12.537   6.921  13.110
52168W        W56236  14.311   6.387  11.548
52169W        W56237  11.440   7.173  11.302
52170W        W56238  11.833   7.219  11.978
52171W        W56239  11.630   3.973  13.404
52172W        W56240  14.253   4.991  13.679
52173W        W56241  13.658   5.413  12.138
52174W        W56242  13.624   5.101  11.165
52175W        W56243  12.832   6.245  13.305
52176W        W56244  12.638   4.575  12.504
52177W        W56245  13.238   6.662  13.498
52178W        W56246  14.109   5.453  11.920
52179W        W56247  13.011   4.111  11.936
52180W        W56248  11.668   6.805  11.619
52181W        W56249  11.039   4.304  12.218
52182W        W56250  13.825   4.911  12.692
52183W        W56251  11.283   6.528  12.607
52184W        W56252  12.624   6.878  11.477
52185W        W56253  14.016   4.904  10.941
52186W        W56254  11.039   6.662  13.105
52187W        W56255  11.830   6.234  13.585
52188W        W56256  12.203   5.594  12.204
52189W        W56257  12.225   3.999  13.297
52190W        W56258  14.454   3.761  12.594
52191W        W56259  11.673   5.633  11.062
52192W        W56260  11.328   4.666  11.241
52193W        W56261  11.390   6.622  12.035
52194W        W56262  12.521   6.105  12.283
52195W        W56263  13.853   6.964  13.997
52196W        W56264  12.779   4.606  11.681
52197W        W56265  14.162   7.004  12.453
52198W        W56266  13.839   4.857  14.051
52199W        W56267  14.552   6.513  12.185
52200W        W56268  13.179   5.805  13.669
52201W        W56269  10.945   5.356  11.875
52202W        W56270  12.056   5.771  13.448
52203W        W56271  13.260   5.035  11.826
52204W        W56272  13.137   5.525  11.930
52205W        W56273  11.480   4.945  13.404
52206W        W56274  11.465   4.821  14.326
52207W        W56275  11.355   3.738  12.485
52208W        W56276  13.123   4.085  13.046
52209W        W56277  12.771   4.270  14.209
52210W        W56278  13.126   4.419  11.387
52211W        W56279  14.309   6.812  14.141
52212W        W56280  13.276   3.893  14.180
52213W        W56281  14.295   6.194  14.302
52214W        W56282  13.725   4.361  13.898
52215W        W56283  13.525   4.299  12.168
52216W        W56284  13.918   5.433  14.572
52217W        W56285  11.658   7.009  12.558
52218W        W56286  12.316   4.726  11.544
52219W        W56287  11.885   4.010  14.208
52220W        W56288  13.937   4.494  11.889
52221W        W56289  14.304   4.976  11.834
52222W        W56290  12.047   7.193  14.305
52223W        W56291  11.973   3.729  11.540
52224W        W56292  14.294   4.263  12.575
52225W        W56293  14.444   6.512  11.020
52226W        W56294  11.351   5.715  12.722
52227W        W56295  13.268   4.302  10.952
52228W        W56296  14.402   6.634  12.672
52229W        W56297  14.441   3.828  13.422
52230W        W56298  12.886   5.040  13.976
52231W        W56299  12.979   6.379  11.679
52232W        W56300  13.379   5.673  14.419
52233W        W56301  13.053   3.650  12.728
52234W        W56302  11.665   4.553  12.791
52235W        W56303  11.219   5.753  13.565
52236W        W56304  13.078   6.946  12.271
52237W        W56305  14.272   4.543  13.143
52238W        W56306  12.909   6.890  13.910
52239W        W56307  14.252   5.949  11.115
52240W        W56308  12.687   5.432  12.176
52241W        W56309  14.539   3.943  13.917
52242W        W56310  12.688   5.778  13.511
52243W        W56311  12.905   4.664  12.956
52244W        W56312  13.757   4.962  11.794
52245W        W56313  14.044   4.695  11.436
52246W        W56314  13.853   6.735  11.825
52247W        W56315  13.687   6.338  12.621
52248W        W56316  13.583   5.417  11.599
52249W        W56317  13.016   5.627  12.585
52250W        W56318  13.897   5.415  12.652
52251W        W56319  11.272   4.430  13.076
52252W        W56320  14.050   5.482  13.903
52253W        W56321  14.401   7.100  13.049
52254W        W56322  12.331   6.544  12.451
52255W        W56323  13.338   7.077  13.775
52256W        W56324  13.332   4.407  13.539
52257W        W56325  12.539   7.115  13.600
52258W        W56326  14.236   4.069  12.066
52259W        W56327  14.027   5.388  13.367
52260W        W56328  11.010   4.709  13.405
52261W        W56329  13.870   4.504  12.423
52262W        W56330  14.281   4.655  14.200
52263W        W56331  13.166   6.354  12.418
52264W        W56332  12.422   6.945  12.031
52265W        W56333  11.537   4.125  11.289
52266W        W56334  12.641   3.779  13.099
52267W        W56335  11.669   6.899  10.947
52268W        W56336  12.043   5.365  11.698
52269W        W56337  12.697   5.994  14.011
52270W        W56338  12.527   4.352  12.001
52271W        W56339  13.883   3.949  12.429
52272W        W56340  13.603   7.231  12.757
52273W        W56341  13.015   6.879  13.097
52274W        W56342  12.411   5.916  13.058
52275W        W56343  14.181   6.639  13.184
52276W        W56344  11.875   4.142  11.953
52277W        W56345  12.397   6.439  12.913
52278W        W56346  11.880   4.370  10.978
52279W        W56347  12.681   4.979  13.372
52280W        W56348  13.529   3.845  13.242
52281W        W56349  10.949   5.688  13.127
52282W        W56350  12.653   5.506  11.285
52283W        W56351  11.921   3.821  11.055
52284W        W56352  12.659   4.902  12.106
52285W        W56353  13.629   3.878  13.805
52286W        W56354  12.217   5.890  13.914
52287W        W56355  13.021   5.672  14.131
52288W        W56356  13.638   5.702  14.024
52289W        W56357  12.922   3.842  14.529
52290W        W56358  12.144   4.458  12.922
52291W        W56359  11.570   4.414  12.320
52292W        W56360  11.356   7.126  11.996
52293W        W56361  12.688   6.456  14.121
52294W        W56362  11.723   5.941  11.480
52295W        W56363  13.403   5.326  12.701
52296W        W56364  13.683   5.125  13.100
52297W        W56365  12.888   5.799  13.034
52298W        W56366  13.358   6.173  11.166
52299W        W56367  13.030   4.194  12.494
52300W        W56368  14.509   4.472  11.762
52301W        W56369  11.003   7.061  13.793
52302W        W56370  11.420   6.287  13.325
52303W        W56371  10.987   7.133  11.557
52304W        W56372  12.886   4.403  13.363
52305W        W56373  12.249   6.426  11.212
52306W        W56374  14.154   6.808  11.398
52307W        W56375  13.129   5.461  11.412
52308W        W56376  11.972   4.652  11.929
52309W        W56377  12.804   4.562  10.981
52310W        W56378  13.388   6.127  14.159
52311W        W56379  13.741   4.033  11.776
52312W        W56380  11.071   3.881  11.224
52313W        W56381  12.357   6.200  13.514
52314W        W56382  12.156   6.116  12.606
52315W        W56383  11.898   6.068  11.004
52316W        W56384  11.139   6.309  11.772
52317W        W56385  11.643   5.379  14.214
52318W        W56386  12.347   3.939  14.400
52319W        W56387  13.056   4.081  13.756
52320W        W56388  12.251   3.849  12.037
52321W        W56389  13.310   3.926  11.542
52322W        W56390  11.255   3.858  13.119
52323W        W56391  11.303   4.821  12.489
52324W        W56392  13.992   3.929  12.895
52325W        W56393  11.414   4.427  11.709
52326W        W56394  13.985   4.115  13.325
52327W        W56395  14.381   5.318  11.010
52328W        W56396  11.673   4.076  12.829
52329W        W56397  12.787   4.648  13.769
52330W        W56398  10.935   4.338  11.247
52331W        W56399  11.721   5.727  13.808
52332W        W56400  13.079   5.125  12.987
52333W        W56401  12.946   7.204  11.283
52334W        W56402  11.092   5.711  10.980
52335W        W56403  11.827   6.122  14.106
52336W        W56404  11.348   5.289  13.737
52337W        W56405  12.339   5.394  13.531
52338W        W56406  14.107   3.753  13.793
52339W        W56407  14.505   5.363  13.784
52340W        W56408  14.493   5.563  11.470
52341W        W56409  13.356   5.895  11.569
52342W        W56410  13.830   7.195  11.264
52343W        W56411  13.007   5.185  14.406
52344W        W56412  11.337   6.152  14.446
52345W        W56413  14.543   4.074  14.398
52346W        W56414  14.261   5.002  13.019
52347W        W56415  12.569   7.132  14.496
52348W        W56416  12.424   3.761  11.223
52349W        W56417  13.963   6.360  11.166
52350W        W56418  11.732   4.453  14.052
52351W        W56419  12.166   6.447  13.914
52352W        W56420  14.292   4.438  13.712
52353W        W56421  13.503   7.097  11.680
52354W        W56422  13.742   5.716  13.047
52355W        W56423  11.992   4.132  13.714
52356W        W56424  12.461   5.201  14.471
52357W        W56425  11.964   6.380  11.665
52358W        W56426  13.719   5.878  11.929
52359W        W56427  11.487   4.504  13.653
52360W        W56428  12.816   6.566  12.117
52361W        W56429  14.566   5.126  12.298
52362W        W56430  12.788   3.759  14.017
52363W        W56431  13.568   6.464  13.096
52364W        W56432  13.871   6.808  12.804
52365W        W56433  13.090   6.610  11.232
52366W        W56434  11.100   6.502  14.074
52367W        W56435  11.843   4.494  13.312
52368W        W56436  11.813   3.842  12.422
52369W        W56437  13.434   4.684  13.114
52370W        W56438  12.232   5.855  11.314
52371W        W56439  14.230   5.797  12.813
52372W        W56440  11.557   6.555  14.236
52373W        W56441  13.944   7.237  12.033
52374W        W56442  12.043   4.257  12.478
52375W        W56443  11.812   5.750  12.568
52376W        W56444  12.125   7.161  13.318
52377W        W56445  14.192   7.257  14.350
52378W        W56446  13.351   5.445  13.283
52379W        W56447  11.200   5.243  11.198
52380W        W56448  14.334   6.901  11.895
52381W        W56449  14.171   4.225  11.514
52382W        W56450  12.310   3.744  13.917
52383W        W56451  14.016   6.546  12.375
52384W        W56452  14.045   5.102  12.280
52385W        W56453  12.162   4.775  12.496
52386W        W56454  12.407   5.037  13.820
52387W        W56455  13.518   6.190  13.683
52388W        W56456  12.168   4.644  13.795
52389W        W56457  12.147   7.110  12.411
52390W        W56458  11.464   7.069  14.045
52391W        W56459  11.576   6.430  11.175
52392W        W56460  14.093   6.188  11.985
52393W        W56461  11.697   4.980  13.871
52394W        W56462  14.470   4.910  11.352
52395W        W56463  12.215   5.967  11.823
52396W        W56464  13.314   5.349  13.904
52397W        W56465  13.205   4.977  13.448
52398W        W56466  11.765   5.349  13.477
52399W        W56467  13.975   7.237  13.306
52400W        W56468  13.766   3.871  14.300
52401W        W56469  11.430   4.021  13.887
52402W        W56470  11.769   5.044  12.940
52403W        W56471  12.138   4.858  11.062
52404W        W56472  10.941   6.617  13.607
52405W        W56473  12.526   5.326  13.050
52406W        W56474  12.349   4.351  11.155
52407W        W56475  11.484   5.167  11.936
52408W        W56476  11.255   7.019  13.373
52409W        W56477  14.050   5.245  11.481
52410W        W56478  14.145   4.161  14.167
52411W        W56479  13.581   6.370  12.130
52412W        W56480  11.179   5.294  14.307
52413W        W56481  14.145   3.758  11.603
52414W        W56482  13.665   6.233  11.614
52415W        W56483  12.567   5.291  11.699
52416W        W56484  13.754   4.095  11.222
52417W        W56485  13.819   4.702  13.408
52418W        W56486  11.528   5.295  12.615
52419W        W56487  11.822   6.234  12.264
52420W        W56488  13.585   4.854  12.229
52421W        W56489  12.608   4.233  12.925
52422W        W56490  14.570   6.144  13.436
52423W        W56491  14.488   4.131  12.997
52424W        W56492  11.027   6.961  12.373
52425W        W56493  11.536   6.148  11.909
52426W        W56494  11.451   3.765  14.462
52427W        W56495  12.570   6.618  14.564
52428W        W56496  14.325   5.586  12.354
52429W        W56497  13.679   5.763  11.234
52430W        W56498  12.974   7.284  13.446
52431W        W56499  13.831   6.006  14.483
52432W        W56500  12.646   3.716  11.763
52433W        W56501  13.359   4.585  12.622
52434W        W56502  11.045   6.172  12.954
52435W        W56503  12.298   4.134  11.595
52436W        W56504  12.102   5.618  14.444
52437W        W56505  13.096   4.599  12.158
52438W        W56506  13.301   6.009  13.280
52439W        W56507  11.455   6.614  13.715
52440W        W56508  12.046   6.597  14.438
52441W        W56509  11.897   4.394  11.452
52442W        W56510  13.414   4.536  11.777
52443W        W56511  13.372   6.644  14.014
52444W        W56512  12.057   5.236  12.613
52445W        W56513  11.712   6.934  13.478
52446W        W56514  14.457   7.051  11.079
52447W        W56515  11.320   5.723  14.075
52448W        W56516  13.315   5.985  12.763
52449W        W56517  11.751   5.634  12.005
52450W        W56518  12.122   6.641  13.400
52451W        W56519  12.500   4.060  12.441
52452W        W56520  11.111   6.044  11.371
52453W        W56521  12.630   4.995  11.241
52454W        W56522  11.276   5.544  12.260
52455W        W56523  12.566   4.186  13.724
52456W        W56524  14.238   3.895  11.151
52457W        W56525  14.331   5.641  14.250
52458W        W56526  12.985   6.898  14.402
52459W        W56527  14.543   5.992  13.924
52460W        W56528  13.951   6.790  14.535
52461W        W56529  11.690   7.246  13.013
52462W        W56530  14.549   5.868  11.887
52463W        W56531  13.079   5.135  12.400
52464W        W56532  12.846   3.747  12.290
52465W        W56533  11.905   6.731  12.127
52466W        W56534  12.404   4.472  13.352
52467W        W56535  12.104   3.841  12.821
52468W        W56536  11.167   6.663  11.369
52469W        W56537  12.983   6.027  12.087
52470W        W56538  11.858   6.822  13.966
52471W        W56539  11.335   5.645  11.662
52472W        W56540  11.220   4.188  12.661
52473W        W56541  12.768   6.153  12.718
52474W        W56542  11.020   4.007  11.738
52475W        W56543  13.684   5.213  13.665
52476W        W56544  13.561   4.599  11.237
52477W        W56545  14.078   6.271  12.885
52478W        W56546  12.739   6.755  12.716
52479W        W56547  12.151   6.859  11.627
52480W        W56548  13.433   3.762  11.057
52481W        W56549  11.233   7.022  12.798
52482W        W56550  13.430   4.780  14.433
52483W        W56551  11.413   4.310  14.432
52484W        W56552  11.144   4.910  11.765
52485W        W56553  11.835   4.899  11.490
52486W        W56554  13.598   5.226  14.307
52487W        W56555  11.941   5.507  13.016
52488W        W56556  13.415   3.793  12.136
52489W        W56557  12.546   7.224  12.639
52490W        W56558  13.760   6.686  13.576
52491W        W56559  13.344   6.835  12.687
52492W        W56560  13.363   5.815  12.281
52493W        W56561  12.825   4.040  11.352
52494W        W56562  14.506   3.668  12.074
52495W        W56563  12.194   5.303  11.237
52496W        W56564  14.360   4.640  12.227
52497W        W56565  13.052   5.810  11.104
52498W        W56566  13.988   6.010  13.852
52499W        W56567  13.642   6.711  11.319
52500W        W56568  12.257   4.386  14.225
52501W        W56569  12.077   4.970  13.466
52502W        W56570  14.169   6.465  13.743
52503W        W56571  13.269   4.415  14.120
52504W        W56572  11.113   4.886  13.897
52505W        W56573  12.873   5.363  13.623
52506W        W56574  11.230   6.121  12.280
52507W        W56575  11.377   5.418  13.170
52508W        W56576  13.694   5.704  13.520
52509W        W56577  13.466   7.084  14.331
52510W        W56578  13.362   4.823  13.884
52511W        W56579  13.639   6.877  12.289
52512W        W56580  12.641   6.597  13.612
52513W        W56581  12.126   6.952  12.881
52514W        W56582  13.931   6.123  13.300
52515W        W56583  12.981   6.195  14.437
52516W        W56584  11.586   6.148  12.776
52517W        W56585  13.932   5.907  12.421
52518W        W56586  13.573   6.973  13.172
52519W        W56587  11.551   6.702  13.042
52520W        W56588  12.572   4.754  14.252
52521W        W56589  13.023   6.920  11.763
52522W        W56590  12.331   6.175  14.401
52523W        W56591  12.457   6.413  11.778
52524W        W56592  11.678   5.153  11.037
52525W        W56593  11.017   7.239  17.936
52526W        W56594  11.393   6.132  17.459
52527W        W56595  14.098   5.862  15.229
52528W        W56596  14.228   6.947  17.256
52529W        W56597  12.146   6.938  14.782
52530W        W56598  12.229   5.090  15.765
52531W        W56599  11.744   4.938  15.929
52532W        W56600  12.735   5.753  15.363
52533W        W56601  12.410   6.845  17.718
52534W        W56602  11.059   4.406  17.681
52535W        W56603  11.821   3.686  17.483
52536W        W56604  13.515   4.074  16.370
52537W        W56605  13.164   4.945  14.940
52538W        W56606  13.734   4.379  18.031
52539W        W56607  11.100   4.171  17.156
52540W        W56608  11.199   6.790  18.177
52541W        W56609  12.721   6.180  14.909
52542W        W56610  11.153   4.963  16.602
52543W        W56611  12.046   4.854  17.839
52544W        W56612  14.505   4.713  16.338
52545W        W56613  14.269   5.756  17.197
52546W        W56614  12.577   5.089  16.224
52547W        W56615  13.123   6.428  16.593
52548W        W56616  11.623   5.862  16.825
52549W        W56617  10.982   5.390  16.396
52550W        W56618  12.018   5.362  17.588
52551W        W56619  14.289   5.145  17.842
52552W        W56620  11.905   6.589  16.287
52553W        W56621  13.026   6.278  17.421
52554W        W56622  12.246   4.918  16.646
52555W        W56623  12.538   5.702  16.289
52556W        W56624  12.614   5.795  18.147
52557W        W56625  12.595   5.511  17.625
52558W        W56626  11.004   4.902  18.147
52559W        W56627  13.836   6.437  17.746
52560W        W56628  11.417   4.019  15.744
52561W        W56629  11.944   6.277  16.743
52562W        W56630  14.407   6.060  16.033
52563W        W56631  13.820   4.460  16.600
52564W        W56632  14.105   4.413  14.695
52565W        W56633  14.570   5.214  17.001
52566W        W56634  12.537   6.921  16.754
52567W        W56635  14.311   6.387  15.192
52568W        W56636  11.440   7.173  14.946
52569W        W56637  11.833   7.219  15.622
52570W        W56638  11.630   3.973  17.048
52571W        W56639  14.253   4.991  17.323
52572W        W56640  13.658   5.413  15.782
52573W        W56641  13.624   5.101  14.809
52574W        W56642  12.832   6.245  16.949
52575W        W56643  12.638   4.575  16.148
52576W        W56644  13.238   6.662  17.142
52577W        W56645  14.109   5.453  15.564
52578W        W56646  13.011   4.111  15.580
52579W        W56647  11.668   6.805  15.263
52580W        W56648  11.039   4.304  15.862
52581W        W56649  13.825   4.911  16.336
52582W        W56650  11.283   6.528  16.251
52583W        W56651  12.624   6.878  15.121
52584W        W56652  14.016   4.904  14.585
52585W        W56653  11.039   6.662  16.749
52586W        W56654  11.830   6.234  17.229
52587W        W56655  12.203   5.594  15.848
52588W        W56656  12.225   3.999  16.941
52589W        W56657  14.454   3.761  16.238
52590W        W56658  11.673   5.633  14.706
52591W        W56659  11.328   4.666  14.885
52592W        W56660  11.390   6.622  15.679
52593W        W56661  12.521   6.105  15.927
52594W        W56662  13.853   6.964  17.641
52595W        W56663  12.779   4.606  15.325
52596W        W56664  14.162   7.004  16.097
52597W        W56665  13.839   4.857  17.695
52598W        W56666  14.552   6.513  15.829
52599W        W56667  13.179   5.805  17.313
52600W        W56668  10.945   5.356  15.519
52601W        W56669  12.056   5.771  17.092
52602W        W56670  13.260   5.035  15.470
52603W        W56671  13.137   5.525  15.574
52604W        W56672  11.480   4.945  17.048
52605W        W56673  11.465   4.821  17.970
52606W        W56674  11.355   3.738  16.129
52607W        W56675  13.123   4.085  16.690
52608W        W56676  12.771   4.270  17.853
52609W        W56677  13.126   4.419  15.031
52610W        W56678  14.309   6.812  17.785
52611W        W56679  13.276   3.893  17.824
52612W        W56680  14.295   6.194  17.946
52613W        W56681  13.725   4.361  17.542
52614W        W56682  13.525   4.299  15.812
52615W        W56683  13.918   5.433  18.216
52616W        W56684  11.658   7.009  16.202
52617W        W56685  12.316   4.726  15.188
52618W        W56686  11.885   4.010  17.852
52619W        W56687  13.937   4.494  15.533
52620W        W56688  14.304   4.976  15.478
52621W        W56689  11.973   3.729  15.184
52622W        W56690  14.294   4.263  16.219
52623W        W56691  14.444   6.512  14.664
52624W        W56692  11.351   5.715  16.366
52625W        W56693  13.268   4.302  14.596
52626W        W56694  14.402   6.634  16.316
52627W        W56695  14.441   3.828  17.066
52628W        W56696  12.886   5.040  17.620
52629W        W56697  12.979   6.379  15.323
52630W        W56698  13.379   5.673  18.063
52631W        W56699  13.053   3.650  16.372
52632W        W56700  11.665   4.553  16.435
52633W        W56701  11.219   5.753  17.209
52634W        W56702  13.078   6.946  15.915
52635W        W56703  14.272   4.543  16.787
52636W        W56704  12.909   6.890  17.554
52637W        W56705  14.252   5.949  14.759
52638W        W56706  12.687   5.432  15.820
52639W        W56707  14.539   3.943  17.561
52640W        W56708  12.688   5.778  17.155
52641W        W56709  13.757   4.962  15.438
52642W        W56710  14.044   4.695  15.080
52643W        W56711  13.853   6.735  15.469
52644W        W56712  13.687   6.338  16.265
52645W        W56713  13.583   5.417  15.243
52646W        W56714  13.016   5.627  16.229
52647W        W56715  13.897   5.415  16.296
52648W        W56716  11.272   4.430  16.720
52649W        W56717  14.050   5.482  17.547
52650W        W56718  14.401   7.100  16.693
52651W        W56719  12.331   6.544  16.095
52652W        W56720  13.338   7.077  17.419
52653W        W56721  13.332   4.407  17.183
52654W        W56722  12.539   7.115  17.244
52655W        W56723  14.236   4.069  15.710
52656W        W56724  14.027   5.388  17.011
52657W        W56725  11.010   4.709  17.049
52658W        W56726  13.870   4.504  16.067
52659W        W56727  14.281   4.655  17.844
52660W        W56728  13.166   6.354  16.062
52661W        W56729  12.422   6.945  15.675
52662W        W56730  11.537   4.125  14.933
52663W        W56731  12.641   3.779  16.743
52664W        W56732  11.669   6.899  14.591
52665W        W56733  12.043   5.365  15.342
52666W        W56734  12.697   5.994  17.655
52667W        W56735  12.527   4.352  15.645
52668W        W56736  13.883   3.949  16.073
52669W        W56737  13.603   7.231  16.401
52670W        W56738  13.015   6.879  16.741
52671W        W56739  12.411   5.916  16.702
52672W        W56740  14.181   6.639  16.828
52673W        W56741  11.875   4.142  15.597
52674W        W56742  12.397   6.439  16.557
52675W        W56743  11.880   4.370  14.622
52676W        W56744  12.681   4.979  17.016
52677W        W56745  13.529   3.845  16.886
52678W        W56746  10.949   5.688  16.771
52679W        W56747  12.653   5.506  14.929
52680W        W56748  11.921   3.821  14.699
52681W        W56749  12.659   4.902  15.750
52682W        W56750  13.629   3.878  17.449
52683W        W56751  12.217   5.890  17.558
52684W        W56752  13.021   5.672  17.775
52685W        W56753  13.638   5.702  17.668
52686W        W56754  12.922   3.842  18.173
52687W        W56755  12.144   4.458  16.566
52688W        W56756  11.570   4.414  15.964
52689W        W56757  11.356   7.126  15.640
52690W        W56758  12.688   6.456  17.765
52691W        W56759  11.723   5.941  15.124
52692W        W56760  13.403   5.326  16.345
52693W        W56761  13.683   5.125  16.744
52694W        W56762  12.888   5.799  16.678
52695W        W56763  13.358   6.173  14.810
52696W        W56764  13.030   4.194  16.138
52697W        W56765  14.509   4.472  15.406
52698W        W56766  11.003   7.061  17.437
52699W        W56767  11.420   6.287  16.969
52700W        W56768  10.987   7.133  15.201
52701W        W56769  12.886   4.403  17.007
52702W        W56770  12.249   6.426  14.856
52703W        W56771  14.154   6.808  15.042
52704W        W56772  13.129   5.461  15.056
52705W        W56773  11.972   4.652  15.573
52706W        W56774  12.804   4.562  14.625
52707W        W56775  13.741   4.033  15.420
52708W        W56776  11.071   3.881  14.868
52709W        W56777  12.357   6.200  17.158
52710W        W56778  12.156   6.116  16.250
52711W        W56779  11.898   6.068  14.648
52712W        W56780  11.139   6.309  15.416
52713W        W56781  11.643   5.379  17.858
52714W        W56782  12.347   3.939  18.044
52715W        W56783  13.056   4.081  17.400
52716W        W56784  12.251   3.849  15.681
52717W        W56785  13.310   3.926  15.186
52718W        W56786  11.255   3.858  16.763
52719W        W56787  11.303   4.821  16.133
52720W        W56788  13.992   3.929  16.539
52721W        W56789  11.414   4.427  15.353
52722W        W56790  13.985   4.115  16.969
52723W        W56791  14.381   5.318  14.654
52724W        W56792  11.673   4.076  16.473
52725W        W56793  12.787   4.648  17.413
52726W        W56794  10.935   4.338  14.891
52727W        W56795  11.721   5.727  17.452
52728W        W56796  12.946   7.204  14.927
52729W        W56797  11.092   5.711  14.624
52730W        W56798  11.348   5.289  17.381
52731W        W56799  12.339   5.394  17.175
52732W        W56800  14.107   3.753  17.437
52733W        W56801  14.505   5.363  17.428
52734W        W56802  14.493   5.563  15.114
52735W        W56803  13.356   5.895  15.213
52736W        W56804  13.830   7.195  14.908
52737W        W56805  13.007   5.185  18.050
52738W        W56806  11.337   6.152  18.090
52739W        W56807  14.543   4.074  18.042
52740W        W56808  14.261   5.002  16.663
52741W        W56809  12.424   3.761  14.867
52742W        W56810  13.963   6.360  14.810
52743W        W56811  11.732   4.453  17.696
52744W        W56812  12.166   6.447  17.558
52745W        W56813  14.292   4.438  17.356
52746W        W56814  13.503   7.097  15.324
52747W        W56815  13.742   5.716  16.691
52748W        W56816  11.992   4.132  17.358
52749W        W56817  12.461   5.201  18.115
52750W        W56818  11.964   6.380  15.309
52751W        W56819  13.719   5.878  15.573
52752W        W56820  11.487   4.504  17.297
52753W        W56821  12.816   6.566  15.761
52754W        W56822  14.566   5.126  15.942
52755W        W56823  12.788   3.759  17.661
52756W        W56824  13.568   6.464  16.740
52757W        W56825  13.871   6.808  16.448
52758W        W56826  13.090   6.610  14.876
52759W        W56827  11.100   6.502  17.718
52760W        W56828  11.843   4.494  16.956
52761W        W56829  11.813   3.842  16.066
52762W        W56830  13.434   4.684  16.758
52763W        W56831  12.232   5.855  14.958
52764W        W56832  14.230   5.797  16.457
52765W        W56833  11.557   6.555  17.880
52766W        W56834  13.944   7.237  15.677
52767W        W56835  12.043   4.257  16.122
52768W        W56836  11.812   5.750  16.212
52769W        W56837  12.125   7.161  16.962
52770W        W56838  14.192   7.257  17.994
52771W        W56839  13.351   5.445  16.927
52772W        W56840  11.200   5.243  14.842
52773W        W56841  14.334   6.901  15.539
52774W        W56842  14.171   4.225  15.158
52775W        W56843  12.310   3.744  17.561
52776W        W56844  14.016   6.546  16.019
52777W        W56845  14.045   5.102  15.924
52778W        W56846  12.162   4.775  16.140
52779W        W56847  12.407   5.037  17.464
52780W        W56848  13.518   6.190  17.327
52781W        W56849  12.168   4.644  17.439
52782W        W56850  12.147   7.110  16.055
52783W        W56851  11.464   7.069  17.689
52784W        W56852  11.576   6.430  14.819
52785W        W56853  14.093   6.188  15.629
52786W        W56854  11.697   4.980  17.515
52787W        W56855  14.470   4.910  14.996
52788W        W56856  12.215   5.967  15.467
52789W        W56857  13.314   5.349  17.548
52790W        W56858  11.765   5.349  17.121
52791W        W56859  13.975   7.237  16.950
52792W        W56860  13.766   3.871  17.944
52793W        W56861  11.430   4.021  17.531
52794W        W56862  11.769   5.044  16.584
52795W        W56863  12.138   4.858  14.706
52796W        W56864  10.941   6.617  17.251
52797W        W56865  12.349   4.351  14.799
52798W        W56866  11.484   5.167  15.580
52799W        W56867  11.255   7.019  17.017
52800W        W56868  14.050   5.245  15.125
52801W        W56869  14.145   4.161  17.811
52802W        W56870  13.581   6.370  15.774
52803W        W56871  11.179   5.294  17.951
52804W        W56872  14.145   3.758  15.247
52805W        W56873  13.665   6.233  15.258
52806W        W56874  12.567   5.291  15.343
52807W        W56875  13.754   4.095  14.866
52808W        W56876  13.819   4.702  17.052
52809W        W56877  11.528   5.295  16.259
52810W        W56878  11.822   6.234  15.908
52811W        W56879  13.585   4.854  15.873
52812W        W56880  12.608   4.233  16.569
52813W        W56881  14.570   6.144  17.080
52814W        W56882  14.488   4.131  16.641
52815W        W56883  11.027   6.961  16.017
52816W        W56884  11.536   6.148  15.553
52817W        W56885  11.451   3.765  18.106
52818W        W56886  12.570   6.618  18.208
52819W        W56887  14.325   5.586  15.998
52820W        W56888  13.679   5.763  14.878
52821W        W56889  12.974   7.284  17.090
52822W        W56890  12.646   3.716  15.407
52823W        W56891  13.359   4.585  16.266
52824W        W56892  11.045   6.172  16.598
52825W        W56893  12.298   4.134  15.239
52826W        W56894  12.102   5.618  18.088
52827W        W56895  13.096   4.599  15.802
52828W        W56896  13.301   6.009  16.924
52829W        W56897  11.455   6.614  17.359
52830W        W56898  11.897   4.394  15.096
52831W        W56899  13.414   4.536  15.421
52832W        W56900  12.057   5.236  16.257
52833W        W56901  11.712   6.934  17.122
52834W        W56902  14.457   7.051  14.723
52835W        W56903  11.320   5.723  17.719
52836W        W56904  13.315   5.985  16.407
52837W        W56905  11.751   5.634  15.649
52838W        W56906  12.122   6.641  17.044
52839W        W56907  12.500   4.060  16.085
52840W        W56908  11.111   6.044  15.015
52841W        W56909  12.630   4.995  14.885
52842W        W56910  11.276   5.544  15.904
52843W        W56911  12.566   4.186  17.368
52844W        W56912  14.238   3.895  14.795
52845W        W56913  14.331   5.641  17.894
52846W        W56914  12.985   6.898  18.046
52847W        W56915  14.543   5.992  17.568
52848W        W56916  13.951   6.790  18.179
52849W        W56917  11.690   7.246  16.657
52850W        W56918  14.549   5.868  15.531
52851W        W56919  13.079   5.135  16.044
52852W        W56920  12.846   3.747  15.934
52853W        W56921  11.905   6.731  15.771
52854W        W56922  12.404   4.472  16.996
52855W        W56923  12.104   3.841  16.465
52856W        W56924  11.167   6.663  15.013
52857W        W56925  12.983   6.027  15.731
52858W        W56926  11.858   6.822  17.610
52859W        W56927  11.335   5.645  15.306
52860W        W56928  11.220   4.188  16.305
52861W        W56929  12.768   6.153  16.362
52862W        W56930  11.020   4.007  15.382
52863W        W56931  13.561   4.599  14.881
52864W        W56932  14.078   6.271  16.529
52865W        W56933  12.739   6.755  16.360
52866W        W56934  12.151   6.859  15.271
52867W        W56935  13.433   3.762  14.701
52868W        W56936  11.233   7.022  16.442
52869W        W56937  13.430   4.780  18.077
52870W        W56938  11.413   4.310  18.076
52871W        W56939  11.144   4.910  15.409
52872W        W56940  11.835   4.899  15.134
52873W        W56941  13.598   5.226  17.951
52874W        W56942  11.941   5.507  16.660
52875W        W56943  13.415   3.793  15.780
52876W        W56944  12.546   7.224  16.283
52877W        W56945  13.760   6.686  17.220
52878W        W56946  13.344   6.835  16.331
52879W        W56947  13.363   5.815  15.925
52880W        W56948  12.825   4.040  14.996
52881W        W56949  14.506   3.668  15.718
52882W        W56950  12.194   5.303  14.881
52883W        W56951  14.360   4.640  15.871
52884W        W56952  13.052   5.810  14.748
52885W        W56953  13.988   6.010  17.496
52886W        W56954  13.642   6.711  14.963
52887W        W56955  12.257   4.386  17.869
52888W        W56956  12.077   4.970  17.110
52889W        W56957  14.169   6.465  17.387
52890W        W56958  13.269   4.415  17.764
52891W        W56959  11.113   4.886  17.541
52892W        W56960  12.873   5.363  17.267
52893W        W56961  11.230   6.121  15.924
52894W        W56962  11.377   5.418  16.814
52895W        W56963  13.694   5.704  17.164
52896W        W56964  13.466   7.084  17.975
52897W        W56965  13.362   4.823  17.528
52898W        W56966  13.639   6.877  15.933
52899W        W56967  12.641   6.597  17.256
52900W        W56968  12.126   6.952  16.525
52901W        W56969  13.931   6.123  16.944
52902W        W56970  12.981   6.195  18.081
52903W        W56971  11.586   6.148  16.420
52904W        W56972  13.932   5.907  16.065
52905W        W56973  13.573   6.973  16.816
52906W        W56974  11.551   6.702  16.686
52907W        W56975  12.572   4.754  17.896
52908W        W56976  13.023   6.920  15.407
52909W        W56977  12.331   6.175  18.045
52910W        W56978  12.457   6.413  15.422
52911W        W56979  11.678   5.153  14.681
52912W        W56980  11.017   7.239  21.580
52913W        W56981  14.098   5.862  18.873
52914W        W56982  14.228   6.947  20.900
52915W        W56983  11.744   4.938  19.573
52916W        W56984  12.735   5.753  19.007
52917W        W56985  12.410   6.845  21.362
52918W        W56986  11.059   4.406  21.325
52919W        W56987  11.821   3.686  21.127
52920W        W56988  13.515   4.074  20.014
52921W        W56989  13.164   4.945  18.584
52922W        W56990  13.734   4.379  21.675
52923W        W56991  11.100   4.171  20.800
52924W        W56992  11.199   6.790  21.821
52925W        W56993  12.721   6.180  18.553
52926W        W56994  11.153   4.963  20.246
52927W        W56995  12.046   4.854  21.483
52928W        W56996  14.505   4.713  19.982
52929W        W56997  14.269   5.756  20.841
52930W        W56998  12.577   5.089  19.868
52931W        W56999  13.123   6.428  20.237
52932W        W57000  10.982   5.390  20.040
52933W        W57001  12.018   5.362  21.232
52934W        W57002  14.289   5.145  21.486
52935W        W57003  11.905   6.589  19.931
52936W        W57004  13.026   6.278  21.065
52937W        W57005  12.246   4.918  20.290
52938W        W57006  12.538   5.702  19.933
52939W        W57007  13.535   6.475  21.781
52940W        W57008  12.614   5.795  21.791
52941W        W57009  12.595   5.511  21.269
52942W        W57010  11.004   4.902  21.791
52943W        W57011  13.836   6.437  21.390
52944W        W57012  11.417   4.019  19.388
52945W        W57013  11.944   6.277  20.387
52946W        W57014  14.407   6.060  19.677
52947W        W57015  13.820   4.460  20.244
52948W        W57016  14.105   4.413  18.339
52949W        W57017  14.570   5.214  20.645
52950W        W57018  12.537   6.921  20.398
52951W        W57019  14.311   6.387  18.836
52952W        W57020  11.833   7.219  19.266
52953W        W57021  11.630   3.973  20.692
52954W        W57022  14.253   4.991  20.967
52955W        W57023  13.658   5.413  19.426
52956W        W57024  13.624   5.101  18.453
52957W        W57025  12.832   6.245  20.593
52958W        W57026  12.638   4.575  19.792
52959W        W57027  13.238   6.662  20.786
52960W        W57028  14.109   5.453  19.208
52961W        W57029  13.011   4.111  19.224
52962W        W57030  11.668   6.805  18.907
52963W        W57031  11.039   4.304  19.506
52964W        W57032  13.825   4.911  19.980
52965W        W57033  11.283   6.528  19.895
52966W        W57034  12.624   6.878  18.765
52967W        W57035  14.016   4.904  18.229
52968W        W57036  11.039   6.662  20.393
52969W        W57037  11.830   6.234  20.873
52970W        W57038  12.203   5.594  19.492
52971W        W57039  12.225   3.999  20.585
52972W        W57040  14.454   3.761  19.882
52973W        W57041  11.673   5.633  18.350
52974W        W57042  11.328   4.666  18.529
52975W        W57043  11.390   6.622  19.323
52976W        W57044  12.521   6.105  19.571
52977W        W57045  13.853   6.964  21.285
52978W        W57046  12.779   4.606  18.969
52979W        W57047  14.162   7.004  19.741
52980W        W57048  13.839   4.857  21.339
52981W        W57049  14.552   6.513  19.473
52982W        W57050  13.179   5.805  20.957
52983W        W57051  10.945   5.356  19.163
52984W        W57052  12.056   5.771  20.736
52985W        W57053  13.260   5.035  19.114
52986W        W57054  13.137   5.525  19.218
52987W        W57055  11.480   4.945  20.692
52988W        W57056  11.465   4.821  21.614
52989W        W57057  11.355   3.738  19.773
52990W        W57058  13.123   4.085  20.334
52991W        W57059  12.771   4.270  21.497
52992W        W57060  13.126   4.419  18.675
52993W        W57061  14.309   6.812  21.429
52994W        W57062  13.276   3.893  21.468
52995W        W57063  14.295   6.194  21.590
52996W        W57064  13.725   4.361  21.186
52997W        W57065  13.525   4.299  19.456
52998W        W57066  13.918   5.433  21.860
52999W        W57067  11.658   7.009  19.846
53000W        W57068  12.316   4.726  18.832
53001W        W57069  11.885   4.010  21.496
53002W        W57070  13.937   4.494  19.177
53003W        W57071  14.304   4.976  19.122
53004W        W57072  12.047   7.193  21.593
53005W        W57073  11.973   3.729  18.828
53006W        W57074  14.294   4.263  19.863
53007W        W57075  14.444   6.512  18.308
53008W        W57076  13.268   4.302  18.240
53009W        W57077  14.402   6.634  19.960
53010W        W57078  14.441   3.828  20.710
53011W        W57079  12.886   5.040  21.264
53012W        W57080  12.979   6.379  18.967
53013W        W57081  13.379   5.673  21.707
53014W        W57082  13.053   3.650  20.016
53015W        W57083  11.665   4.553  20.079
53016W        W57084  11.219   5.753  20.853
53017W        W57085  13.078   6.946  19.559
53018W        W57086  14.272   4.543  20.431
53019W        W57087  12.909   6.890  21.198
53020W        W57088  14.252   5.949  18.403
53021W        W57089  12.687   5.432  19.464
53022W        W57090  14.539   3.943  21.205
53023W        W57091  12.688   5.778  20.799
53024W        W57092  12.905   4.664  20.244
53025W        W57093  13.757   4.962  19.082
53026W        W57094  14.044   4.695  18.724
53027W        W57095  13.853   6.735  19.113
53028W        W57096  13.687   6.338  19.909
53029W        W57097  13.583   5.417  18.887
53030W        W57098  13.016   5.627  19.873
53031W        W57099  13.897   5.415  19.940
53032W        W57100  11.272   4.430  20.364
53033W        W57101  14.050   5.482  21.191
53034W        W57102  14.401   7.100  20.337
53035W        W57103  12.331   6.544  19.739
53036W        W57104  13.338   7.077  21.063
53037W        W57105  13.332   4.407  20.827
53038W        W57106  12.539   7.115  20.888
53039W        W57107  14.236   4.069  19.354
53040W        W57108  14.027   5.388  20.655
53041W        W57109  11.010   4.709  20.693
53042W        W57110  13.870   4.504  19.711
53043W        W57111  14.281   4.655  21.488
53044W        W57112  13.166   6.354  19.706
53045W        W57113  12.422   6.945  19.319
53046W        W57114  11.537   4.125  18.577
53047W        W57115  12.641   3.779  20.387
53048W        W57116  12.043   5.365  18.986
53049W        W57117  12.697   5.994  21.299
53050W        W57118  12.527   4.352  19.289
53051W        W57119  13.883   3.949  19.717
53052W        W57120  13.603   7.231  20.045
53053W        W57121  13.015   6.879  20.385
53054W        W57122  12.411   5.916  20.346
53055W        W57123  14.181   6.639  20.472
53056W        W57124  12.397   6.439  20.201
53057W        W57125  11.880   4.370  18.266
53058W        W57126  12.681   4.979  20.660
53059W        W57127  13.529   3.845  20.530
53060W        W57128  10.949   5.688  20.415
53061W        W57129  12.653   5.506  18.573
53062W        W57130  11.921   3.821  18.343
53063W        W57131  12.659   4.902  19.394
53064W        W57132  13.629   3.878  21.093
53065W        W57133  12.217   5.890  21.202
53066W        W57134  13.021   5.672  21.419
53067W        W57135  13.638   5.702  21.312
53068W        W57136  12.922   3.842  21.817
53069W        W57137  12.144   4.458  20.210
53070W        W57138  11.570   4.414  19.608
53071W        W57139  11.356   7.126  19.284
53072W        W57140  12.688   6.456  21.409
53073W        W57141  11.723   5.941  18.768
53074W        W57142  13.403   5.326  19.989
53075W        W57143  13.683   5.125  20.388
53076W        W57144  12.888   5.799  20.322
53077W        W57145  13.358   6.173  18.454
53078W        W57146  13.030   4.194  19.782
53079W        W57147  14.509   4.472  19.050
53080W        W57148  11.003   7.061  21.081
53081W        W57149  10.987   7.133  18.845
53082W        W57150  12.886   4.403  20.651
53083W        W57151  12.249   6.426  18.500
53084W        W57152  14.154   6.808  18.686
53085W        W57153  13.129   5.461  18.700
53086W        W57154  12.804   4.562  18.269
53087W        W57155  13.388   6.127  21.447
53088W        W57156  13.741   4.033  19.064
53089W        W57157  11.071   3.881  18.512
53090W        W57158  12.357   6.200  20.802
53091W        W57159  12.156   6.116  19.894
53092W        W57160  11.898   6.068  18.292
53093W        W57161  11.139   6.309  19.060
53094W        W57162  11.643   5.379  21.502
53095W        W57163  12.347   3.939  21.688
53096W        W57164  13.056   4.081  21.044
53097W        W57165  13.310   3.926  18.830
53098W        W57166  11.255   3.858  20.407
53099W        W57167  11.303   4.821  19.777
53100W        W57168  13.992   3.929  20.183
53101W        W57169  11.414   4.427  18.997
53102W        W57170  13.985   4.115  20.613
53103W        W57171  14.381   5.318  18.298
53104W        W57172  11.673   4.076  20.117
53105W        W57173  12.787   4.648  21.057
53106W        W57174  10.935   4.338  18.535
53107W        W57175  13.079   5.125  20.275
53108W        W57176  12.946   7.204  18.571
53109W        W57177  11.092   5.711  18.268
53110W        W57178  11.827   6.122  21.394
53111W        W57179  11.348   5.289  21.025
53112W        W57180  12.339   5.394  20.819
53113W        W57181  14.107   3.753  21.081
53114W        W57182  14.505   5.363  21.072
53115W        W57183  14.493   5.563  18.758
53116W        W57184  13.356   5.895  18.857
53117W        W57185  13.830   7.195  18.552
53118W        W57186  13.007   5.185  21.694
53119W        W57187  11.337   6.152  21.734
53120W        W57188  14.543   4.074  21.686
53121W        W57189  14.261   5.002  20.307
53122W        W57190  12.569   7.132  21.784
53123W        W57191  12.424   3.761  18.511
53124W        W57192  13.963   6.360  18.454
53125W        W57193  11.732   4.453  21.340
53126W        W57194  12.166   6.447  21.202
53127W        W57195  14.292   4.438  21.000
53128W        W57196  13.503   7.097  18.968
53129W        W57197  13.742   5.716  20.335
53130W        W57198  11.992   4.132  21.002
53131W        W57199  12.461   5.201  21.759
53132W        W57200  11.964   6.380  18.953
53133W        W57201  13.719   5.878  19.217
53134W        W57202  11.487   4.504  20.941
53135W        W57203  12.816   6.566  19.405
53136W        W57204  14.566   5.126  19.586
53137W        W57205  12.788   3.759  21.305
53138W        W57206  13.568   6.464  20.384
53139W        W57207  13.871   6.808  20.092
53140W        W57208  13.090   6.610  18.520
53141W        W57209  11.843   4.494  20.600
53142W        W57210  11.813   3.842  19.710
53143W        W57211  13.434   4.684  20.402
53144W        W57212  12.232   5.855  18.602
53145W        W57213  14.230   5.797  20.101
53146W        W57214  11.557   6.555  21.524
53147W        W57215  13.944   7.237  19.321
53148W        W57216  12.043   4.257  19.766
53149W        W57217  11.812   5.750  19.856
53150W        W57218  12.125   7.161  20.606
53151W        W57219  14.192   7.257  21.638
53152W        W57220  13.351   5.445  20.571
53153W        W57221  11.200   5.243  18.486
53154W        W57222  14.334   6.901  19.183
53155W        W57223  14.171   4.225  18.802
53156W        W57224  12.310   3.744  21.205
53157W        W57225  14.016   6.546  19.663
53158W        W57226  14.045   5.102  19.568
53159W        W57227  12.162   4.775  19.784
53160W        W57228  12.407   5.037  21.108
53161W        W57229  13.518   6.190  20.971
53162W        W57230  12.168   4.644  21.083
53163W        W57231  12.147   7.110  19.699
53164W        W57232  11.464   7.069  21.333
53165W        W57233  11.576   6.430  18.463
53166W        W57234  14.093   6.188  19.273
53167W        W57235  11.697   4.980  21.159
53168W        W57236  14.470   4.910  18.640
53169W        W57237  12.215   5.967  19.111
53170W        W57238  13.314   5.349  21.192
53171W        W57239  13.205   4.977  20.736
53172W        W57240  11.765   5.349  20.765
53173W        W57241  13.975   7.237  20.594
53174W        W57242  13.766   3.871  21.588
53175W        W57243  11.430   4.021  21.175
53176W        W57244  11.769   5.044  20.228
53177W        W57245  12.138   4.858  18.350
53178W        W57246  10.941   6.617  20.895
53179W        W57247  12.526   5.326  20.338
53180W        W57248  12.349   4.351  18.443
53181W        W57249  11.484   5.167  19.224
53182W        W57250  11.255   7.019  20.661
53183W        W57251  14.050   5.245  18.769
53184W        W57252  14.145   4.161  21.455
53185W        W57253  13.581   6.370  19.418
53186W        W57254  11.179   5.294  21.595
53187W        W57255  14.145   3.758  18.891
53188W        W57256  13.665   6.233  18.902
53189W        W57257  12.567   5.291  18.987
53190W        W57258  13.754   4.095  18.510
53191W        W57259  13.819   4.702  20.696
53192W        W57260  11.528   5.295  19.903
53193W        W57261  11.822   6.234  19.552
53194W        W57262  13.585   4.854  19.517
53195W        W57263  12.608   4.233  20.213
53196W        W57264  14.570   6.144  20.724
53197W        W57265  14.488   4.131  20.285
53198W        W57266  11.027   6.961  19.661
53199W        W57267  11.536   6.148  19.197
53200W        W57268  11.451   3.765  21.750
53201W        W57269  12.570   6.618  21.852
53202W        W57270  14.325   5.586  19.642
53203W        W57271  13.679   5.763  18.522
53204W        W57272  12.974   7.284  20.734
53205W        W57273  13.831   6.006  21.771
53206W        W57274  12.646   3.716  19.051
53207W        W57275  13.359   4.585  19.910
53208W        W57276  11.045   6.172  20.242
53209W        W57277  12.298   4.134  18.883
53210W        W57278  12.102   5.618  21.732
53211W        W57279  13.096   4.599  19.446
53212W        W57280  13.301   6.009  20.568
53213W        W57281  11.455   6.614  21.003
53214W        W57282  12.046   6.597  21.726
53215W        W57283  11.897   4.394  18.740
53216W        W57284  13.414   4.536  19.065
53217W        W57285  13.372   6.644  21.302
53218W        W57286  12.057   5.236  19.901
53219W        W57287  11.712   6.934  20.766
53220W        W57288  11.320   5.723  21.363
53221W        W57289  13.315   5.985  20.051
53222W        W57290  11.751   5.634  19.293
53223W        W57291  12.122   6.641  20.688
53224W        W57292  12.500   4.060  19.729
53225W        W57293  11.111   6.044  18.659
53226W        W57294  12.630   4.995  18.529
53227W        W57295  11.276   5.544  19.548
53228W        W57296  12.566   4.186  21.012
53229W        W57297  14.238   3.895  18.439
53230W        W57298  14.331   5.641  21.538
53231W        W57299  12.985   6.898  21.690
53232W        W57300  14.543   5.992  21.212
53233W        W57301  13.951   6.790  21.823
53234W        W57302  11.690   7.246  20.301
53235W        W57303  14.549   5.868  19.175
53236W        W57304  13.079   5.135  19.688
53237W        W57305  12.846   3.747  19.578
53238W        W57306  11.905   6.731  19.415
53239W        W57307  12.404   4.472  20.640
53240W        W57308  12.104   3.841  20.109
53241W        W57309  11.167   6.663  18.657
53242W        W57310  12.983   6.027  19.375
53243W        W57311  11.858   6.822  21.254
53244W        W57312  11.335   5.645  18.950
53245W        W57313  11.220   4.188  19.949
53246W        W57314  12.768   6.153  20.006
53247W        W57315  11.020   4.007  19.026
53248W        W57316  13.684   5.213  20.953
53249W        W57317  13.561   4.599  18.525
53250W        W57318  14.078   6.271  20.173
53251W        W57319  12.739   6.755  20.004
53252W        W57320  12.151   6.859  18.915
53253W        W57321  13.433   3.762  18.345
53254W        W57322  11.233   7.022  20.086
53255W        W57323  13.430   4.780  21.721
53256W        W57324  11.413   4.310  21.720
53257W        W57325  11.144   4.910  19.053
53258W        W57326  11.835   4.899  18.778
53259W        W57327  13.598   5.226  21.595
53260W        W57328  11.941   5.507  20.304
53261W        W57329  13.415   3.793  19.424
53262W        W57330  12.546   7.224  19.927
53263W        W57331  13.760   6.686  20.864
53264W        W57332  13.344   6.835  19.975
53265W        W57333  13.363   5.815  19.569
53266W        W57334  12.825   4.040  18.640
53267W        W57335  14.506   3.668  19.362
53268W        W57336  12.194   5.303  18.525
53269W        W57337  14.360   4.640  19.515
53270W        W57338  13.052   5.810  18.392
53271W        W57339  13.988   6.010  21.140
53272W        W57340  13.642   6.711  18.607
53273W        W57341  12.257   4.386  21.513
53274W        W57342  12.077   4.970  20.754
53275W        W57343  14.169   6.465  21.031
53276W        W57344  13.269   4.415  21.408
53277W        W57345  11.113   4.886  21.185
53278W        W57346  12.873   5.363  20.911
53279W        W57347  11.230   6.121  19.568
53280W        W57348  11.377   5.418  20.458
53281W        W57349  13.694   5.704  20.808
53282W        W57350  13.466   7.084  21.619
53283W        W57351  13.362   4.823  21.172
53284W        W57352  13.639   6.877  19.577
53285W        W57353  12.641   6.597  20.900
53286W        W57354  12.126   6.952  20.169
53287W        W57355  13.931   6.123  20.588
53288W        W57356  12.981   6.195  21.725
53289W        W57357  11.586   6.148  20.064
53290W        W57358  13.932   5.907  19.709
53291W        W57359  13.573   6.973  20.460
53292W        W57360  11.551   6.702  20.330
53293W        W57361  12.572   4.754  21.540
53294W        W57362  13.023   6.920  19.051
53295W        W57363  12.331   6.175  21.689
53296W        W57364  12.457   6.413  19.066
53297W        W57365  11.678   5.153  18.325
53298W        W57366  14.098   5.862  22.518
53299W        W57367  12.146   6.938  22.071
53300W        W57368  12.229   5.090  23.054
53301W        W57369  11.744   4.938  23.218
53302W        W57370  12.735   5.753  22.652
53303W        W57371  13.164   4.945  22.229
53304W        W57372  12.721   6.180  22.198
53305W        W57373  11.417   4.019  23.033
53306W        W57374  14.105   4.413  21.984
53307W        W57375  14.311   6.387  22.481
53308W        W57376  11.440   7.173  22.235
53309W        W57377  11.833   7.219  22.911
53310W        W57378  13.658   5.413  23.071
53311W        W57379  13.624   5.101  22.098
53312W        W57380  14.109   5.453  22.853
53313W        W57381  13.011   4.111  22.869
53314W        W57382  11.668   6.805  22.552
53315W        W57383  12.624   6.878  22.410
53316W        W57384  14.016   4.904  21.874
53317W        W57385  12.203   5.594  23.137
53318W        W57386  11.673   5.633  21.995
53319W        W57387  11.328   4.666  22.174
53320W        W57388  11.390   6.622  22.968
53321W        W57389  12.521   6.105  23.216
53322W        W57390  12.779   4.606  22.614
53323W        W57391  10.945   5.356  22.808
53324W        W57392  13.260   5.035  22.759
53325W        W57393  13.137   5.525  22.863
53326W        W57394  13.126   4.419  22.320
53327W        W57395  13.525   4.299  23.101
53328W        W57396  12.316   4.726  22.477
53329W        W57397  13.937   4.494  22.822
53330W        W57398  14.304   4.976  22.767
53331W        W57399  11.973   3.729  22.473
53332W        W57400  14.444   6.512  21.953
53333W        W57401  13.268   4.302  21.885
53334W        W57402  12.979   6.379  22.612
53335W        W57403  13.078   6.946  23.204
53336W        W57404  14.252   5.949  22.048
53337W        W57405  12.687   5.432  23.109
53338W        W57406  13.757   4.962  22.727
53339W        W57407  14.044   4.695  22.369
53340W        W57408  13.853   6.735  22.758
53341W        W57409  13.583   5.417  22.532
53342W        W57410  14.236   4.069  22.999
53343W        W57411  12.422   6.945  22.964
53344W        W57412  11.537   4.125  22.222
53345W        W57413  11.669   6.899  21.880
53346W        W57414  12.043   5.365  22.631
53347W        W57415  12.527   4.352  22.934
53348W        W57416  11.875   4.142  22.886
53349W        W57417  11.880   4.370  21.911
53350W        W57418  12.653   5.506  22.218
53351W        W57419  11.921   3.821  21.988
53352W        W57420  12.659   4.902  23.039
53353W        W57421  11.570   4.414  23.253
53354W        W57422  11.356   7.126  22.929
53355W        W57423  11.723   5.941  22.413
53356W        W57424  13.358   6.173  22.099
53357W        W57425  14.509   4.472  22.695
53358W        W57426  10.987   7.133  22.490
53359W        W57427  12.249   6.426  22.145
53360W        W57428  14.154   6.808  22.331
53361W        W57429  13.129   5.461  22.345
53362W        W57430  11.972   4.652  22.862
53363W        W57431  12.804   4.562  21.914
53364W        W57432  13.741   4.033  22.709
53365W        W57433  11.071   3.881  22.157
53366W        W57434  11.898   6.068  21.937
53367W        W57435  11.139   6.309  22.705
53368W        W57436  12.251   3.849  22.970
53369W        W57437  13.310   3.926  22.475
53370W        W57438  11.414   4.427  22.642
53371W        W57439  14.381   5.318  21.943
53372W        W57440  10.935   4.338  22.180
53373W        W57441  12.946   7.204  22.216
53374W        W57442  11.092   5.711  21.913
53375W        W57443  14.493   5.563  22.403
53376W        W57444  13.356   5.895  22.502
53377W        W57445  13.830   7.195  22.197
53378W        W57446  12.424   3.761  22.156
53379W        W57447  13.963   6.360  22.099
53380W        W57448  13.503   7.097  22.613
53381W        W57449  11.964   6.380  22.598
53382W        W57450  13.719   5.878  22.862
53383W        W57451  12.816   6.566  23.050
53384W        W57452  14.566   5.126  23.231
53385W        W57453  13.090   6.610  22.165
53386W        W57454  12.232   5.855  22.247
53387W        W57455  13.944   7.237  22.966
53388W        W57456  11.200   5.243  22.131
53389W        W57457  14.334   6.901  22.828
53390W        W57458  14.171   4.225  22.447
53391W        W57459  14.045   5.102  23.213
53392W        W57460  11.576   6.430  22.108
53393W        W57461  14.093   6.188  22.918
53394W        W57462  14.470   4.910  22.285
53395W        W57463  12.215   5.967  22.756
53396W        W57464  12.138   4.858  21.995
53397W        W57465  12.349   4.351  22.088
53398W        W57466  11.484   5.167  22.869
53399W        W57467  14.050   5.245  22.414
53400W        W57468  13.581   6.370  23.063
53401W        W57469  14.145   3.758  22.536
53402W        W57470  13.665   6.233  22.547
53403W        W57471  12.567   5.291  22.632
53404W        W57472  13.754   4.095  22.155
53405W        W57473  11.822   6.234  23.197
53406W        W57474  13.585   4.854  23.162
53407W        W57475  11.027   6.961  23.306
53408W        W57476  11.536   6.148  22.842
53409W        W57477  14.325   5.586  23.287
53410W        W57478  13.679   5.763  22.167
53411W        W57479  12.646   3.716  22.696
53412W        W57480  12.298   4.134  22.528
53413W        W57481  13.096   4.599  23.091
53414W        W57482  11.897   4.394  22.385
53415W        W57483  13.414   4.536  22.710
53416W        W57484  14.457   7.051  22.012
53417W        W57485  11.111   6.044  22.304
53418W        W57486  12.630   4.995  22.174
53419W        W57487  11.276   5.544  23.193
53420W        W57488  14.238   3.895  22.084
53421W        W57489  14.549   5.868  22.820
53422W        W57490  12.846   3.747  23.223
53423W        W57491  11.905   6.731  23.060
53424W        W57492  11.167   6.663  22.302
53425W        W57493  12.983   6.027  23.020
53426W        W57494  11.335   5.645  22.595
53427W        W57495  11.020   4.007  22.671
53428W        W57496  13.561   4.599  22.170
53429W        W57497  12.151   6.859  22.560
53430W        W57498  13.433   3.762  21.990
53431W        W57499  11.144   4.910  22.698
53432W        W57500  11.835   4.899  22.423
53433W        W57501  13.363   5.815  23.214
53434W        W57502  12.825   4.040  22.285
53435W        W57503  14.506   3.668  23.007
53436W        W57504  12.194   5.303  22.170
53437W        W57505  14.360   4.640  23.160
53438W        W57506  13.052   5.810  22.037
53439W        W57507  13.642   6.711  22.252
53440W        W57508  11.230   6.121  23.213
53441W        W57509  13.639   6.877  23.222
53442W        W57510  13.023   6.920  22.696
53443W        W57511  12.457   6.413  22.711
53444W        W57512  11.678   5.153  21.970
53445W        W57513  11.393   9.777   2.882
53446W        W57514  14.098   9.507   0.652
53447W        W57515  14.228  10.592   2.679
53448W        W57516  12.146  10.583   0.205
53449W        W57517  12.229   8.735   1.188
53450W        W57518  11.744   8.583   1.352
53451W        W57519  12.735   9.398   0.786
53452W        W57520  12.410  10.490   3.141
53453W        W57521  11.059   8.051   3.104
53454W        W57522  11.821   7.331   2.906
53455W        W57523  13.515   7.719   1.793
53456W        W57524  13.164   8.590   0.363
53457W        W57525  13.734   8.024   3.454
53458W        W57526  11.100   7.816   2.579
53459W        W57527  12.721   9.825   0.332
53460W        W57528  11.153   8.608   2.025
53461W        W57529  12.046   8.499   3.262
53462W        W57530  14.505   8.358   1.761
53463W        W57531  14.269   9.401   2.620
53464W        W57532  12.577   8.734   1.647
53465W        W57533  13.123  10.073   2.016
53466W        W57534  11.623   9.507   2.248
53467W        W57535  10.982   9.035   1.819
53468W        W57536  12.018   9.007   3.011
53469W        W57537  14.289   8.790   3.265
53470W        W57538  11.905  10.234   1.710
53471W        W57539  13.026   9.923   2.844
53472W        W57540  12.246   8.563   2.069
53473W        W57541  12.538   9.347   1.712
53474W        W57542  13.535  10.120   3.560
53475W        W57543  12.614   9.440   3.570
53476W        W57544  12.595   9.156   3.048
53477W        W57545  11.004   8.547   3.570
53478W        W57546  13.836  10.082   3.169
53479W        W57547  11.417   7.664   1.167
53480W        W57548  11.944   9.922   2.166
53481W        W57549  14.407   9.705   1.456
53482W        W57550  13.820   8.105   2.023
53483W        W57551  14.105   8.058   0.118
53484W        W57552  14.570   8.859   2.424
53485W        W57553  12.537  10.566   2.177
53486W        W57554  14.311  10.032   0.615
53487W        W57555  11.440  10.818   0.369
53488W        W57556  11.833  10.864   1.045
53489W        W57557  11.630   7.618   2.471
53490W        W57558  14.253   8.636   2.746
53491W        W57559  13.658   9.058   1.205
53492W        W57560  13.624   8.746   0.232
53493W        W57561  12.832   9.890   2.372
53494W        W57562  12.638   8.220   1.571
53495W        W57563  13.238  10.307   2.565
53496W        W57564  14.109   9.098   0.987
53497W        W57565  13.011   7.756   1.003
53498W        W57566  11.668  10.450   0.686
53499W        W57567  11.039   7.949   1.285
53500W        W57568  13.825   8.556   1.759
53501W        W57569  11.283  10.173   1.674
53502W        W57570  12.624  10.523   0.544
53503W        W57571  14.016   8.549   0.008
53504W        W57572  11.039  10.307   2.172
53505W        W57573  11.830   9.879   2.652
53506W        W57574  12.203   9.239   1.271
53507W        W57575  12.225   7.644   2.364
53508W        W57576  14.454   7.406   1.661
53509W        W57577  11.673   9.278   0.129
53510W        W57578  11.328   8.311   0.308
53511W        W57579  11.390  10.267   1.102
53512W        W57580  12.521   9.750   1.350
53513W        W57581  13.853  10.609   3.064
53514W        W57582  12.779   8.251   0.748
53515W        W57583  14.162  10.649   1.520
53516W        W57584  13.839   8.502   3.118
53517W        W57585  14.552  10.158   1.252
53518W        W57586  13.179   9.450   2.736
53519W        W57587  10.945   9.001   0.942
53520W        W57588  12.056   9.416   2.515
53521W        W57589  13.260   8.680   0.893
53522W        W57590  13.137   9.170   0.997
53523W        W57591  11.480   8.590   2.471
53524W        W57592  11.465   8.466   3.393
53525W        W57593  11.355   7.383   1.552
53526W        W57594  13.123   7.730   2.113
53527W        W57595  12.771   7.915   3.276
53528W        W57596  13.126   8.064   0.454
53529W        W57597  14.309  10.457   3.208
53530W        W57598  13.276   7.538   3.247
53531W        W57599  14.295   9.839   3.369
53532W        W57600  13.725   8.006   2.965
53533W        W57601  13.525   7.944   1.235
53534W        W57602  13.918   9.078   3.639
53535W        W57603  11.658  10.654   1.625
53536W        W57604  12.316   8.371   0.611
53537W        W57605  11.885   7.655   3.275
53538W        W57606  13.937   8.139   0.956
53539W        W57607  14.304   8.621   0.901
53540W        W57608  12.047  10.838   3.372
53541W        W57609  11.973   7.374   0.607
53542W        W57610  14.294   7.908   1.642
53543W        W57611  14.444  10.157   0.087
53544W        W57612  11.351   9.360   1.789
53545W        W57613  13.268   7.947   0.019
53546W        W57614  14.402  10.279   1.739
53547W        W57615  14.441   7.473   2.489
53548W        W57616  12.886   8.685   3.043
53549W        W57617  12.979  10.024   0.746
53550W        W57618  13.379   9.318   3.486
53551W        W57619  13.053   7.295   1.795
53552W        W57620  11.665   8.198   1.858
53553W        W57621  11.219   9.398   2.632
53554W        W57622  13.078  10.591   1.338
53555W        W57623  14.272   8.188   2.210
53556W        W57624  12.909  10.535   2.977
53557W        W57625  14.252   9.594   0.182
53558W        W57626  12.687   9.077   1.243
53559W        W57627  14.539   7.588   2.984
53560W        W57628  12.688   9.423   2.578
53561W        W57629  12.905   8.309   2.023
53562W        W57630  13.757   8.607   0.861
53563W        W57631  14.044   8.340   0.503
53564W        W57632  13.853  10.380   0.892
53565W        W57633  13.687   9.983   1.688
53566W        W57634  13.583   9.062   0.666
53567W        W57635  13.016   9.272   1.652
53568W        W57636  13.897   9.060   1.719
53569W        W57637  11.272   8.075   2.143
53570W        W57638  14.050   9.127   2.970
53571W        W57639  14.401  10.745   2.116
53572W        W57640  12.331  10.189   1.518
53573W        W57641  13.338  10.722   2.842
53574W        W57642  13.332   8.052   2.606
53575W        W57643  12.539  10.760   2.667
53576W        W57644  14.236   7.714   1.133
53577W        W57645  14.027   9.033   2.434
53578W        W57646  11.010   8.354   2.472
53579W        W57647  13.870   8.149   1.490
53580W        W57648  14.281   8.300   3.267
53581W        W57649  13.166   9.999   1.485
53582W        W57650  12.422  10.590   1.098
53583W        W57651  11.537   7.770   0.356
53584W        W57652  12.641   7.424   2.166
53585W        W57653  11.669  10.544   0.014
53586W        W57654  12.043   9.010   0.765
53587W        W57655  12.697   9.639   3.078
53588W        W57656  12.527   7.997   1.068
53589W        W57657  13.883   7.594   1.496
53590W        W57658  13.603  10.876   1.824
53591W        W57659  13.015  10.524   2.164
53592W        W57660  12.411   9.561   2.125
53593W        W57661  14.181  10.284   2.251
53594W        W57662  11.875   7.787   1.020
53595W        W57663  12.397  10.084   1.980
53596W        W57664  11.880   8.015   0.045
53597W        W57665  12.681   8.624   2.439
53598W        W57666  13.529   7.490   2.309
53599W        W57667  10.949   9.333   2.194
53600W        W57668  12.653   9.151   0.352
53601W        W57669  11.921   7.466   0.122
53602W        W57670  12.659   8.547   1.173
53603W        W57671  13.629   7.523   2.872
53604W        W57672  12.217   9.535   2.981
53605W        W57673  13.021   9.317   3.198
53606W        W57674  13.638   9.347   3.091
53607W        W57675  12.922   7.487   3.596
53608W        W57676  12.144   8.103   1.989
53609W        W57677  11.570   8.059   1.387
53610W        W57678  11.356  10.771   1.063
53611W        W57679  12.688  10.101   3.188
53612W        W57680  11.723   9.586   0.547
53613W        W57681  13.403   8.971   1.768
53614W        W57682  13.683   8.770   2.167
53615W        W57683  12.888   9.444   2.101
53616W        W57684  13.358   9.818   0.233
53617W        W57685  13.030   7.839   1.561
53618W        W57686  14.509   8.117   0.829
53619W        W57687  11.003  10.706   2.860
53620W        W57688  11.420   9.932   2.392
53621W        W57689  10.987  10.778   0.624
53622W        W57690  12.886   8.048   2.430
53623W        W57691  12.249  10.071   0.279
53624W        W57692  14.154  10.453   0.465
53625W        W57693  13.129   9.106   0.479
53626W        W57694  11.972   8.297   0.996
53627W        W57695  12.804   8.207   0.048
53628W        W57696  13.388   9.772   3.226
53629W        W57697  13.741   7.678   0.843
53630W        W57698  11.071   7.526   0.291
53631W        W57699  12.357   9.845   2.581
53632W        W57700  12.156   9.761   1.673
53633W        W57701  11.898   9.713   0.071
53634W        W57702  11.139   9.954   0.839
53635W        W57703  11.643   9.024   3.281
53636W        W57704  12.347   7.584   3.467
53637W        W57705  13.056   7.726   2.823
53638W        W57706  12.251   7.494   1.104
53639W        W57707  13.310   7.571   0.609
53640W        W57708  11.255   7.503   2.186
53641W        W57709  11.303   8.466   1.556
53642W        W57710  13.992   7.574   1.962
53643W        W57711  11.414   8.072   0.776
53644W        W57712  13.985   7.760   2.392
53645W        W57713  14.381   8.963   0.077
53646W        W57714  11.673   7.721   1.896
53647W        W57715  12.787   8.293   2.836
53648W        W57716  10.935   7.983   0.314
53649W        W57717  11.721   9.372   2.875
53650W        W57718  13.079   8.770   2.054
53651W        W57719  12.946  10.849   0.350
53652W        W57720  11.092   9.356   0.047
53653W        W57721  11.827   9.767   3.173
53654W        W57722  11.348   8.934   2.804
53655W        W57723  12.339   9.039   2.598
53656W        W57724  14.107   7.398   2.860
53657W        W57725  14.505   9.008   2.851
53658W        W57726  14.493   9.208   0.537
53659W        W57727  13.356   9.540   0.636
53660W        W57728  13.830  10.840   0.331
53661W        W57729  13.007   8.830   3.473
53662W        W57730  11.337   9.797   3.513
53663W        W57731  14.543   7.719   3.465
53664W        W57732  14.261   8.647   2.086
53665W        W57733  12.569  10.777   3.563
53666W        W57734  12.424   7.406   0.290
53667W        W57735  13.963  10.005   0.233
53668W        W57736  11.732   8.098   3.119
53669W        W57737  12.166  10.092   2.981
53670W        W57738  14.292   8.083   2.779
53671W        W57739  13.503  10.742   0.747
53672W        W57740  13.742   9.361   2.114
53673W        W57741  11.992   7.777   2.781
53674W        W57742  12.461   8.846   3.538
53675W        W57743  11.964  10.025   0.732
53676W        W57744  13.719   9.523   0.996
53677W        W57745  11.487   8.149   2.720
53678W        W57746  12.816  10.211   1.184
53679W        W57747  14.566   8.771   1.365
53680W        W57748  12.788   7.404   3.084
53681W        W57749  13.568  10.109   2.163
53682W        W57750  13.871  10.453   1.871
53683W        W57751  13.090  10.255   0.299
53684W        W57752  11.100  10.147   3.141
53685W        W57753  11.843   8.139   2.379
53686W        W57754  11.813   7.487   1.489
53687W        W57755  13.434   8.329   2.181
53688W        W57756  12.232   9.500   0.381
53689W        W57757  14.230   9.442   1.880
53690W        W57758  13.944  10.882   1.100
53691W        W57759  12.043   7.902   1.545
53692W        W57760  11.812   9.395   1.635
53693W        W57761  12.125  10.806   2.385
53694W        W57762  14.192  10.902   3.417
53695W        W57763  13.351   9.090   2.350
53696W        W57764  11.200   8.888   0.265
53697W        W57765  14.334  10.546   0.962
53698W        W57766  14.171   7.870   0.581
53699W        W57767  12.310   7.389   2.984
53700W        W57768  14.016  10.191   1.442
53701W        W57769  14.045   8.747   1.347
53702W        W57770  12.162   8.420   1.563
53703W        W57771  12.407   8.682   2.887
53704W        W57772  13.518   9.835   2.750
53705W        W57773  12.168   8.289   2.862
53706W        W57774  12.147  10.755   1.478
53707W        W57775  11.464  10.714   3.112
53708W        W57776  11.576  10.075   0.242
53709W        W57777  14.093   9.833   1.052
53710W        W57778  11.697   8.625   2.938
53711W        W57779  14.470   8.555   0.419
53712W        W57780  12.215   9.612   0.890
53713W        W57781  13.314   8.994   2.971
53714W        W57782  13.205   8.622   2.515
53715W        W57783  11.765   8.994   2.544
53716W        W57784  13.975  10.882   2.373
53717W        W57785  13.766   7.516   3.367
53718W        W57786  11.430   7.666   2.954
53719W        W57787  11.769   8.689   2.007
53720W        W57788  12.138   8.503   0.129
53721W        W57789  10.941  10.262   2.674
53722W        W57790  12.526   8.971   2.117
53723W        W57791  12.349   7.996   0.222
53724W        W57792  11.484   8.812   1.003
53725W        W57793  11.255  10.664   2.440
53726W        W57794  14.050   8.890   0.548
53727W        W57795  14.145   7.806   3.234
53728W        W57796  13.581  10.015   1.197
53729W        W57797  11.179   8.939   3.374
53730W        W57798  14.145   7.403   0.670
53731W        W57799  13.665   9.878   0.681
53732W        W57800  12.567   8.936   0.766
53733W        W57801  13.754   7.740   0.289
53734W        W57802  13.819   8.347   2.475
53735W        W57803  11.528   8.940   1.682
53736W        W57804  11.822   9.879   1.331
53737W        W57805  13.585   8.499   1.296
53738W        W57806  12.608   7.878   1.992
53739W        W57807  14.570   9.789   2.503
53740W        W57808  14.488   7.776   2.064
53741W        W57809  11.027  10.606   1.440
53742W        W57810  11.536   9.793   0.976
53743W        W57811  11.451   7.410   3.529
53744W        W57812  12.570  10.263   3.631
53745W        W57813  14.325   9.231   1.421
53746W        W57814  13.679   9.408   0.301
53747W        W57815  12.974  10.929   2.513
53748W        W57816  13.831   9.651   3.550
53749W        W57817  12.646   7.361   0.830
53750W        W57818  13.359   8.230   1.689
53751W        W57819  11.045   9.817   2.021
53752W        W57820  12.298   7.779   0.662
53753W        W57821  12.102   9.263   3.511
53754W        W57822  13.096   8.244   1.225
53755W        W57823  13.301   9.654   2.347
53756W        W57824  11.455  10.259   2.782
53757W        W57825  12.046  10.242   3.505
53758W        W57826  11.897   8.039   0.519
53759W        W57827  13.414   8.181   0.844
53760W        W57828  13.372  10.289   3.081
53761W        W57829  12.057   8.881   1.680
53762W        W57830  11.712  10.579   2.545
53763W        W57831  14.457  10.696   0.146
53764W        W57832  11.320   9.368   3.142
53765W        W57833  13.315   9.630   1.830
53766W        W57834  11.751   9.279   1.072
53767W        W57835  12.122  10.286   2.467
53768W        W57836  12.500   7.705   1.508
53769W        W57837  11.111   9.689   0.438
53770W        W57838  12.630   8.640   0.308
53771W        W57839  11.276   9.189   1.327
53772W        W57840  12.566   7.831   2.791
53773W        W57841  14.238   7.540   0.218
53774W        W57842  14.331   9.286   3.317
53775W        W57843  12.985  10.543   3.469
53776W        W57844  14.543   9.637   2.991
53777W        W57845  13.951  10.435   3.602
53778W        W57846  11.690  10.891   2.080
53779W        W57847  14.549   9.513   0.954
53780W        W57848  13.079   8.780   1.467
53781W        W57849  12.846   7.392   1.357
53782W        W57850  11.905  10.376   1.194
53783W        W57851  12.404   8.117   2.419
53784W        W57852  12.104   7.486   1.888
53785W        W57853  11.167  10.308   0.436
53786W        W57854  12.983   9.672   1.154
53787W        W57855  11.858  10.467   3.033
53788W        W57856  11.335   9.290   0.729
53789W        W57857  11.220   7.833   1.728
53790W        W57858  12.768   9.798   1.785
53791W        W57859  11.020   7.652   0.805
53792W        W57860  13.684   8.858   2.732
53793W        W57861  13.561   8.244   0.304
53794W        W57862  14.078   9.916   1.952
53795W        W57863  12.739  10.400   1.783
53796W        W57864  12.151  10.504   0.694
53797W        W57865  13.433   7.407   0.124
53798W        W57866  11.233  10.667   1.865
53799W        W57867  13.430   8.425   3.500
53800W        W57868  11.413   7.955   3.499
53801W        W57869  11.144   8.555   0.832
53802W        W57870  11.835   8.544   0.557
53803W        W57871  13.598   8.871   3.374
53804W        W57872  11.941   9.152   2.083
53805W        W57873  13.415   7.438   1.203
53806W        W57874  12.546  10.869   1.706
53807W        W57875  13.760  10.331   2.643
53808W        W57876  13.344  10.480   1.754
53809W        W57877  13.363   9.460   1.348
53810W        W57878  12.825   7.685   0.419
53811W        W57879  14.506   7.313   1.141
53812W        W57880  12.194   8.948   0.304
53813W        W57881  14.360   8.285   1.294
53814W        W57882  13.052   9.455   0.171
53815W        W57883  13.988   9.655   2.919
53816W        W57884  13.642  10.356   0.386
53817W        W57885  12.257   8.031   3.292
53818W        W57886  12.077   8.615   2.533
53819W        W57887  14.169  10.110   2.810
53820W        W57888  13.269   8.060   3.187
53821W        W57889  11.113   8.531   2.964
53822W        W57890  12.873   9.008   2.690
53823W        W57891  11.230   9.766   1.347
53824W        W57892  11.377   9.063   2.237
53825W        W57893  13.694   9.349   2.587
53826W        W57894  13.466  10.729   3.398
53827W        W57895  13.362   8.468   2.951
53828W        W57896  13.639  10.522   1.356
53829W        W57897  12.641  10.242   2.679
53830W        W57898  12.126  10.597   1.948
53831W        W57899  13.931   9.768   2.367
53832W        W57900  12.981   9.840   3.504
53833W        W57901  11.586   9.793   1.843
53834W        W57902  13.932   9.552   1.488
53835W        W57903  13.573  10.618   2.239
53836W        W57904  11.551  10.347   2.109
53837W        W57905  12.572   8.399   3.319
53838W        W57906  13.023  10.565   0.830
53839W        W57907  12.331   9.820   3.468
53840W        W57908  12.457  10.058   0.845
53841W        W57909  11.678   8.798   0.104
53842W        W57910  11.017  10.884   7.003
53843W        W57911  11.393   9.777   6.526
53844W        W57912  14.098   9.507   4.296
53845W        W57913  14.228  10.592   6.323
53846W        W57914  12.146  10.583   3.849
53847W        W57915  12.229   8.735   4.832
53848W        W57916  11.744   8.583   4.996
53849W        W57917  12.735   9.398   4.430
53850W        W57918  12.410  10.490   6.785
53851W        W57919  11.059   8.051   6.748
53852W        W57920  11.821   7.331   6.550
53853W        W57921  13.515   7.719   5.437
53854W        W57922  13.164   8.590   4.007
53855W        W57923  13.734   8.024   7.098
53856W        W57924  11.100   7.816   6.223
53857W        W57925  11.199  10.435   7.244
53858W        W57926  12.721   9.825   3.976
53859W        W57927  11.153   8.608   5.669
53860W        W57928  12.046   8.499   6.906
53861W        W57929  14.505   8.358   5.405
53862W        W57930  14.269   9.401   6.264
53863W        W57931  12.577   8.734   5.291
53864W        W57932  13.123  10.073   5.660
53865W        W57933  11.623   9.507   5.892
53866W        W57934  10.982   9.035   5.463
53867W        W57935  12.018   9.007   6.655
53868W        W57936  14.289   8.790   6.909
53869W        W57937  11.905  10.234   5.354
53870W        W57938  13.026   9.923   6.488
53871W        W57939  12.246   8.563   5.713
53872W        W57940  12.538   9.347   5.356
53873W        W57941  13.535  10.120   7.204
53874W        W57942  12.614   9.440   7.214
53875W        W57943  12.595   9.156   6.692
53876W        W57944  11.004   8.547   7.214
53877W        W57945  13.836  10.082   6.813
53878W        W57946  11.417   7.664   4.811
53879W        W57947  11.944   9.922   5.810
53880W        W57948  14.407   9.705   5.100
53881W        W57949  13.820   8.105   5.667
53882W        W57950  14.105   8.058   3.762
53883W        W57951  14.570   8.859   6.068
53884W        W57952  12.537  10.566   5.821
53885W        W57953  14.311  10.032   4.259
53886W        W57954  11.440  10.818   4.013
53887W        W57955  11.833  10.864   4.689
53888W        W57956  11.630   7.618   6.115
53889W        W57957  14.253   8.636   6.390
53890W        W57958  13.658   9.058   4.849
53891W        W57959  13.624   8.746   3.876
53892W        W57960  12.832   9.890   6.016
53893W        W57961  12.638   8.220   5.215
53894W        W57962  13.238  10.307   6.209
53895W        W57963  14.109   9.098   4.631
53896W        W57964  13.011   7.756   4.647
53897W        W57965  11.668  10.450   4.330
53898W        W57966  11.039   7.949   4.929
53899W        W57967  13.825   8.556   5.403
53900W        W57968  11.283  10.173   5.318
53901W        W57969  12.624  10.523   4.188
53902W        W57970  14.016   8.549   3.652
53903W        W57971  11.039  10.307   5.816
53904W        W57972  11.830   9.879   6.296
53905W        W57973  12.203   9.239   4.915
53906W        W57974  12.225   7.644   6.008
53907W        W57975  14.454   7.406   5.305
53908W        W57976  11.673   9.278   3.773
53909W        W57977  11.328   8.311   3.952
53910W        W57978  11.390  10.267   4.746
53911W        W57979  12.521   9.750   4.994
53912W        W57980  13.853  10.609   6.708
53913W        W57981  12.779   8.251   4.392
53914W        W57982  14.162  10.649   5.164
53915W        W57983  13.839   8.502   6.762
53916W        W57984  14.552  10.158   4.896
53917W        W57985  13.179   9.450   6.380
53918W        W57986  10.945   9.001   4.586
53919W        W57987  12.056   9.416   6.159
53920W        W57988  13.260   8.680   4.537
53921W        W57989  13.137   9.170   4.641
53922W        W57990  11.480   8.590   6.115
53923W        W57991  11.465   8.466   7.037
53924W        W57992  11.355   7.383   5.196
53925W        W57993  13.123   7.730   5.757
53926W        W57994  12.771   7.915   6.920
53927W        W57995  13.126   8.064   4.098
53928W        W57996  14.309  10.457   6.852
53929W        W57997  13.276   7.538   6.891
53930W        W57998  14.295   9.839   7.013
53931W        W57999  13.725   8.006   6.609
53932W        W58000  13.525   7.944   4.879
53933W        W58001  13.918   9.078   7.283
53934W        W58002  11.658  10.654   5.269
53935W        W58003  12.316   8.371   4.255
53936W        W58004  11.885   7.655   6.919
53937W        W58005  13.937   8.139   4.600
53938W        W58006  14.304   8.621   4.545
53939W        W58007  12.047  10.838   7.016
53940W        W58008  11.973   7.374   4.251
53941W        W58009  14.294   7.908   5.286
53942W        W58010  14.444  10.157   3.731
53943W        W58011  11.351   9.360   5.433
53944W        W58012  13.268   7.947   3.663
53945W        W58013  14.402  10.279   5.383
53946W        W58014  14.441   7.473   6.133
53947W        W58015  12.886   8.685   6.687
53948W        W58016  12.979  10.024   4.390
53949W        W58017  13.379   9.318   7.130
53950W        W58018  13.053   7.295   5.439
53951W        W58019  11.665   8.198   5.502
53952W        W58020  11.219   9.398   6.276
53953W        W58021  13.078  10.591   4.982
53954W        W58022  14.272   8.188   5.854
53955W        W58023  12.909  10.535   6.621
53956W        W58024  14.252   9.594   3.826
53957W        W58025  12.687   9.077   4.887
53958W        W58026  14.539   7.588   6.628
53959W        W58027  12.688   9.423   6.222
53960W        W58028  12.905   8.309   5.667
53961W        W58029  13.757   8.607   4.505
53962W        W58030  14.044   8.340   4.147
53963W        W58031  13.853  10.380   4.536
53964W        W58032  13.687   9.983   5.332
53965W        W58033  13.583   9.062   4.310
53966W        W58034  13.016   9.272   5.296
53967W        W58035  13.897   9.060   5.363
53968W        W58036  11.272   8.075   5.787
53969W        W58037  14.050   9.127   6.614
53970W        W58038  14.401  10.745   5.760
53971W        W58039  12.331  10.189   5.162
53972W        W58040  13.338  10.722   6.486
53973W        W58041  13.332   8.052   6.250
53974W        W58042  12.539  10.760   6.311
53975W        W58043  14.236   7.714   4.777
53976W        W58044  14.027   9.033   6.078
53977W        W58045  11.010   8.354   6.116
53978W        W58046  13.870   8.149   5.134
53979W        W58047  14.281   8.300   6.911
53980W        W58048  13.166   9.999   5.129
53981W        W58049  12.422  10.590   4.742
53982W        W58050  11.537   7.770   4.000
53983W        W58051  12.641   7.424   5.810
53984W        W58052  11.669  10.544   3.658
53985W        W58053  12.043   9.010   4.409
53986W        W58054  12.697   9.639   6.722
53987W        W58055  12.527   7.997   4.712
53988W        W58056  13.883   7.594   5.140
53989W        W58057  13.603  10.876   5.468
53990W        W58058  13.015  10.524   5.808
53991W        W58059  12.411   9.561   5.769
53992W        W58060  14.181  10.284   5.895
53993W        W58061  11.875   7.787   4.664
53994W        W58062  12.397  10.084   5.624
53995W        W58063  11.880   8.015   3.689
53996W        W58064  12.681   8.624   6.083
53997W        W58065  13.529   7.490   5.953
53998W        W58066  10.949   9.333   5.838
53999W        W58067  12.653   9.151   3.996
54000W        W58068  11.921   7.466   3.766
54001W        W58069  12.659   8.547   4.817
54002W        W58070  13.629   7.523   6.516
54003W        W58071  12.217   9.535   6.625
54004W        W58072  13.021   9.317   6.842
54005W        W58073  13.638   9.347   6.735
54006W        W58074  12.922   7.487   7.240
54007W        W58075  12.144   8.103   5.633
54008W        W58076  11.570   8.059   5.031
54009W        W58077  11.356  10.771   4.707
54010W        W58078  12.688  10.101   6.832
54011W        W58079  11.723   9.586   4.191
54012W        W58080  13.403   8.971   5.412
54013W        W58081  13.683   8.770   5.811
54014W        W58082  12.888   9.444   5.745
54015W        W58083  13.358   9.818   3.877
54016W        W58084  13.030   7.839   5.205
54017W        W58085  14.509   8.117   4.473
54018W        W58086  11.003  10.706   6.504
54019W        W58087  11.420   9.932   6.036
54020W        W58088  12.886   8.048   6.074
54021W        W58089  12.249  10.071   3.923
54022W        W58090  14.154  10.453   4.109
54023W        W58091  13.129   9.106   4.123
54024W        W58092  11.972   8.297   4.640
54025W        W58093  12.804   8.207   3.692
54026W        W58094  13.388   9.772   6.870
54027W        W58095  13.741   7.678   4.487
54028W        W58096  11.071   7.526   3.935
54029W        W58097  12.357   9.845   6.225
54030W        W58098  12.156   9.761   5.317
54031W        W58099  11.898   9.713   3.715
54032W        W58100  11.139   9.954   4.483
54033W        W58101  11.643   9.024   6.925
54034W        W58102  12.347   7.584   7.111
54035W        W58103  13.056   7.726   6.467
54036W        W58104  12.251   7.494   4.748
54037W        W58105  13.310   7.571   4.253
54038W        W58106  11.255   7.503   5.830
54039W        W58107  11.303   8.466   5.200
54040W        W58108  13.992   7.574   5.606
54041W        W58109  11.414   8.072   4.420
54042W        W58110  13.985   7.760   6.036
54043W        W58111  14.381   8.963   3.721
54044W        W58112  11.673   7.721   5.540
54045W        W58113  12.787   8.293   6.480
54046W        W58114  10.935   7.983   3.958
54047W        W58115  11.721   9.372   6.519
54048W        W58116  13.079   8.770   5.698
54049W        W58117  12.946  10.849   3.994
54050W        W58118  11.092   9.356   3.691
54051W        W58119  11.827   9.767   6.817
54052W        W58120  11.348   8.934   6.448
54053W        W58121  12.339   9.039   6.242
54054W        W58122  14.107   7.398   6.504
54055W        W58123  14.505   9.008   6.495
54056W        W58124  14.493   9.208   4.181
54057W        W58125  13.356   9.540   4.280
54058W        W58126  13.830  10.840   3.975
54059W        W58127  13.007   8.830   7.117
54060W        W58128  11.337   9.797   7.157
54061W        W58129  14.543   7.719   7.109
54062W        W58130  14.261   8.647   5.730
54063W        W58131  12.569  10.777   7.207
54064W        W58132  12.424   7.406   3.934
54065W        W58133  13.963  10.005   3.877
54066W        W58134  11.732   8.098   6.763
54067W        W58135  12.166  10.092   6.625
54068W        W58136  14.292   8.083   6.423
54069W        W58137  13.503  10.742   4.391
54070W        W58138  13.742   9.361   5.758
54071W        W58139  11.992   7.777   6.425
54072W        W58140  12.461   8.846   7.182
54073W        W58141  11.964  10.025   4.376
54074W        W58142  13.719   9.523   4.640
54075W        W58143  11.487   8.149   6.364
54076W        W58144  12.816  10.211   4.828
54077W        W58145  14.566   8.771   5.009
54078W        W58146  12.788   7.404   6.728
54079W        W58147  13.568  10.109   5.807
54080W        W58148  13.871  10.453   5.515
54081W        W58149  13.090  10.255   3.943
54082W        W58150  11.100  10.147   6.785
54083W        W58151  11.843   8.139   6.023
54084W        W58152  11.813   7.487   5.133
54085W        W58153  13.434   8.329   5.825
54086W        W58154  12.232   9.500   4.025
54087W        W58155  14.230   9.442   5.524
54088W        W58156  11.557  10.200   6.947
54089W        W58157  13.944  10.882   4.744
54090W        W58158  12.043   7.902   5.189
54091W        W58159  11.812   9.395   5.279
54092W        W58160  12.125  10.806   6.029
54093W        W58161  14.192  10.902   7.061
54094W        W58162  13.351   9.090   5.994
54095W        W58163  11.200   8.888   3.909
54096W        W58164  14.334  10.546   4.606
54097W        W58165  14.171   7.870   4.225
54098W        W58166  12.310   7.389   6.628
54099W        W58167  14.016  10.191   5.086
54100W        W58168  14.045   8.747   4.991
54101W        W58169  12.162   8.420   5.207
54102W        W58170  12.407   8.682   6.531
54103W        W58171  13.518   9.835   6.394
54104W        W58172  12.168   8.289   6.506
54105W        W58173  12.147  10.755   5.122
54106W        W58174  11.464  10.714   6.756
54107W        W58175  11.576  10.075   3.886
54108W        W58176  14.093   9.833   4.696
54109W        W58177  11.697   8.625   6.582
54110W        W58178  14.470   8.555   4.063
54111W        W58179  12.215   9.612   4.534
54112W        W58180  13.314   8.994   6.615
54113W        W58181  13.205   8.622   6.159
54114W        W58182  11.765   8.994   6.188
54115W        W58183  13.975  10.882   6.017
54116W        W58184  13.766   7.516   7.011
54117W        W58185  11.430   7.666   6.598
54118W        W58186  11.769   8.689   5.651
54119W        W58187  12.138   8.503   3.773
54120W        W58188  10.941  10.262   6.318
54121W        W58189  12.526   8.971   5.761
54122W        W58190  12.349   7.996   3.866
54123W        W58191  11.484   8.812   4.647
54124W        W58192  11.255  10.664   6.084
54125W        W58193  14.050   8.890   4.192
54126W        W58194  14.145   7.806   6.878
54127W        W58195  13.581  10.015   4.841
54128W        W58196  11.179   8.939   7.018
54129W        W58197  14.145   7.403   4.314
54130W        W58198  13.665   9.878   4.325
54131W        W58199  12.567   8.936   4.410
54132W        W58200  13.754   7.740   3.933
54133W        W58201  13.819   8.347   6.119
54134W        W58202  11.528   8.940   5.326
54135W        W58203  11.822   9.879   4.975
54136W        W58204  13.585   8.499   4.940
54137W        W58205  12.608   7.878   5.636
54138W        W58206  14.570   9.789   6.147
54139W        W58207  14.488   7.776   5.708
54140W        W58208  11.027  10.606   5.084
54141W        W58209  11.536   9.793   4.620
54142W        W58210  11.451   7.410   7.173
54143W        W58211  12.570  10.263   7.275
54144W        W58212  14.325   9.231   5.065
54145W        W58213  13.679   9.408   3.945
54146W        W58214  12.974  10.929   6.157
54147W        W58215  13.831   9.651   7.194
54148W        W58216  12.646   7.361   4.474
54149W        W58217  13.359   8.230   5.333
54150W        W58218  11.045   9.817   5.665
54151W        W58219  12.298   7.779   4.306
54152W        W58220  12.102   9.263   7.155
54153W        W58221  13.096   8.244   4.869
54154W        W58222  13.301   9.654   5.991
54155W        W58223  11.455  10.259   6.426
54156W        W58224  12.046  10.242   7.149
54157W        W58225  11.897   8.039   4.163
54158W        W58226  13.414   8.181   4.488
54159W        W58227  13.372  10.289   6.725
54160W        W58228  12.057   8.881   5.324
54161W        W58229  11.712  10.579   6.189
54162W        W58230  14.457  10.696   3.790
54163W        W58231  11.320   9.368   6.786
54164W        W58232  13.315   9.630   5.474
54165W        W58233  11.751   9.279   4.716
54166W        W58234  12.122  10.286   6.111
54167W        W58235  12.500   7.705   5.152
54168W        W58236  12.630   8.640   3.952
54169W        W58237  11.276   9.189   4.971
54170W        W58238  12.566   7.831   6.435
54171W        W58239  14.238   7.540   3.862
54172W        W58240  14.331   9.286   6.961
54173W        W58241  12.985  10.543   7.113
54174W        W58242  14.543   9.637   6.635
54175W        W58243  13.951  10.435   7.246
54176W        W58244  11.690  10.891   5.724
54177W        W58245  14.549   9.513   4.598
54178W        W58246  13.079   8.780   5.111
54179W        W58247  12.846   7.392   5.001
54180W        W58248  11.905  10.376   4.838
54181W        W58249  12.404   8.117   6.063
54182W        W58250  12.104   7.486   5.532
54183W        W58251  11.167  10.308   4.080
54184W        W58252  12.983   9.672   4.798
54185W        W58253  11.858  10.467   6.677
54186W        W58254  11.335   9.290   4.373
54187W        W58255  11.220   7.833   5.372
54188W        W58256  12.768   9.798   5.429
54189W        W58257  11.020   7.652   4.449
54190W        W58258  13.684   8.858   6.376
54191W        W58259  13.561   8.244   3.948
54192W        W58260  14.078   9.916   5.596
54193W        W58261  12.739  10.400   5.427
54194W        W58262  12.151  10.504   4.338
54195W        W58263  13.433   7.407   3.768
54196W        W58264  11.233  10.667   5.509
54197W        W58265  13.430   8.425   7.144
54198W        W58266  11.413   7.955   7.143
54199W        W58267  11.144   8.555   4.476
54200W        W58268  11.835   8.544   4.201
54201W        W58269  13.598   8.871   7.018
54202W        W58270  11.941   9.152   5.727
54203W        W58271  13.415   7.438   4.847
54204W        W58272  12.546  10.869   5.350
54205W        W58273  13.760  10.331   6.287
54206W        W58274  13.344  10.480   5.398
54207W        W58275  13.363   9.460   4.992
54208W        W58276  12.825   7.685   4.063
54209W        W58277  14.506   7.313   4.785
54210W        W58278  12.194   8.948   3.948
54211W        W58279  14.360   8.285   4.938
54212W        W58280  13.052   9.455   3.815
54213W        W58281  13.988   9.655   6.563
54214W        W58282  13.642  10.356   4.030
54215W        W58283  12.257   8.031   6.936
54216W        W58284  12.077   8.615   6.177
54217W        W58285  14.169  10.110   6.454
54218W        W58286  13.269   8.060   6.831
54219W        W58287  11.113   8.531   6.608
54220W        W58288  12.873   9.008   6.334
54221W        W58289  11.230   9.766   4.991
54222W        W58290  11.377   9.063   5.881
54223W        W58291  13.694   9.349   6.231
54224W        W58292  13.466  10.729   7.042
54225W        W58293  13.362   8.468   6.595
54226W        W58294  13.639  10.522   5.000
54227W        W58295  12.641  10.242   6.323
54228W        W58296  12.126  10.597   5.592
54229W        W58297  13.931   9.768   6.011
54230W        W58298  12.981   9.840   7.148
54231W        W58299  11.586   9.793   5.487
54232W        W58300  13.932   9.552   5.132
54233W        W58301  13.573  10.618   5.883
54234W        W58302  11.551  10.347   5.753
54235W        W58303  12.572   8.399   6.963
54236W        W58304  13.023  10.565   4.474
54237W        W58305  12.331   9.820   7.112
54238W        W58306  12.457  10.058   4.489
54239W        W58307  11.678   8.798   3.748
54240W        W58308  11.017  10.884  10.648
54241W        W58309  11.393   9.777  10.171
54242W        W58310  14.098   9.507   7.941
54243W        W58311  14.228  10.592   9.968
54244W        W58312  12.146  10.583   7.494
54245W        W58313  12.229   8.735   8.477
54246W        W58314  11.744   8.583   8.641
54247W        W58315  12.735   9.398   8.075
54248W        W58316  12.410  10.490  10.430
54249W        W58317  11.059   8.051  10.393
54250W        W58318  11.821   7.331  10.195
54251W        W58319  13.515   7.719   9.082
54252W        W58320  13.164   8.590   7.652
54253W        W58321  13.734   8.024  10.743
54254W        W58322  11.100   7.816   9.868
54255W        W58323  11.199  10.435  10.889
54256W        W58324  12.721   9.825   7.621
54257W        W58325  11.153   8.608   9.314
54258W        W58326  12.046   8.499  10.551
54259W        W58327  14.505   8.358   9.050
54260W        W58328  14.269   9.401   9.909
54261W        W58329  12.577   8.734   8.936
54262W        W58330  13.123  10.073   9.305
54263W        W58331  11.623   9.507   9.537
54264W        W58332  10.982   9.035   9.108
54265W        W58333  12.018   9.007  10.300
54266W        W58334  14.289   8.790  10.554
54267W        W58335  11.905  10.234   8.999
54268W        W58336  13.026   9.923  10.133
54269W        W58337  12.246   8.563   9.358
54270W        W58338  12.538   9.347   9.001
54271W        W58339  13.535  10.120  10.849
54272W        W58340  12.614   9.440  10.859
54273W        W58341  12.595   9.156  10.337
54274W        W58342  11.004   8.547  10.859
54275W        W58343  13.836  10.082  10.458
54276W        W58344  11.417   7.664   8.456
54277W        W58345  11.944   9.922   9.455
54278W        W58346  14.407   9.705   8.745
54279W        W58347  13.820   8.105   9.312
54280W        W58348  14.105   8.058   7.407
54281W        W58349  14.570   8.859   9.713
54282W        W58350  12.537  10.566   9.466
54283W        W58351  14.311  10.032   7.904
54284W        W58352  11.440  10.818   7.658
54285W        W58353  11.630   7.618   9.760
54286W        W58354  14.253   8.636  10.035
54287W        W58355  13.658   9.058   8.494
54288W        W58356  13.624   8.746   7.521
54289W        W58357  12.832   9.890   9.661
54290W        W58358  12.638   8.220   8.860
54291W        W58359  13.238  10.307   9.854
54292W        W58360  14.109   9.098   8.276
54293W        W58361  13.011   7.756   8.292
54294W        W58362  11.668  10.450   7.975
54295W        W58363  11.039   7.949   8.574
54296W        W58364  13.825   8.556   9.048
54297W        W58365  11.283  10.173   8.963
54298W        W58366  12.624  10.523   7.833
54299W        W58367  14.016   8.549   7.297
54300W        W58368  11.039  10.307   9.461
54301W        W58369  11.830   9.879   9.941
54302W        W58370  12.203   9.239   8.560
54303W        W58371  12.225   7.644   9.653
54304W        W58372  14.454   7.406   8.950
54305W        W58373  11.673   9.278   7.418
54306W        W58374  11.328   8.311   7.597
54307W        W58375  11.390  10.267   8.391
54308W        W58376  12.521   9.750   8.639
54309W        W58377  13.853  10.609  10.353
54310W        W58378  12.779   8.251   8.037
54311W        W58379  14.162  10.649   8.809
54312W        W58380  13.839   8.502  10.407
54313W        W58381  14.552  10.158   8.541
54314W        W58382  13.179   9.450  10.025
54315W        W58383  10.945   9.001   8.231
54316W        W58384  12.056   9.416   9.804
54317W        W58385  13.260   8.680   8.182
54318W        W58386  13.137   9.170   8.286
54319W        W58387  11.480   8.590   9.760
54320W        W58388  11.465   8.466  10.682
54321W        W58389  11.355   7.383   8.841
54322W        W58390  13.123   7.730   9.402
54323W        W58391  12.771   7.915  10.565
54324W        W58392  13.126   8.064   7.743
54325W        W58393  14.309  10.457  10.497
54326W        W58394  13.276   7.538  10.536
54327W        W58395  14.295   9.839  10.658
54328W        W58396  13.725   8.006  10.254
54329W        W58397  13.525   7.944   8.524
54330W        W58398  13.918   9.078  10.928
54331W        W58399  11.658  10.654   8.914
54332W        W58400  12.316   8.371   7.900
54333W        W58401  11.885   7.655  10.564
54334W        W58402  13.937   8.139   8.245
54335W        W58403  14.304   8.621   8.190
54336W        W58404  12.047  10.838  10.661
54337W        W58405  11.973   7.374   7.896
54338W        W58406  14.294   7.908   8.931
54339W        W58407  14.444  10.157   7.376
54340W        W58408  11.351   9.360   9.078
54341W        W58409  13.268   7.947   7.308
54342W        W58410  14.402  10.279   9.028
54343W        W58411  14.441   7.473   9.778
54344W        W58412  12.886   8.685  10.332
54345W        W58413  12.979  10.024   8.035
54346W        W58414  13.379   9.318  10.775
54347W        W58415  13.053   7.295   9.084
54348W        W58416  11.665   8.198   9.147
54349W        W58417  11.219   9.398   9.921
54350W        W58418  13.078  10.591   8.627
54351W        W58419  14.272   8.188   9.499
54352W        W58420  12.909  10.535  10.266
54353W        W58421  14.252   9.594   7.471
54354W        W58422  12.687   9.077   8.532
54355W        W58423  14.539   7.588  10.273
54356W        W58424  12.688   9.423   9.867
54357W        W58425  12.905   8.309   9.312
54358W        W58426  13.757   8.607   8.150
54359W        W58427  14.044   8.340   7.792
54360W        W58428  13.853  10.380   8.181
54361W        W58429  13.687   9.983   8.977
54362W        W58430  13.583   9.062   7.955
54363W        W58431  13.016   9.272   8.941
54364W        W58432  13.897   9.060   9.008
54365W        W58433  11.272   8.075   9.432
54366W        W58434  14.050   9.127  10.259
54367W        W58435  14.401  10.745   9.405
54368W        W58436  12.331  10.189   8.807
54369W        W58437  13.338  10.722  10.131
54370W        W58438  13.332   8.052   9.895
54371W        W58439  12.539  10.760   9.956
54372W        W58440  14.236   7.714   8.422
54373W        W58441  14.027   9.033   9.723
54374W        W58442  11.010   8.354   9.761
54375W        W58443  13.870   8.149   8.779
54376W        W58444  14.281   8.300  10.556
54377W        W58445  13.166   9.999   8.774
54378W        W58446  12.422  10.590   8.387
54379W        W58447  11.537   7.770   7.645
54380W        W58448  12.641   7.424   9.455
54381W        W58449  11.669  10.544   7.303
54382W        W58450  12.043   9.010   8.054
54383W        W58451  12.697   9.639  10.367
54384W        W58452  12.527   7.997   8.357
54385W        W58453  13.883   7.594   8.785
54386W        W58454  13.603  10.876   9.113
54387W        W58455  13.015  10.524   9.453
54388W        W58456  12.411   9.561   9.414
54389W        W58457  14.181  10.284   9.540
54390W        W58458  11.875   7.787   8.309
54391W        W58459  12.397  10.084   9.269
54392W        W58460  11.880   8.015   7.334
54393W        W58461  12.681   8.624   9.728
54394W        W58462  13.529   7.490   9.598
54395W        W58463  10.949   9.333   9.483
54396W        W58464  12.653   9.151   7.641
54397W        W58465  11.921   7.466   7.411
54398W        W58466  12.659   8.547   8.462
54399W        W58467  13.629   7.523  10.161
54400W        W58468  12.217   9.535  10.270
54401W        W58469  13.021   9.317  10.487
54402W        W58470  13.638   9.347  10.380
54403W        W58471  12.922   7.487  10.885
54404W        W58472  12.144   8.103   9.278
54405W        W58473  11.570   8.059   8.676
54406W        W58474  11.356  10.771   8.352
54407W        W58475  12.688  10.101  10.477
54408W        W58476  11.723   9.586   7.836
54409W        W58477  13.403   8.971   9.057
54410W        W58478  13.683   8.770   9.456
54411W        W58479  12.888   9.444   9.390
54412W        W58480  13.358   9.818   7.522
54413W        W58481  13.030   7.839   8.850
54414W        W58482  14.509   8.117   8.118
54415W        W58483  11.003  10.706  10.149
54416W        W58484  11.420   9.932   9.681
54417W        W58485  10.987  10.778   7.913
54418W        W58486  12.886   8.048   9.719
54419W        W58487  12.249  10.071   7.568
54420W        W58488  14.154  10.453   7.754
54421W        W58489  13.129   9.106   7.768
54422W        W58490  11.972   8.297   8.285
54423W        W58491  12.804   8.207   7.337
54424W        W58492  13.388   9.772  10.515
54425W        W58493  13.741   7.678   8.132
54426W        W58494  11.071   7.526   7.580
54427W        W58495  12.357   9.845   9.870
54428W        W58496  12.156   9.761   8.962
54429W        W58497  11.898   9.713   7.360
54430W        W58498  11.139   9.954   8.128
54431W        W58499  11.643   9.024  10.570
54432W        W58500  12.347   7.584  10.756
54433W        W58501  13.056   7.726  10.112
54434W        W58502  12.251   7.494   8.393
54435W        W58503  13.310   7.571   7.898
54436W        W58504  11.255   7.503   9.475
54437W        W58505  11.303   8.466   8.845
54438W        W58506  13.992   7.574   9.251
54439W        W58507  11.414   8.072   8.065
54440W        W58508  13.985   7.760   9.681
54441W        W58509  14.381   8.963   7.366
54442W        W58510  11.673   7.721   9.185
54443W        W58511  12.787   8.293  10.125
54444W        W58512  10.935   7.983   7.603
54445W        W58513  11.721   9.372  10.164
54446W        W58514  13.079   8.770   9.343
54447W        W58515  12.946  10.849   7.639
54448W        W58516  11.092   9.356   7.336
54449W        W58517  11.827   9.767  10.462
54450W        W58518  11.348   8.934  10.093
54451W        W58519  12.339   9.039   9.887
54452W        W58520  14.107   7.398  10.149
54453W        W58521  14.505   9.008  10.140
54454W        W58522  14.493   9.208   7.826
54455W        W58523  13.356   9.540   7.925
54456W        W58524  13.830  10.840   7.620
54457W        W58525  13.007   8.830  10.762
54458W        W58526  11.337   9.797  10.802
54459W        W58527  14.543   7.719  10.754
54460W        W58528  14.261   8.647   9.375
54461W        W58529  12.569  10.777  10.852
54462W        W58530  12.424   7.406   7.579
54463W        W58531  13.963  10.005   7.522
54464W        W58532  11.732   8.098  10.408
54465W        W58533  12.166  10.092  10.270
54466W        W58534  14.292   8.083  10.068
54467W        W58535  13.503  10.742   8.036
54468W        W58536  13.742   9.361   9.403
54469W        W58537  11.992   7.777  10.070
54470W        W58538  12.461   8.846  10.827
54471W        W58539  11.964  10.025   8.021
54472W        W58540  13.719   9.523   8.285
54473W        W58541  11.487   8.149  10.009
54474W        W58542  12.816  10.211   8.473
54475W        W58543  14.566   8.771   8.654
54476W        W58544  12.788   7.404  10.373
54477W        W58545  13.568  10.109   9.452
54478W        W58546  13.871  10.453   9.160
54479W        W58547  13.090  10.255   7.588
54480W        W58548  11.100  10.147  10.430
54481W        W58549  11.843   8.139   9.668
54482W        W58550  11.813   7.487   8.778
54483W        W58551  13.434   8.329   9.470
54484W        W58552  12.232   9.500   7.670
54485W        W58553  14.230   9.442   9.169
54486W        W58554  11.557  10.200  10.592
54487W        W58555  13.944  10.882   8.389
54488W        W58556  12.043   7.902   8.834
54489W        W58557  11.812   9.395   8.924
54490W        W58558  12.125  10.806   9.674
54491W        W58559  14.192  10.902  10.706
54492W        W58560  13.351   9.090   9.639
54493W        W58561  11.200   8.888   7.554
54494W        W58562  14.334  10.546   8.251
54495W        W58563  14.171   7.870   7.870
54496W        W58564  12.310   7.389  10.273
54497W        W58565  14.016  10.191   8.731
54498W        W58566  14.045   8.747   8.636
54499W        W58567  12.162   8.420   8.852
54500W        W58568  12.407   8.682  10.176
54501W        W58569  13.518   9.835  10.039
54502W        W58570  12.168   8.289  10.151
54503W        W58571  12.147  10.755   8.767
54504W        W58572  11.464  10.714  10.401
54505W        W58573  11.576  10.075   7.531
54506W        W58574  14.093   9.833   8.341
54507W        W58575  11.697   8.625  10.227
54508W        W58576  14.470   8.555   7.708
54509W        W58577  12.215   9.612   8.179
54510W        W58578  13.314   8.994  10.260
54511W        W58579  13.205   8.622   9.804
54512W        W58580  11.765   8.994   9.833
54513W        W58581  13.975  10.882   9.662
54514W        W58582  13.766   7.516  10.656
54515W        W58583  11.430   7.666  10.243
54516W        W58584  11.769   8.689   9.296
54517W        W58585  12.138   8.503   7.418
54518W        W58586  10.941  10.262   9.963
54519W        W58587  12.526   8.971   9.406
54520W        W58588  12.349   7.996   7.511
54521W        W58589  11.484   8.812   8.292
54522W        W58590  11.255  10.664   9.729
54523W        W58591  14.050   8.890   7.837
54524W        W58592  14.145   7.806  10.523
54525W        W58593  13.581  10.015   8.486
54526W        W58594  11.179   8.939  10.663
54527W        W58595  14.145   7.403   7.959
54528W        W58596  13.665   9.878   7.970
54529W        W58597  12.567   8.936   8.055
54530W        W58598  13.754   7.740   7.578
54531W        W58599  13.819   8.347   9.764
54532W        W58600  11.528   8.940   8.971
54533W        W58601  11.822   9.879   8.620
54534W        W58602  13.585   8.499   8.585
54535W        W58603  12.608   7.878   9.281
54536W        W58604  14.570   9.789   9.792
54537W        W58605  14.488   7.776   9.353
54538W        W58606  11.027  10.606   8.729
54539W        W58607  11.536   9.793   8.265
54540W        W58608  11.451   7.410  10.818
54541W        W58609  12.570  10.263  10.920
54542W        W58610  14.325   9.231   8.710
54543W        W58611  13.679   9.408   7.590
54544W        W58612  12.974  10.929   9.802
54545W        W58613  13.831   9.651  10.839
54546W        W58614  12.646   7.361   8.119
54547W        W58615  13.359   8.230   8.978
54548W        W58616  11.045   9.817   9.310
54549W        W58617  12.298   7.779   7.951
54550W        W58618  12.102   9.263  10.800
54551W        W58619  13.096   8.244   8.514
54552W        W58620  13.301   9.654   9.636
54553W        W58621  11.455  10.259  10.071
54554W        W58622  12.046  10.242  10.794
54555W        W58623  11.897   8.039   7.808
54556W        W58624  13.414   8.181   8.133
54557W        W58625  13.372  10.289  10.370
54558W        W58626  12.057   8.881   8.969
54559W        W58627  11.712  10.579   9.834
54560W        W58628  14.457  10.696   7.435
54561W        W58629  11.320   9.368  10.431
54562W        W58630  13.315   9.630   9.119
54563W        W58631  11.751   9.279   8.361
54564W        W58632  12.122  10.286   9.756
54565W        W58633  12.500   7.705   8.797
54566W        W58634  11.111   9.689   7.727
54567W        W58635  12.630   8.640   7.597
54568W        W58636  11.276   9.189   8.616
54569W        W58637  12.566   7.831  10.080
54570W        W58638  14.238   7.540   7.507
54571W        W58639  14.331   9.286  10.606
54572W        W58640  12.985  10.543  10.758
54573W        W58641  14.543   9.637  10.280
54574W        W58642  13.951  10.435  10.891
54575W        W58643  11.690  10.891   9.369
54576W        W58644  14.549   9.513   8.243
54577W        W58645  13.079   8.780   8.756
54578W        W58646  12.846   7.392   8.646
54579W        W58647  11.905  10.376   8.483
54580W        W58648  12.404   8.117   9.708
54581W        W58649  12.104   7.486   9.177
54582W        W58650  11.167  10.308   7.725
54583W        W58651  12.983   9.672   8.443
54584W        W58652  11.858  10.467  10.322
54585W        W58653  11.335   9.290   8.018
54586W        W58654  11.220   7.833   9.017
54587W        W58655  12.768   9.798   9.074
54588W        W58656  11.020   7.652   8.094
54589W        W58657  13.684   8.858  10.021
54590W        W58658  13.561   8.244   7.593
54591W        W58659  14.078   9.916   9.241
54592W        W58660  12.739  10.400   9.072
54593W        W58661  12.151  10.504   7.983
54594W        W58662  13.433   7.407   7.413
54595W        W58663  11.233  10.667   9.154
54596W        W58664  13.430   8.425  10.789
54597W        W58665  11.413   7.955  10.788
54598W        W58666  11.144   8.555   8.121
54599W        W58667  11.835   8.544   7.846
54600W        W58668  13.598   8.871  10.663
54601W        W58669  11.941   9.152   9.372
54602W        W58670  13.415   7.438   8.492
54603W        W58671  12.546  10.869   8.995
54604W        W58672  13.760  10.331   9.932
54605W        W58673  13.344  10.480   9.043
54606W        W58674  13.363   9.460   8.637
54607W        W58675  12.825   7.685   7.708
54608W        W58676  14.506   7.313   8.430
54609W        W58677  12.194   8.948   7.593
54610W        W58678  14.360   8.285   8.583
54611W        W58679  13.052   9.455   7.460
54612W        W58680  13.988   9.655  10.208
54613W        W58681  13.642  10.356   7.675
54614W        W58682  12.257   8.031  10.581
54615W        W58683  12.077   8.615   9.822
54616W        W58684  14.169  10.110  10.099
54617W        W58685  13.269   8.060  10.476
54618W        W58686  11.113   8.531  10.253
54619W        W58687  12.873   9.008   9.979
54620W        W58688  11.230   9.766   8.636
54621W        W58689  11.377   9.063   9.526
54622W        W58690  13.694   9.349   9.876
54623W        W58691  13.466  10.729  10.687
54624W        W58692  13.362   8.468  10.240
54625W        W58693  13.639  10.522   8.645
54626W        W58694  12.641  10.242   9.968
54627W        W58695  12.126  10.597   9.237
54628W        W58696  13.931   9.768   9.656
54629W        W58697  12.981   9.840  10.793
54630W        W58698  11.586   9.793   9.132
54631W        W58699  13.932   9.552   8.777
54632W        W58700  13.573  10.618   9.528
54633W        W58701  11.551  10.347   9.398
54634W        W58702  12.572   8.399  10.608
54635W        W58703  13.023  10.565   8.119
54636W        W58704  12.331   9.820  10.757
54637W        W58705  12.457  10.058   8.134
54638W        W58706  11.678   8.798   7.393
54639W        W58707  11.017  10.884  14.292
54640W        W58708  11.393   9.777  13.815
54641W        W58709  14.098   9.507  11.585
54642W        W58710  14.228  10.592  13.612
54643W        W58711  12.146  10.583  11.138
54644W        W58712  12.229   8.735  12.121
54645W        W58713  11.744   8.583  12.285
54646W        W58714  12.735   9.398  11.719
54647W        W58715  12.410  10.490  14.074
54648W        W58716  11.059   8.051  14.037
54649W        W58717  11.821   7.331  13.839
54650W        W58718  13.515   7.719  12.726
54651W        W58719  13.164   8.590  11.296
54652W        W58720  13.734   8.024  14.387
54653W        W58721  11.100   7.816  13.512
54654W        W58722  11.199  10.435  14.533
54655W        W58723  12.721   9.825  11.265
54656W        W58724  11.153   8.608  12.958
54657W        W58725  12.046   8.499  14.195
54658W        W58726  14.505   8.358  12.694
54659W        W58727  14.269   9.401  13.553
54660W        W58728  12.577   8.734  12.580
54661W        W58729  13.123  10.073  12.949
54662W        W58730  11.623   9.507  13.181
54663W        W58731  10.982   9.035  12.752
54664W        W58732  12.018   9.007  13.944
54665W        W58733  14.289   8.790  14.198
54666W        W58734  11.905  10.234  12.643
54667W        W58735  13.026   9.923  13.777
54668W        W58736  12.246   8.563  13.002
54669W        W58737  12.538   9.347  12.645
54670W        W58738  13.535  10.120  14.493
54671W        W58739  12.614   9.440  14.503
54672W        W58740  12.595   9.156  13.981
54673W        W58741  11.004   8.547  14.503
54674W        W58742  13.836  10.082  14.102
54675W        W58743  11.417   7.664  12.100
54676W        W58744  11.944   9.922  13.099
54677W        W58745  14.407   9.705  12.389
54678W        W58746  13.820   8.105  12.956
54679W        W58747  14.105   8.058  11.051
54680W        W58748  14.570   8.859  13.357
54681W        W58749  12.537  10.566  13.110
54682W        W58750  14.311  10.032  11.548
54683W        W58751  11.440  10.818  11.302
54684W        W58752  11.833  10.864  11.978
54685W        W58753  11.630   7.618  13.404
54686W        W58754  14.253   8.636  13.679
54687W        W58755  13.658   9.058  12.138
54688W        W58756  13.624   8.746  11.165
54689W        W58757  12.832   9.890  13.305
54690W        W58758  12.638   8.220  12.504
54691W        W58759  13.238  10.307  13.498
54692W        W58760  14.109   9.098  11.920
54693W        W58761  13.011   7.756  11.936
54694W        W58762  11.668  10.450  11.619
54695W        W58763  11.039   7.949  12.218
54696W        W58764  13.825   8.556  12.692
54697W        W58765  11.283  10.173  12.607
54698W        W58766  12.624  10.523  11.477
54699W        W58767  14.016   8.549  10.941
54700W        W58768  11.039  10.307  13.105
54701W        W58769  11.830   9.879  13.585
54702W        W58770  12.203   9.239  12.204
54703W        W58771  12.225   7.644  13.297
54704W        W58772  14.454   7.406  12.594
54705W        W58773  11.673   9.278  11.062
54706W        W58774  11.328   8.311  11.241
54707W        W58775  11.390  10.267  12.035
54708W        W58776  12.521   9.750  12.283
54709W        W58777  13.853  10.609  13.997
54710W        W58778  12.779   8.251  11.681
54711W        W58779  14.162  10.649  12.453
54712W        W58780  13.839   8.502  14.051
54713W        W58781  14.552  10.158  12.185
54714W        W58782  13.179   9.450  13.669
54715W        W58783  10.945   9.001  11.875
54716W        W58784  12.056   9.416  13.448
54717W        W58785  13.260   8.680  11.826
54718W        W58786  13.137   9.170  11.930
54719W        W58787  11.480   8.590  13.404
54720W        W58788  11.465   8.466  14.326
54721W        W58789  11.355   7.383  12.485
54722W        W58790  13.123   7.730  13.046
54723W        W58791  12.771   7.915  14.209
54724W        W58792  13.126   8.064  11.387
54725W        W58793  14.309  10.457  14.141
54726W        W58794  13.276   7.538  14.180
54727W        W58795  14.295   9.839  14.302
54728W        W58796  13.725   8.006  13.898
54729W        W58797  13.525   7.944  12.168
54730W        W58798  13.918   9.078  14.572
54731W        W58799  11.658  10.654  12.558
54732W        W58800  12.316   8.371  11.544
54733W        W58801  11.885   7.655  14.208
54734W        W58802  13.937   8.139  11.889
54735W        W58803  14.304   8.621  11.834
54736W        W58804  12.047  10.838  14.305
54737W        W58805  11.973   7.374  11.540
54738W        W58806  14.294   7.908  12.575
54739W        W58807  14.444  10.157  11.020
54740W        W58808  11.351   9.360  12.722
54741W        W58809  13.268   7.947  10.952
54742W        W58810  14.402  10.279  12.672
54743W        W58811  14.441   7.473  13.422
54744W        W58812  12.886   8.685  13.976
54745W        W58813  12.979  10.024  11.679
54746W        W58814  13.379   9.318  14.419
54747W        W58815  13.053   7.295  12.728
54748W        W58816  11.665   8.198  12.791
54749W        W58817  11.219   9.398  13.565
54750W        W58818  13.078  10.591  12.271
54751W        W58819  14.272   8.188  13.143
54752W        W58820  12.909  10.535  13.910
54753W        W58821  14.252   9.594  11.115
54754W        W58822  12.687   9.077  12.176
54755W        W58823  14.539   7.588  13.917
54756W        W58824  12.688   9.423  13.511
54757W        W58825  12.905   8.309  12.956
54758W        W58826  13.757   8.607  11.794
54759W        W58827  14.044   8.340  11.436
54760W        W58828  13.853  10.380  11.825
54761W        W58829  13.687   9.983  12.621
54762W        W58830  13.583   9.062  11.599
54763W        W58831  13.016   9.272  12.585
54764W        W58832  13.897   9.060  12.652
54765W        W58833  11.272   8.075  13.076
54766W        W58834  14.050   9.127  13.903
54767W        W58835  14.401  10.745  13.049
54768W        W58836  12.331  10.189  12.451
54769W        W58837  13.338  10.722  13.775
54770W        W58838  13.332   8.052  13.539
54771W        W58839  12.539  10.760  13.600
54772W        W58840  14.236   7.714  12.066
54773W        W58841  14.027   9.033  13.367
54774W        W58842  11.010   8.354  13.405
54775W        W58843  13.870   8.149  12.423
54776W        W58844  14.281   8.300  14.200
54777W        W58845  13.166   9.999  12.418
54778W        W58846  12.422  10.590  12.031
54779W        W58847  11.537   7.770  11.289
54780W        W58848  12.641   7.424  13.099
54781W        W58849  11.669  10.544  10.947
54782W        W58850  12.043   9.010  11.698
54783W        W58851  12.697   9.639  14.011
54784W        W58852  12.527   7.997  12.001
54785W        W58853  13.883   7.594  12.429
54786W        W58854  13.603  10.876  12.757
54787W        W58855  13.015  10.524  13.097
54788W        W58856  12.411   9.561  13.058
54789W        W58857  14.181  10.284  13.184
54790W        W58858  11.875   7.787  11.953
54791W        W58859  12.397  10.084  12.913
54792W        W58860  11.880   8.015  10.978
54793W        W58861  12.681   8.624  13.372
54794W        W58862  13.529   7.490  13.242
54795W        W58863  10.949   9.333  13.127
54796W        W58864  12.653   9.151  11.285
54797W        W58865  11.921   7.466  11.055
54798W        W58866  12.659   8.547  12.106
54799W        W58867  13.629   7.523  13.805
54800W        W58868  12.217   9.535  13.914
54801W        W58869  13.021   9.317  14.131
54802W        W58870  13.638   9.347  14.024
54803W        W58871  12.922   7.487  14.529
54804W        W58872  12.144   8.103  12.922
54805W        W58873  11.570   8.059  12.320
54806W        W58874  11.356  10.771  11.996
54807W        W58875  12.688  10.101  14.121
54808W        W58876  11.723   9.586  11.480
54809W        W58877  13.403   8.971  12.701
54810W        W58878  13.683   8.770  13.100
54811W        W58879  12.888   9.444  13.034
54812W        W58880  13.358   9.818  11.166
54813W        W58881  13.030   7.839  12.494
54814W        W58882  14.509   8.117  11.762
54815W        W58883  11.003  10.706  13.793
54816W        W58884  11.420   9.932  13.325
54817W        W58885  10.987  10.778  11.557
54818W        W58886  12.886   8.048  13.363
54819W        W58887  12.249  10.071  11.212
54820W        W58888  14.154  10.453  11.398
54821W        W58889  13.129   9.106  11.412
54822W        W58890  11.972   8.297  11.929
54823W        W58891  12.804   8.207  10.981
54824W        W58892  13.388   9.772  14.159
54825W        W58893  13.741   7.678  11.776
54826W        W58894  11.071   7.526  11.224
54827W        W58895  12.357   9.845  13.514
54828W        W58896  12.156   9.761  12.606
54829W        W58897  11.898   9.713  11.004
54830W        W58898  11.139   9.954  11.772
54831W        W58899  11.643   9.024  14.214
54832W        W58900  12.347   7.584  14.400
54833W        W58901  13.056   7.726  13.756
54834W        W58902  12.251   7.494  12.037
54835W        W58903  13.310   7.571  11.542
54836W        W58904  11.255   7.503  13.119
54837W        W58905  11.303   8.466  12.489
54838W        W58906  13.992   7.574  12.895
54839W        W58907  11.414   8.072  11.709
54840W        W58908  13.985   7.760  13.325
54841W        W58909  14.381   8.963  11.010
54842W        W58910  11.673   7.721  12.829
54843W        W58911  12.787   8.293  13.769
54844W        W58912  10.935   7.983  11.247
54845W        W58913  11.721   9.372  13.808
54846W        W58914  13.079   8.770  12.987
54847W        W58915  12.946  10.849  11.283
54848W        W58916  11.092   9.356  10.980
54849W        W58917  11.827   9.767  14.106
54850W        W58918  11.348   8.934  13.737
54851W        W58919  12.339   9.039  13.531
54852W        W58920  14.107   7.398  13.793
54853W        W58921  14.505   9.008  13.784
54854W        W58922  14.493   9.208  11.470
54855W        W58923  13.356   9.540  11.569
54856W        W58924  13.830  10.840  11.264
54857W        W58925  13.007   8.830  14.406
54858W        W58926  11.337   9.797  14.446
54859W        W58927  14.543   7.719  14.398
54860W        W58928  14.261   8.647  13.019
54861W        W58929  12.569  10.777  14.496
54862W        W58930  12.424   7.406  11.223
54863W        W58931  13.963  10.005  11.166
54864W        W58932  11.732   8.098  14.052
54865W        W58933  12.166  10.092  13.914
54866W        W58934  14.292   8.083  13.712
54867W        W58935  13.503  10.742  11.680
54868W        W58936  13.742   9.361  13.047
54869W        W58937  11.992   7.777  13.714
54870W        W58938  12.461   8.846  14.471
54871W        W58939  11.964  10.025  11.665
54872W        W58940  13.719   9.523  11.929
54873W        W58941  11.487   8.149  13.653
54874W        W58942  12.816  10.211  12.117
54875W        W58943  14.566   8.771  12.298
54876W        W58944  12.788   7.404  14.017
54877W        W58945  13.568  10.109  13.096
54878W        W58946  13.871  10.453  12.804
54879W        W58947  13.090  10.255  11.232
54880W        W58948  11.100  10.147  14.074
54881W        W58949  11.843   8.139  13.312
54882W        W58950  11.813   7.487  12.422
54883W        W58951  13.434   8.329  13.114
54884W        W58952  12.232   9.500  11.314
54885W        W58953  14.230   9.442  12.813
54886W        W58954  11.557  10.200  14.236
54887W        W58955  13.944  10.882  12.033
54888W        W58956  12.043   7.902  12.478
54889W        W58957  11.812   9.395  12.568
54890W        W58958  12.125  10.806  13.318
54891W        W58959  14.192  10.902  14.350
54892W        W58960  13.351   9.090  13.283
54893W        W58961  11.200   8.888  11.198
54894W        W58962  14.334  10.546  11.895
54895W        W58963  14.171   7.870  11.514
54896W        W58964  12.310   7.389  13.917
54897W        W58965  14.016  10.191  12.375
54898W        W58966  14.045   8.747  12.280
54899W        W58967  12.162   8.420  12.496
54900W        W58968  12.407   8.682  13.820
54901W        W58969  13.518   9.835  13.683
54902W        W58970  12.168   8.289  13.795
54903W        W58971  12.147  10.755  12.411
54904W        W58972  11.464  10.714  14.045
54905W        W58973  11.576  10.075  11.175
54906W        W58974  14.093   9.833  11.985
54907W        W58975  11.697   8.625  13.871
54908W        W58976  14.470   8.555  11.352
54909W        W58977  12.215   9.612  11.823
54910W        W58978  13.314   8.994  13.904
54911W        W58979  13.205   8.622  13.448
54912W        W58980  11.765   8.994  13.477
54913W        W58981  13.975  10.882  13.306
54914W        W58982  13.766   7.516  14.300
54915W        W58983  11.430   7.666  13.887
54916W        W58984  11.769   8.689  12.940
54917W        W58985  12.138   8.503  11.062
54918W        W58986  10.941  10.262  13.607
54919W        W58987  12.526   8.971  13.050
54920W        W58988  12.349   7.996  11.155
54921W        W58989  11.484   8.812  11.936
54922W        W58990  11.255  10.664  13.373
54923W        W58991  14.050   8.890  11.481
54924W        W58992  14.145   7.806  14.167
54925W        W58993  13.581  10.015  12.130
54926W        W58994  11.179   8.939  14.307
54927W        W58995  14.145   7.403  11.603
54928W        W58996  13.665   9.878  11.614
54929W        W58997  12.567   8.936  11.699
54930W        W58998  13.754   7.740  11.222
54931W        W58999  13.819   8.347  13.408
54932W        W59000  11.528   8.940  12.615
54933W        W59001  11.822   9.879  12.264
54934W        W59002  13.585   8.499  12.229
54935W        W59003  12.608   7.878  12.925
54936W        W59004  14.570   9.789  13.436
54937W        W59005  14.488   7.776  12.997
54938W        W59006  11.027  10.606  12.373
54939W        W59007  11.536   9.793  11.909
54940W        W59008  11.451   7.410  14.462
54941W        W59009  12.570  10.263  14.564
54942W        W59010  14.325   9.231  12.354
54943W        W59011  13.679   9.408  11.234
54944W        W59012  12.974  10.929  13.446
54945W        W59013  13.831   9.651  14.483
54946W        W59014  12.646   7.361  11.763
54947W        W59015  13.359   8.230  12.622
54948W        W59016  11.045   9.817  12.954
54949W        W59017  12.298   7.779  11.595
54950W        W59018  12.102   9.263  14.444
54951W        W59019  13.096   8.244  12.158
54952W        W59020  13.301   9.654  13.280
54953W        W59021  11.455  10.259  13.715
54954W        W59022  12.046  10.242  14.438
54955W        W59023  11.897   8.039  11.452
54956W        W59024  13.414   8.181  11.777
54957W        W59025  13.372  10.289  14.014
54958W        W59026  12.057   8.881  12.613
54959W        W59027  11.712  10.579  13.478
54960W        W59028  14.457  10.696  11.079
54961W        W59029  11.320   9.368  14.075
54962W        W59030  13.315   9.630  12.763
54963W        W59031  11.751   9.279  12.005
54964W        W59032  12.122  10.286  13.400
54965W        W59033  12.500   7.705  12.441
54966W        W59034  11.111   9.689  11.371
54967W        W59035  12.630   8.640  11.241
54968W        W59036  11.276   9.189  12.260
54969W        W59037  12.566   7.831  13.724
54970W        W59038  14.238   7.540  11.151
54971W        W59039  14.331   9.286  14.250
54972W        W59040  12.985  10.543  14.402
54973W        W59041  14.543   9.637  13.924
54974W        W59042  13.951  10.435  14.535
54975W        W59043  11.690  10.891  13.013
54976W        W59044  14.549   9.513  11.887
54977W        W59045  13.079   8.780  12.400
54978W        W59046  12.846   7.392  12.290
54979W        W59047  11.905  10.376  12.127
54980W        W59048  12.404   8.117  13.352
54981W        W59049  12.104   7.486  12.821
54982W        W59050  11.167  10.308  11.369
54983W        W59051  12.983   9.672  12.087
54984W        W59052  11.858  10.467  13.966
54985W        W59053  11.335   9.290  11.662
54986W        W59054  11.220   7.833  12.661
54987W        W59055  12.768   9.798  12.718
54988W        W59056  11.020   7.652  11.738
54989W        W59057  13.684   8.858  13.665
54990W        W59058  13.561   8.244  11.237
54991W        W59059  14.078   9.916  12.885
54992W        W59060  12.739  10.400  12.716
54993W        W59061  12.151  10.504  11.627
54994W        W59062  13.433   7.407  11.057
54995W        W59063  11.233  10.667  12.798
54996W        W59064  13.430   8.425  14.433
54997W        W59065  11.413   7.955  14.432
54998W        W59066  11.144   8.555  11.765
54999W        W59067  11.835   8.544  11.490
55000W        W59068  13.598   8.871  14.307
55001W        W59069  11.941   9.152  13.016
55002W        W59070  13.415   7.438  12.136
55003W        W59071  12.546  10.869  12.639
55004W        W59072  13.760  10.331  13.576
55005W        W59073  13.344  10.480  12.687
55006W        W59074  13.363   9.460  12.281
55007W        W59075  12.825   7.685  11.352
55008W        W59076  14.506   7.313  12.074
55009W        W59077  12.194   8.948  11.237
55010W        W59078  14.360   8.285  12.227
55011W        W59079  13.052   9.455  11.104
55012W        W59080  13.988   9.655  13.852
55013W        W59081  13.642  10.356  11.319
55014W        W59082  12.257   8.031  14.225
55015W        W59083  12.077   8.615  13.466
55016W        W59084  14.169  10.110  13.743
55017W        W59085  13.269   8.060  14.120
55018W        W59086  11.113   8.531  13.897
55019W        W59087  12.873   9.008  13.623
55020W        W59088  11.230   9.766  12.280
55021W        W59089  11.377   9.063  13.170
55022W        W59090  13.694   9.349  13.520
55023W        W59091  13.466  10.729  14.331
55024W        W59092  13.362   8.468  13.884
55025W        W59093  13.639  10.522  12.289
55026W        W59094  12.641  10.242  13.612
55027W        W59095  12.126  10.597  12.881
55028W        W59096  13.931   9.768  13.300
55029W        W59097  12.981   9.840  14.437
55030W        W59098  11.586   9.793  12.776
55031W        W59099  13.932   9.552  12.421
55032W        W59100  13.573  10.618  13.172
55033W        W59101  11.551  10.347  13.042
55034W        W59102  12.572   8.399  14.252
55035W        W59103  13.023  10.565  11.763
55036W        W59104  12.331   9.820  14.401
55037W        W59105  12.457  10.058  11.778
55038W        W59106  11.678   8.798  11.037
55039W        W59107  11.017  10.884  17.936
55040W        W59108  11.393   9.777  17.459
55041W        W59109  14.098   9.507  15.229
55042W        W59110  14.228  10.592  17.256
55043W        W59111  12.146  10.583  14.782
55044W        W59112  12.229   8.735  15.765
55045W        W59113  11.744   8.583  15.929
55046W        W59114  12.735   9.398  15.363
55047W        W59115  12.410  10.490  17.718
55048W        W59116  11.059   8.051  17.681
55049W        W59117  11.821   7.331  17.483
55050W        W59118  13.515   7.719  16.370
55051W        W59119  13.164   8.590  14.940
55052W        W59120  13.734   8.024  18.031
55053W        W59121  11.100   7.816  17.156
55054W        W59122  11.199  10.435  18.177
55055W        W59123  12.721   9.825  14.909
55056W        W59124  11.153   8.608  16.602
55057W        W59125  12.046   8.499  17.839
55058W        W59126  14.505   8.358  16.338
55059W        W59127  14.269   9.401  17.197
55060W        W59128  12.577   8.734  16.224
55061W        W59129  13.123  10.073  16.593
55062W        W59130  11.623   9.507  16.825
55063W        W59131  10.982   9.035  16.396
55064W        W59132  12.018   9.007  17.588
55065W        W59133  14.289   8.790  17.842
55066W        W59134  11.905  10.234  16.287
55067W        W59135  13.026   9.923  17.421
55068W        W59136  12.246   8.563  16.646
55069W        W59137  12.538   9.347  16.289
55070W        W59138  13.535  10.120  18.137
55071W        W59139  12.614   9.440  18.147
55072W        W59140  12.595   9.156  17.625
55073W        W59141  11.004   8.547  18.147
55074W        W59142  13.836  10.082  17.746
55075W        W59143  11.417   7.664  15.744
55076W        W59144  11.944   9.922  16.743
55077W        W59145  14.407   9.705  16.033
55078W        W59146  13.820   8.105  16.600
55079W        W59147  14.105   8.058  14.695
55080W        W59148  14.570   8.859  17.001
55081W        W59149  12.537  10.566  16.754
55082W        W59150  14.311  10.032  15.192
55083W        W59151  11.440  10.818  14.946
55084W        W59152  11.833  10.864  15.622
55085W        W59153  11.630   7.618  17.048
55086W        W59154  14.253   8.636  17.323
55087W        W59155  13.658   9.058  15.782
55088W        W59156  13.624   8.746  14.809
55089W        W59157  12.832   9.890  16.949
55090W        W59158  12.638   8.220  16.148
55091W        W59159  13.238  10.307  17.142
55092W        W59160  14.109   9.098  15.564
55093W        W59161  13.011   7.756  15.580
55094W        W59162  11.668  10.450  15.263
55095W        W59163  11.039   7.949  15.862
55096W        W59164  13.825   8.556  16.336
55097W        W59165  11.283  10.173  16.251
55098W        W59166  12.624  10.523  15.121
55099W        W59167  14.016   8.549  14.585
55100W        W59168  11.039  10.307  16.749
55101W        W59169  11.830   9.879  17.229
55102W        W59170  12.203   9.239  15.848
55103W        W59171  12.225   7.644  16.941
55104W        W59172  14.454   7.406  16.238
55105W        W59173  11.673   9.278  14.706
55106W        W59174  11.328   8.311  14.885
55107W        W59175  11.390  10.267  15.679
55108W        W59176  12.521   9.750  15.927
55109W        W59177  13.853  10.609  17.641
55110W        W59178  12.779   8.251  15.325
55111W        W59179  14.162  10.649  16.097
55112W        W59180  13.839   8.502  17.695
55113W        W59181  14.552  10.158  15.829
55114W        W59182  13.179   9.450  17.313
55115W        W59183  10.945   9.001  15.519
55116W        W59184  12.056   9.416  17.092
55117W        W59185  13.260   8.680  15.470
55118W        W59186  13.137   9.170  15.574
55119W        W59187  11.480   8.590  17.048
55120W        W59188  11.465   8.466  17.970
55121W        W59189  11.355   7.383  16.129
55122W        W59190  13.123   7.730  16.690
55123W        W59191  12.771   7.915  17.853
55124W        W59192  13.126   8.064  15.031
55125W        W59193  14.309  10.457  17.785
55126W        W59194  13.276   7.538  17.824
55127W        W59195  14.295   9.839  17.946
55128W        W59196  13.725   8.006  17.542
55129W        W59197  13.525   7.944  15.812
55130W        W59198  13.918   9.078  18.216
55131W        W59199  11.658  10.654  16.202
55132W        W59200  12.316   8.371  15.188
55133W        W59201  11.885   7.655  17.852
55134W        W59202  13.937   8.139  15.533
55135W        W59203  14.304   8.621  15.478
55136W        W59204  12.047  10.838  17.949
55137W        W59205  11.973   7.374  15.184
55138W        W59206  14.294   7.908  16.219
55139W        W59207  14.444  10.157  14.664
55140W        W59208  11.351   9.360  16.366
55141W        W59209  13.268   7.947  14.596
55142W        W59210  14.402  10.279  16.316
55143W        W59211  14.441   7.473  17.066
55144W        W59212  12.886   8.685  17.620
55145W        W59213  12.979  10.024  15.323
55146W        W59214  13.379   9.318  18.063
55147W        W59215  13.053   7.295  16.372
55148W        W59216  11.665   8.198  16.435
55149W        W59217  11.219   9.398  17.209
55150W        W59218  13.078  10.591  15.915
55151W        W59219  14.272   8.188  16.787
55152W        W59220  12.909  10.535  17.554
55153W        W59221  14.252   9.594  14.759
55154W        W59222  12.687   9.077  15.820
55155W        W59223  14.539   7.588  17.561
55156W        W59224  12.688   9.423  17.155
55157W        W59225  12.905   8.309  16.600
55158W        W59226  13.757   8.607  15.438
55159W        W59227  14.044   8.340  15.080
55160W        W59228  13.853  10.380  15.469
55161W        W59229  13.687   9.983  16.265
55162W        W59230  13.583   9.062  15.243
55163W        W59231  13.016   9.272  16.229
55164W        W59232  13.897   9.060  16.296
55165W        W59233  11.272   8.075  16.720
55166W        W59234  14.050   9.127  17.547
55167W        W59235  14.401  10.745  16.693
55168W        W59236  12.331  10.189  16.095
55169W        W59237  13.338  10.722  17.419
55170W        W59238  13.332   8.052  17.183
55171W        W59239  12.539  10.760  17.244
55172W        W59240  14.236   7.714  15.710
55173W        W59241  14.027   9.033  17.011
55174W        W59242  11.010   8.354  17.049
55175W        W59243  13.870   8.149  16.067
55176W        W59244  14.281   8.300  17.844
55177W        W59245  13.166   9.999  16.062
55178W        W59246  12.422  10.590  15.675
55179W        W59247  11.537   7.770  14.933
55180W        W59248  12.641   7.424  16.743
55181W        W59249  11.669  10.544  14.591
55182W        W59250  12.043   9.010  15.342
55183W        W59251  12.697   9.639  17.655
55184W        W59252  12.527   7.997  15.645
55185W        W59253  13.883   7.594  16.073
55186W        W59254  13.603  10.876  16.401
55187W        W59255  13.015  10.524  16.741
55188W        W59256  12.411   9.561  16.702
55189W        W59257  14.181  10.284  16.828
55190W        W59258  11.875   7.787  15.597
55191W        W59259  12.397  10.084  16.557
55192W        W59260  11.880   8.015  14.622
55193W        W59261  12.681   8.624  17.016
55194W        W59262  13.529   7.490  16.886
55195W        W59263  10.949   9.333  16.771
55196W        W59264  12.653   9.151  14.929
55197W        W59265  11.921   7.466  14.699
55198W        W59266  12.659   8.547  15.750
55199W        W59267  13.629   7.523  17.449
55200W        W59268  12.217   9.535  17.558
55201W        W59269  13.021   9.317  17.775
55202W        W59270  13.638   9.347  17.668
55203W        W59271  12.922   7.487  18.173
55204W        W59272  12.144   8.103  16.566
55205W        W59273  11.570   8.059  15.964
55206W        W59274  11.356  10.771  15.640
55207W        W59275  12.688  10.101  17.765
55208W        W59276  11.723   9.586  15.124
55209W        W59277  13.403   8.971  16.345
55210W        W59278  13.683   8.770  16.744
55211W        W59279  12.888   9.444  16.678
55212W        W59280  13.358   9.818  14.810
55213W        W59281  13.030   7.839  16.138
55214W        W59282  14.509   8.117  15.406
55215W        W59283  11.003  10.706  17.437
55216W        W59284  11.420   9.932  16.969
55217W        W59285  10.987  10.778  15.201
55218W        W59286  12.886   8.048  17.007
55219W        W59287  12.249  10.071  14.856
55220W        W59288  14.154  10.453  15.042
55221W        W59289  13.129   9.106  15.056
55222W        W59290  11.972   8.297  15.573
55223W        W59291  12.804   8.207  14.625
55224W        W59292  13.388   9.772  17.803
55225W        W59293  13.741   7.678  15.420
55226W        W59294  11.071   7.526  14.868
55227W        W59295  12.357   9.845  17.158
55228W        W59296  12.156   9.761  16.250
55229W        W59297  11.898   9.713  14.648
55230W        W59298  11.139   9.954  15.416
55231W        W59299  11.643   9.024  17.858
55232W        W59300  12.347   7.584  18.044
55233W        W59301  13.056   7.726  17.400
55234W        W59302  12.251   7.494  15.681
55235W        W59303  13.310   7.571  15.186
55236W        W59304  11.255   7.503  16.763
55237W        W59305  11.303   8.466  16.133
55238W        W59306  13.992   7.574  16.539
55239W        W59307  11.414   8.072  15.353
55240W        W59308  13.985   7.760  16.969
55241W        W59309  14.381   8.963  14.654
55242W        W59310  11.673   7.721  16.473
55243W        W59311  12.787   8.293  17.413
55244W        W59312  10.935   7.983  14.891
55245W        W59313  11.721   9.372  17.452
55246W        W59314  13.079   8.770  16.631
55247W        W59315  12.946  10.849  14.927
55248W        W59316  11.092   9.356  14.624
55249W        W59317  11.827   9.767  17.750
55250W        W59318  11.348   8.934  17.381
55251W        W59319  12.339   9.039  17.175
55252W        W59320  14.107   7.398  17.437
55253W        W59321  14.505   9.008  17.428
55254W        W59322  14.493   9.208  15.114
55255W        W59323  13.356   9.540  15.213
55256W        W59324  13.830  10.840  14.908
55257W        W59325  13.007   8.830  18.050
55258W        W59326  11.337   9.797  18.090
55259W        W59327  14.543   7.719  18.042
55260W        W59328  14.261   8.647  16.663
55261W        W59329  12.569  10.777  18.140
55262W        W59330  12.424   7.406  14.867
55263W        W59331  13.963  10.005  14.810
55264W        W59332  11.732   8.098  17.696
55265W        W59333  12.166  10.092  17.558
55266W        W59334  14.292   8.083  17.356
55267W        W59335  13.503  10.742  15.324
55268W        W59336  13.742   9.361  16.691
55269W        W59337  11.992   7.777  17.358
55270W        W59338  12.461   8.846  18.115
55271W        W59339  11.964  10.025  15.309
55272W        W59340  13.719   9.523  15.573
55273W        W59341  11.487   8.149  17.297
55274W        W59342  12.816  10.211  15.761
55275W        W59343  14.566   8.771  15.942
55276W        W59344  12.788   7.404  17.661
55277W        W59345  13.568  10.109  16.740
55278W        W59346  13.871  10.453  16.448
55279W        W59347  13.090  10.255  14.876
55280W        W59348  11.100  10.147  17.718
55281W        W59349  11.843   8.139  16.956
55282W        W59350  11.813   7.487  16.066
55283W        W59351  13.434   8.329  16.758
55284W        W59352  12.232   9.500  14.958
55285W        W59353  14.230   9.442  16.457
55286W        W59354  11.557  10.200  17.880
55287W        W59355  13.944  10.882  15.677
55288W        W59356  12.043   7.902  16.122
55289W        W59357  11.812   9.395  16.212
55290W        W59358  12.125  10.806  16.962
55291W        W59359  14.192  10.902  17.994
55292W        W59360  13.351   9.090  16.927
55293W        W59361  11.200   8.888  14.842
55294W        W59362  14.334  10.546  15.539
55295W        W59363  14.171   7.870  15.158
55296W        W59364  12.310   7.389  17.561
55297W        W59365  14.016  10.191  16.019
55298W        W59366  14.045   8.747  15.924
55299W        W59367  12.162   8.420  16.140
55300W        W59368  12.407   8.682  17.464
55301W        W59369  13.518   9.835  17.327
55302W        W59370  12.168   8.289  17.439
55303W        W59371  12.147  10.755  16.055
55304W        W59372  11.464  10.714  17.689
55305W        W59373  11.576  10.075  14.819
55306W        W59374  14.093   9.833  15.629
55307W        W59375  11.697   8.625  17.515
55308W        W59376  14.470   8.555  14.996
55309W        W59377  12.215   9.612  15.467
55310W        W59378  13.314   8.994  17.548
55311W        W59379  13.205   8.622  17.092
55312W        W59380  11.765   8.994  17.121
55313W        W59381  13.975  10.882  16.950
55314W        W59382  13.766   7.516  17.944
55315W        W59383  11.430   7.666  17.531
55316W        W59384  11.769   8.689  16.584
55317W        W59385  12.138   8.503  14.706
55318W        W59386  10.941  10.262  17.251
55319W        W59387  12.526   8.971  16.694
55320W        W59388  12.349   7.996  14.799
55321W        W59389  11.484   8.812  15.580
55322W        W59390  11.255  10.664  17.017
55323W        W59391  14.050   8.890  15.125
55324W        W59392  14.145   7.806  17.811
55325W        W59393  13.581  10.015  15.774
55326W        W59394  11.179   8.939  17.951
55327W        W59395  14.145   7.403  15.247
55328W        W59396  13.665   9.878  15.258
55329W        W59397  12.567   8.936  15.343
55330W        W59398  13.754   7.740  14.866
55331W        W59399  13.819   8.347  17.052
55332W        W59400  11.528   8.940  16.259
55333W        W59401  11.822   9.879  15.908
55334W        W59402  13.585   8.499  15.873
55335W        W59403  12.608   7.878  16.569
55336W        W59404  14.570   9.789  17.080
55337W        W59405  14.488   7.776  16.641
55338W        W59406  11.027  10.606  16.017
55339W        W59407  11.536   9.793  15.553
55340W        W59408  11.451   7.410  18.106
55341W        W59409  12.570  10.263  18.208
55342W        W59410  14.325   9.231  15.998
55343W        W59411  13.679   9.408  14.878
55344W        W59412  12.974  10.929  17.090
55345W        W59413  13.831   9.651  18.127
55346W        W59414  12.646   7.361  15.407
55347W        W59415  13.359   8.230  16.266
55348W        W59416  11.045   9.817  16.598
55349W        W59417  12.298   7.779  15.239
55350W        W59418  12.102   9.263  18.088
55351W        W59419  13.096   8.244  15.802
55352W        W59420  13.301   9.654  16.924
55353W        W59421  11.455  10.259  17.359
55354W        W59422  12.046  10.242  18.082
55355W        W59423  11.897   8.039  15.096
55356W        W59424  13.414   8.181  15.421
55357W        W59425  13.372  10.289  17.658
55358W        W59426  12.057   8.881  16.257
55359W        W59427  11.712  10.579  17.122
55360W        W59428  14.457  10.696  14.723
55361W        W59429  11.320   9.368  17.719
55362W        W59430  13.315   9.630  16.407
55363W        W59431  11.751   9.279  15.649
55364W        W59432  12.122  10.286  17.044
55365W        W59433  12.500   7.705  16.085
55366W        W59434  11.111   9.689  15.015
55367W        W59435  12.630   8.640  14.885
55368W        W59436  11.276   9.189  15.904
55369W        W59437  12.566   7.831  17.368
55370W        W59438  14.238   7.540  14.795
55371W        W59439  14.331   9.286  17.894
55372W        W59440  12.985  10.543  18.046
55373W        W59441  14.543   9.637  17.568
55374W        W59442  13.951  10.435  18.179
55375W        W59443  11.690  10.891  16.657
55376W        W59444  14.549   9.513  15.531
55377W        W59445  13.079   8.780  16.044
55378W        W59446  12.846   7.392  15.934
55379W        W59447  11.905  10.376  15.771
55380W        W59448  12.404   8.117  16.996
55381W        W59449  12.104   7.486  16.465
55382W        W59450  11.167  10.308  15.013
55383W        W59451  12.983   9.672  15.731
55384W        W59452  11.858  10.467  17.610
55385W        W59453  11.335   9.290  15.306
55386W        W59454  11.220   7.833  16.305
55387W        W59455  12.768   9.798  16.362
55388W        W59456  11.020   7.652  15.382
55389W        W59457  13.684   8.858  17.309
55390W        W59458  13.561   8.244  14.881
55391W        W59459  14.078   9.916  16.529
55392W        W59460  12.739  10.400  16.360
55393W        W59461  12.151  10.504  15.271
55394W        W59462  13.433   7.407  14.701
55395W        W59463  11.233  10.667  16.442
55396W        W59464  13.430   8.425  18.077
55397W        W59465  11.413   7.955  18.076
55398W        W59466  11.144   8.555  15.409
55399W        W59467  11.835   8.544  15.134
55400W        W59468  13.598   8.871  17.951
55401W        W59469  11.941   9.152  16.660
55402W        W59470  13.415   7.438  15.780
55403W        W59471  12.546  10.869  16.283
55404W        W59472  13.760  10.331  17.220
55405W        W59473  13.344  10.480  16.331
55406W        W59474  13.363   9.460  15.925
55407W        W59475  12.825   7.685  14.996
55408W        W59476  14.506   7.313  15.718
55409W        W59477  12.194   8.948  14.881
55410W        W59478  14.360   8.285  15.871
55411W        W59479  13.052   9.455  14.748
55412W        W59480  13.988   9.655  17.496
55413W        W59481  13.642  10.356  14.963
55414W        W59482  12.257   8.031  17.869
55415W        W59483  12.077   8.615  17.110
55416W        W59484  14.169  10.110  17.387
55417W        W59485  13.269   8.060  17.764
55418W        W59486  11.113   8.531  17.541
55419W        W59487  12.873   9.008  17.267
55420W        W59488  11.230   9.766  15.924
55421W        W59489  11.377   9.063  16.814
55422W        W59490  13.694   9.349  17.164
55423W        W59491  13.466  10.729  17.975
55424W        W59492  13.362   8.468  17.528
55425W        W59493  13.639  10.522  15.933
55426W        W59494  12.641  10.242  17.256
55427W        W59495  12.126  10.597  16.525
55428W        W59496  13.931   9.768  16.944
55429W        W59497  12.981   9.840  18.081
55430W        W59498  11.586   9.793  16.420
55431W        W59499  13.932   9.552  16.065
55432W        W59500  13.573  10.618  16.816
55433W        W59501  11.551  10.347  16.686
55434W        W59502  12.572   8.399  17.896
55435W        W59503  13.023  10.565  15.407
55436W        W59504  12.331   9.820  18.045
55437W        W59505  12.457  10.058  15.422
55438W        W59506  11.678   8.798  14.681
55439W        W59507  11.017  10.884  21.580
55440W        W59508  11.393   9.777  21.103
55441W        W59509  14.098   9.507  18.873
55442W        W59510  14.228  10.592  20.900
55443W        W59511  12.146  10.583  18.426
55444W        W59512  12.229   8.735  19.409
55445W        W59513  11.744   8.583  19.573
55446W        W59514  12.735   9.398  19.007
55447W        W59515  12.410  10.490  21.362
55448W        W59516  11.059   8.051  21.325
55449W        W59517  11.821   7.331  21.127
55450W        W59518  13.515   7.719  20.014
55451W        W59519  13.164   8.590  18.584
55452W        W59520  13.734   8.024  21.675
55453W        W59521  11.100   7.816  20.800
55454W        W59522  11.199  10.435  21.821
55455W        W59523  12.721   9.825  18.553
55456W        W59524  11.153   8.608  20.246
55457W        W59525  12.046   8.499  21.483
55458W        W59526  14.505   8.358  19.982
55459W        W59527  14.269   9.401  20.841
55460W        W59528  12.577   8.734  19.868
55461W        W59529  13.123  10.073  20.237
55462W        W59530  11.623   9.507  20.469
55463W        W59531  10.982   9.035  20.040
55464W        W59532  12.018   9.007  21.232
55465W        W59533  14.289   8.790  21.486
55466W        W59534  11.905  10.234  19.931
55467W        W59535  13.026   9.923  21.065
55468W        W59536  12.246   8.563  20.290
55469W        W59537  12.538   9.347  19.933
55470W        W59538  13.535  10.120  21.781
55471W        W59539  12.614   9.440  21.791
55472W        W59540  12.595   9.156  21.269
55473W        W59541  11.004   8.547  21.791
55474W        W59542  13.836  10.082  21.390
55475W        W59543  11.417   7.664  19.388
55476W        W59544  11.944   9.922  20.387
55477W        W59545  14.407   9.705  19.677
55478W        W59546  13.820   8.105  20.244
55479W        W59547  14.105   8.058  18.339
55480W        W59548  14.570   8.859  20.645
55481W        W59549  12.537  10.566  20.398
55482W        W59550  14.311  10.032  18.836
55483W        W59551  11.440  10.818  18.590
55484W        W59552  11.833  10.864  19.266
55485W        W59553  11.630   7.618  20.692
55486W        W59554  14.253   8.636  20.967
55487W        W59555  13.658   9.058  19.426
55488W        W59556  13.624   8.746  18.453
55489W        W59557  12.832   9.890  20.593
55490W        W59558  12.638   8.220  19.792
55491W        W59559  13.238  10.307  20.786
55492W        W59560  14.109   9.098  19.208
55493W        W59561  13.011   7.756  19.224
55494W        W59562  11.668  10.450  18.907
55495W        W59563  11.039   7.949  19.506
55496W        W59564  13.825   8.556  19.980
55497W        W59565  11.283  10.173  19.895
55498W        W59566  12.624  10.523  18.765
55499W        W59567  14.016   8.549  18.229
55500W        W59568  11.039  10.307  20.393
55501W        W59569  11.830   9.879  20.873
55502W        W59570  12.203   9.239  19.492
55503W        W59571  12.225   7.644  20.585
55504W        W59572  14.454   7.406  19.882
55505W        W59573  11.673   9.278  18.350
55506W        W59574  11.328   8.311  18.529
55507W        W59575  11.390  10.267  19.323
55508W        W59576  12.521   9.750  19.571
55509W        W59577  13.853  10.609  21.285
55510W        W59578  12.779   8.251  18.969
55511W        W59579  14.162  10.649  19.741
55512W        W59580  13.839   8.502  21.339
55513W        W59581  14.552  10.158  19.473
55514W        W59582  13.179   9.450  20.957
55515W        W59583  10.945   9.001  19.163
55516W        W59584  12.056   9.416  20.736
55517W        W59585  13.260   8.680  19.114
55518W        W59586  13.137   9.170  19.218
55519W        W59587  11.480   8.590  20.692
55520W        W59588  11.465   8.466  21.614
55521W        W59589  11.355   7.383  19.773
55522W        W59590  13.123   7.730  20.334
55523W        W59591  12.771   7.915  21.497
55524W        W59592  13.126   8.064  18.675
55525W        W59593  14.309  10.457  21.429
55526W        W59594  13.276   7.538  21.468
55527W        W59595  14.295   9.839  21.590
55528W        W59596  13.725   8.006  21.186
55529W        W59597  13.525   7.944  19.456
55530W        W59598  13.918   9.078  21.860
55531W        W59599  11.658  10.654  19.846
55532W        W59600  12.316   8.371  18.832
55533W        W59601  11.885   7.655  21.496
55534W        W59602  13.937   8.139  19.177
55535W        W59603  14.304   8.621  19.122
55536W        W59604  12.047  10.838  21.593
55537W        W59605  11.973   7.374  18.828
55538W        W59606  14.294   7.908  19.863
55539W        W59607  14.444  10.157  18.308
55540W        W59608  11.351   9.360  20.010
55541W        W59609  13.268   7.947  18.240
55542W        W59610  14.402  10.279  19.960
55543W        W59611  14.441   7.473  20.710
55544W        W59612  12.886   8.685  21.264
55545W        W59613  12.979  10.024  18.967
55546W        W59614  13.379   9.318  21.707
55547W        W59615  13.053   7.295  20.016
55548W        W59616  11.665   8.198  20.079
55549W        W59617  11.219   9.398  20.853
55550W        W59618  13.078  10.591  19.559
55551W        W59619  14.272   8.188  20.431
55552W        W59620  12.909  10.535  21.198
55553W        W59621  14.252   9.594  18.403
55554W        W59622  12.687   9.077  19.464
55555W        W59623  14.539   7.588  21.205
55556W        W59624  12.688   9.423  20.799
55557W        W59625  12.905   8.309  20.244
55558W        W59626  13.757   8.607  19.082
55559W        W59627  14.044   8.340  18.724
55560W        W59628  13.853  10.380  19.113
55561W        W59629  13.687   9.983  19.909
55562W        W59630  13.583   9.062  18.887
55563W        W59631  13.016   9.272  19.873
55564W        W59632  13.897   9.060  19.940
55565W        W59633  11.272   8.075  20.364
55566W        W59634  14.050   9.127  21.191
55567W        W59635  14.401  10.745  20.337
55568W        W59636  12.331  10.189  19.739
55569W        W59637  13.338  10.722  21.063
55570W        W59638  13.332   8.052  20.827
55571W        W59639  12.539  10.760  20.888
55572W        W59640  14.236   7.714  19.354
55573W        W59641  14.027   9.033  20.655
55574W        W59642  11.010   8.354  20.693
55575W        W59643  13.870   8.149  19.711
55576W        W59644  14.281   8.300  21.488
55577W        W59645  13.166   9.999  19.706
55578W        W59646  12.422  10.590  19.319
55579W        W59647  11.537   7.770  18.577
55580W        W59648  12.641   7.424  20.387
55581W        W59649  11.669  10.544  18.235
55582W        W59650  12.043   9.010  18.986
55583W        W59651  12.697   9.639  21.299
55584W        W59652  12.527   7.997  19.289
55585W        W59653  13.883   7.594  19.717
55586W        W59654  13.603  10.876  20.045
55587W        W59655  13.015  10.524  20.385
55588W        W59656  12.411   9.561  20.346
55589W        W59657  14.181  10.284  20.472
55590W        W59658  11.875   7.787  19.241
55591W        W59659  12.397  10.084  20.201
55592W        W59660  11.880   8.015  18.266
55593W        W59661  12.681   8.624  20.660
55594W        W59662  13.529   7.490  20.530
55595W        W59663  10.949   9.333  20.415
55596W        W59664  12.653   9.151  18.573
55597W        W59665  11.921   7.466  18.343
55598W        W59666  12.659   8.547  19.394
55599W        W59667  13.629   7.523  21.093
55600W        W59668  12.217   9.535  21.202
55601W        W59669  13.021   9.317  21.419
55602W        W59670  13.638   9.347  21.312
55603W        W59671  12.922   7.487  21.817
55604W        W59672  12.144   8.103  20.210
55605W        W59673  11.570   8.059  19.608
55606W        W59674  11.356  10.771  19.284
55607W        W59675  12.688  10.101  21.409
55608W        W59676  11.723   9.586  18.768
55609W        W59677  13.403   8.971  19.989
55610W        W59678  13.683   8.770  20.388
55611W        W59679  12.888   9.444  20.322
55612W        W59680  13.358   9.818  18.454
55613W        W59681  13.030   7.839  19.782
55614W        W59682  14.509   8.117  19.050
55615W        W59683  11.003  10.706  21.081
55616W        W59684  11.420   9.932  20.613
55617W        W59685  10.987  10.778  18.845
55618W        W59686  12.886   8.048  20.651
55619W        W59687  12.249  10.071  18.500
55620W        W59688  14.154  10.453  18.686
55621W        W59689  13.129   9.106  18.700
55622W        W59690  11.972   8.297  19.217
55623W        W59691  12.804   8.207  18.269
55624W        W59692  13.388   9.772  21.447
55625W        W59693  13.741   7.678  19.064
55626W        W59694  11.071   7.526  18.512
55627W        W59695  12.357   9.845  20.802
55628W        W59696  12.156   9.761  19.894
55629W        W59697  11.898   9.713  18.292
55630W        W59698  11.139   9.954  19.060
55631W        W59699  11.643   9.024  21.502
55632W        W59700  12.347   7.584  21.688
55633W        W59701  13.056   7.726  21.044
55634W        W59702  12.251   7.494  19.325
55635W        W59703  13.310   7.571  18.830
55636W        W59704  11.255   7.503  20.407
55637W        W59705  11.303   8.466  19.777
55638W        W59706  13.992   7.574  20.183
55639W        W59707  11.414   8.072  18.997
55640W        W59708  13.985   7.760  20.613
55641W        W59709  14.381   8.963  18.298
55642W        W59710  11.673   7.721  20.117
55643W        W59711  12.787   8.293  21.057
55644W        W59712  10.935   7.983  18.535
55645W        W59713  11.721   9.372  21.096
55646W        W59714  13.079   8.770  20.275
55647W        W59715  12.946  10.849  18.571
55648W        W59716  11.092   9.356  18.268
55649W        W59717  11.827   9.767  21.394
55650W        W59718  11.348   8.934  21.025
55651W        W59719  12.339   9.039  20.819
55652W        W59720  14.107   7.398  21.081
55653W        W59721  14.505   9.008  21.072
55654W        W59722  14.493   9.208  18.758
55655W        W59723  13.356   9.540  18.857
55656W        W59724  13.830  10.840  18.552
55657W        W59725  13.007   8.830  21.694
55658W        W59726  11.337   9.797  21.734
55659W        W59727  14.543   7.719  21.686
55660W        W59728  14.261   8.647  20.307
55661W        W59729  12.569  10.777  21.784
55662W        W59730  12.424   7.406  18.511
55663W        W59731  13.963  10.005  18.454
55664W        W59732  11.732   8.098  21.340
55665W        W59733  12.166  10.092  21.202
55666W        W59734  14.292   8.083  21.000
55667W        W59735  13.503  10.742  18.968
55668W        W59736  13.742   9.361  20.335
55669W        W59737  11.992   7.777  21.002
55670W        W59738  12.461   8.846  21.759
55671W        W59739  11.964  10.025  18.953
55672W        W59740  13.719   9.523  19.217
55673W        W59741  11.487   8.149  20.941
55674W        W59742  12.816  10.211  19.405
55675W        W59743  14.566   8.771  19.586
55676W        W59744  12.788   7.404  21.305
55677W        W59745  13.568  10.109  20.384
55678W        W59746  13.871  10.453  20.092
55679W        W59747  13.090  10.255  18.520
55680W        W59748  11.100  10.147  21.362
55681W        W59749  11.843   8.139  20.600
55682W        W59750  11.813   7.487  19.710
55683W        W59751  13.434   8.329  20.402
55684W        W59752  12.232   9.500  18.602
55685W        W59753  14.230   9.442  20.101
55686W        W59754  11.557  10.200  21.524
55687W        W59755  13.944  10.882  19.321
55688W        W59756  12.043   7.902  19.766
55689W        W59757  11.812   9.395  19.856
55690W        W59758  12.125  10.806  20.606
55691W        W59759  14.192  10.902  21.638
55692W        W59760  13.351   9.090  20.571
55693W        W59761  11.200   8.888  18.486
55694W        W59762  14.334  10.546  19.183
55695W        W59763  14.171   7.870  18.802
55696W        W59764  12.310   7.389  21.205
55697W        W59765  14.016  10.191  19.663
55698W        W59766  14.045   8.747  19.568
55699W        W59767  12.162   8.420  19.784
55700W        W59768  12.407   8.682  21.108
55701W        W59769  13.518   9.835  20.971
55702W        W59770  12.168   8.289  21.083
55703W        W59771  12.147  10.755  19.699
55704W        W59772  11.464  10.714  21.333
55705W        W59773  11.576  10.075  18.463
55706W        W59774  14.093   9.833  19.273
55707W        W59775  11.697   8.625  21.159
55708W        W59776  14.470   8.555  18.640
55709W        W59777  12.215   9.612  19.111
55710W        W59778  13.314   8.994  21.192
55711W        W59779  13.205   8.622  20.736
55712W        W59780  11.765   8.994  20.765
55713W        W59781  13.975  10.882  20.594
55714W        W59782  13.766   7.516  21.588
55715W        W59783  11.430   7.666  21.175
55716W        W59784  11.769   8.689  20.228
55717W        W59785  12.138   8.503  18.350
55718W        W59786  10.941  10.262  20.895
55719W        W59787  12.526   8.971  20.338
55720W        W59788  12.349   7.996  18.443
55721W        W59789  11.484   8.812  19.224
55722W        W59790  11.255  10.664  20.661
55723W        W59791  14.050   8.890  18.769
55724W        W59792  14.145   7.806  21.455
55725W        W59793  13.581  10.015  19.418
55726W        W59794  11.179   8.939  21.595
55727W        W59795  14.145   7.403  18.891
55728W        W59796  13.665   9.878  18.902
55729W        W59797  12.567   8.936  18.987
55730W        W59798  13.754   7.740  18.510
55731W        W59799  13.819   8.347  20.696
55732W        W59800  11.528   8.940  19.903
55733W        W59801  11.822   9.879  19.552
55734W        W59802  13.585   8.499  19.517
55735W        W59803  12.608   7.878  20.213
55736W        W59804  14.570   9.789  20.724
55737W        W59805  14.488   7.776  20.285
55738W        W59806  11.027  10.606  19.661
55739W        W59807  11.536   9.793  19.197
55740W        W59808  11.451   7.410  21.750
55741W        W59809  12.570  10.263  21.852
55742W        W59810  14.325   9.231  19.642
55743W        W59811  13.679   9.408  18.522
55744W        W59812  12.974  10.929  20.734
55745W        W59813  13.831   9.651  21.771
55746W        W59814  12.646   7.361  19.051
55747W        W59815  13.359   8.230  19.910
55748W        W59816  11.045   9.817  20.242
55749W        W59817  12.298   7.779  18.883
55750W        W59818  12.102   9.263  21.732
55751W        W59819  13.096   8.244  19.446
55752W        W59820  13.301   9.654  20.568
55753W        W59821  11.455  10.259  21.003
55754W        W59822  12.046  10.242  21.726
55755W        W59823  11.897   8.039  18.740
55756W        W59824  13.414   8.181  19.065
55757W        W59825  13.372  10.289  21.302
55758W        W59826  12.057   8.881  19.901
55759W        W59827  11.712  10.579  20.766
55760W        W59828  14.457  10.696  18.367
55761W        W59829  11.320   9.368  21.363
55762W        W59830  13.315   9.630  20.051
55763W        W59831  11.751   9.279  19.293
55764W        W59832  12.122  10.286  20.688
55765W        W59833  12.500   7.705  19.729
55766W        W59834  11.111   9.689  18.659
55767W        W59835  12.630   8.640  18.529
55768W        W59836  11.276   9.189  19.548
55769W        W59837  12.566   7.831  21.012
55770W        W59838  14.238   7.540  18.439
55771W        W59839  14.331   9.286  21.538
55772W        W59840  12.985  10.543  21.690
55773W        W59841  14.543   9.637  21.212
55774W        W59842  13.951  10.435  21.823
55775W        W59843  11.690  10.891  20.301
55776W        W59844  14.549   9.513  19.175
55777W        W59845  13.079   8.780  19.688
55778W        W59846  12.846   7.392  19.578
55779W        W59847  11.905  10.376  19.415
55780W        W59848  12.404   8.117  20.640
55781W        W59849  12.104   7.486  20.109
55782W        W59850  11.167  10.308  18.657
55783W        W59851  12.983   9.672  19.375
55784W        W59852  11.858  10.467  21.254
55785W        W59853  11.335   9.290  18.950
55786W        W59854  11.220   7.833  19.949
55787W        W59855  12.768   9.798  20.006
55788W        W59856  11.020   7.652  19.026
55789W        W59857  13.684   8.858  20.953
55790W        W59858  13.561   8.244  18.525
55791W        W59859  14.078   9.916  20.173
55792W        W59860  12.739  10.400  20.004
55793W        W59861  12.151  10.504  18.915
55794W        W59862  13.433   7.407  18.345
55795W        W59863  11.233  10.667  20.086
55796W        W59864  13.430   8.425  21.721
55797W        W59865  11.413   7.955  21.720
55798W        W59866  11.144   8.555  19.053
55799W        W59867  11.835   8.544  18.778
55800W        W59868  13.598   8.871  21.595
55801W        W59869  11.941   9.152  20.304
55802W        W59870  13.415   7.438  19.424
55803W        W59871  12.546  10.869  19.927
55804W        W59872  13.760  10.331  20.864
55805W        W59873  13.344  10.480  19.975
55806W        W59874  13.363   9.460  19.569
55807W        W59875  12.825   7.685  18.640
55808W        W59876  14.506   7.313  19.362
55809W        W59877  12.194   8.948  18.525
55810W        W59878  14.360   8.285  19.515
55811W        W59879  13.052   9.455  18.392
55812W        W59880  13.988   9.655  21.140
55813W        W59881  13.642  10.356  18.607
55814W        W59882  12.257   8.031  21.513
55815W        W59883  12.077   8.615  20.754
55816W        W59884  14.169  10.110  21.031
55817W        W59885  13.269   8.060  21.408
55818W        W59886  11.113   8.531  21.185
55819W        W59887  12.873   9.008  20.911
55820W        W59888  11.230   9.766  19.568
55821W        W59889  11.377   9.063  20.458
55822W        W59890  13.694   9.349  20.808
55823W        W59891  13.466  10.729  21.619
55824W        W59892  13.362   8.468  21.172
55825W        W59893  13.639  10.522  19.577
55826W        W59894  12.641  10.242  20.900
55827W        W59895  12.126  10.597  20.169
55828W        W59896  13.931   9.768  20.588
55829W        W59897  12.981   9.840  21.725
55830W        W59898  11.586   9.793  20.064
55831W        W59899  13.932   9.552  19.709
55832W        W59900  13.573  10.618  20.460
55833W        W59901  11.551  10.347  20.330
55834W        W59902  12.572   8.399  21.540
55835W        W59903  13.023  10.565  19.051
55836W        W59904  12.331   9.820  21.689
55837W        W59905  12.457  10.058  19.066
55838W        W59906  11.678   8.798  18.325
55839W        W59907  14.098   9.507  22.518
55840W        W59908  12.146  10.583  22.071
55841W        W59909  12.229   8.735  23.054
55842W        W59910  11.744   8.583  23.218
55843W        W59911  12.735   9.398  22.652
55844W        W59912  13.164   8.590  22.229
55845W        W59913  12.721   9.825  22.198
55846W        W59914  11.417   7.664  23.033
55847W        W59915  14.105   8.058  21.984
55848W        W59916  14.311  10.032  22.481
55849W        W59917  11.440  10.818  22.235
55850W        W59918  11.833  10.864  22.911
55851W        W59919  13.658   9.058  23.071
55852W        W59920  13.624   8.746  22.098
55853W        W59921  14.109   9.098  22.853
55854W        W59922  13.011   7.756  22.869
55855W        W59923  11.668  10.450  22.552
55856W        W59924  12.624  10.523  22.410
55857W        W59925  14.016   8.549  21.874
55858W        W59926  12.203   9.239  23.137
55859W        W59927  11.673   9.278  21.995
55860W        W59928  11.328   8.311  22.174
55861W        W59929  11.390  10.267  22.968
55862W        W59930  12.521   9.750  23.216
55863W        W59931  12.779   8.251  22.614
55864W        W59932  10.945   9.001  22.808
55865W        W59933  13.260   8.680  22.759
55866W        W59934  13.137   9.170  22.863
55867W        W59935  13.126   8.064  22.320
55868W        W59936  13.525   7.944  23.101
55869W        W59937  12.316   8.371  22.477
55870W        W59938  13.937   8.139  22.822
55871W        W59939  14.304   8.621  22.767
55872W        W59940  11.973   7.374  22.473
55873W        W59941  14.444  10.157  21.953
55874W        W59942  13.268   7.947  21.885
55875W        W59943  12.979  10.024  22.612
55876W        W59944  13.078  10.591  23.204
55877W        W59945  14.252   9.594  22.048
55878W        W59946  12.687   9.077  23.109
55879W        W59947  13.757   8.607  22.727
55880W        W59948  14.044   8.340  22.369
55881W        W59949  13.853  10.380  22.758
55882W        W59950  13.583   9.062  22.532
55883W        W59951  14.236   7.714  22.999
55884W        W59952  12.422  10.590  22.964
55885W        W59953  11.537   7.770  22.222
55886W        W59954  11.669  10.544  21.880
55887W        W59955  12.043   9.010  22.631
55888W        W59956  12.527   7.997  22.934
55889W        W59957  11.875   7.787  22.886
55890W        W59958  11.880   8.015  21.911
55891W        W59959  12.653   9.151  22.218
55892W        W59960  11.921   7.466  21.988
55893W        W59961  12.659   8.547  23.039
55894W        W59962  11.570   8.059  23.253
55895W        W59963  11.356  10.771  22.929
55896W        W59964  11.723   9.586  22.413
55897W        W59965  13.358   9.818  22.099
55898W        W59966  14.509   8.117  22.695
55899W        W59967  10.987  10.778  22.490
55900W        W59968  12.249  10.071  22.145
55901W        W59969  14.154  10.453  22.331
55902W        W59970  13.129   9.106  22.345
55903W        W59971  11.972   8.297  22.862
55904W        W59972  12.804   8.207  21.914
55905W        W59973  13.741   7.678  22.709
55906W        W59974  11.071   7.526  22.157
55907W        W59975  11.898   9.713  21.937
55908W        W59976  11.139   9.954  22.705
55909W        W59977  12.251   7.494  22.970
55910W        W59978  13.310   7.571  22.475
55911W        W59979  11.414   8.072  22.642
55912W        W59980  14.381   8.963  21.943
55913W        W59981  10.935   7.983  22.180
55914W        W59982  12.946  10.849  22.216
55915W        W59983  11.092   9.356  21.913
55916W        W59984  14.493   9.208  22.403
55917W        W59985  13.356   9.540  22.502
55918W        W59986  13.830  10.840  22.197
55919W        W59987  12.424   7.406  22.156
55920W        W59988  13.963  10.005  22.099
55921W        W59989  13.503  10.742  22.613
55922W        W59990  11.964  10.025  22.598
55923W        W59991  13.719   9.523  22.862
55924W        W59992  12.816  10.211  23.050
55925W        W59993  14.566   8.771  23.231
55926W        W59994  13.090  10.255  22.165
55927W        W59995  12.232   9.500  22.247
55928W        W59996  13.944  10.882  22.966
55929W        W59997  11.200   8.888  22.131
55930W        W59998  14.334  10.546  22.828
55931W        W59999  14.171   7.870  22.447
55932W        W60000  14.045   8.747  23.213
55933W        W60001  11.576  10.075  22.108
55934W        W60002  14.093   9.833  22.918
55935W        W60003  14.470   8.555  22.285
55936W        W60004  12.215   9.612  22.756
55937W        W60005  12.138   8.503  21.995
55938W        W60006  12.349   7.996  22.088
55939W        W60007  11.484   8.812  22.869
55940W        W60008  14.050   8.890  22.414
55941W        W60009  13.581  10.015  23.063
55942W        W60010  14.145   7.403  22.536
55943W        W60011  13.665   9.878  22.547
55944W        W60012  12.567   8.936  22.632
55945W        W60013  13.754   7.740  22.155
55946W        W60014  11.822   9.879  23.197
55947W        W60015  13.585   8.499  23.162
55948W        W60016  11.027  10.606  23.306
55949W        W60017  11.536   9.793  22.842
55950W        W60018  14.325   9.231  23.287
55951W        W60019  13.679   9.408  22.167
55952W        W60020  12.646   7.361  22.696
55953W        W60021  12.298   7.779  22.528
55954W        W60022  13.096   8.244  23.091
55955W        W60023  11.897   8.039  22.385
55956W        W60024  13.414   8.181  22.710
55957W        W60025  14.457  10.696  22.012
55958W        W60026  11.111   9.689  22.304
55959W        W60027  12.630   8.640  22.174
55960W        W60028  11.276   9.189  23.193
55961W        W60029  14.238   7.540  22.084
55962W        W60030  14.549   9.513  22.820
55963W        W60031  12.846   7.392  23.223
55964W        W60032  11.905  10.376  23.060
55965W        W60033  11.167  10.308  22.302
55966W        W60034  12.983   9.672  23.020
55967W        W60035  11.335   9.290  22.595
55968W        W60036  11.020   7.652  22.671
55969W        W60037  13.561   8.244  22.170
55970W        W60038  12.151  10.504  22.560
55971W        W60039  13.433   7.407  21.990
55972W        W60040  11.144   8.555  22.698
55973W        W60041  11.835   8.544  22.423
55974W        W60042  13.363   9.460  23.214
55975W        W60043  12.825   7.685  22.285
55976W        W60044  14.506   7.313  23.007
55977W        W60045  12.194   8.948  22.170
55978W        W60046  14.360   8.285  23.160
55979W        W60047  13.052   9.455  22.037
55980W        W60048  13.642  10.356  22.252
55981W        W60049  11.230   9.766  23.213
55982W        W60050  13.639  10.522  23.222
55983W        W60051  13.023  10.565  22.696
55984W        W60052  12.457  10.058  22.711
55985W        W60053  11.678   8.798  21.970
55986W        W60054  11.017  14.528   3.359
55987W        W60055  11.393  13.421   2.882
55988W        W60056  14.098  13.151   0.652
55989W        W60057  14.228  14.236   2.679
55990W        W60058  12.146  14.227   0.205
55991W        W60059  12.229  12.379   1.188
55992W        W60060  11.744  12.227   1.352
55993W        W60061  12.735  13.042   0.786
55994W        W60062  12.410  14.134   3.141
55995W        W60063  11.059  11.695   3.104
55996W        W60064  11.821  10.975   2.906
55997W        W60065  13.515  11.363   1.793
55998W        W60066  13.164  12.234   0.363
55999W        W60067  13.734  11.668   3.454
56000W        W60068  11.100  11.460   2.579
56001W        W60069  11.199  14.079   3.600
56002W        W60070  12.721  13.469   0.332
56003W        W60071  11.153  12.252   2.025
56004W        W60072  12.046  12.143   3.262
56005W        W60073  14.505  12.002   1.761
56006W        W60074  14.269  13.045   2.620
56007W        W60075  12.577  12.378   1.647
56008W        W60076  13.123  13.717   2.016
56009W        W60077  11.623  13.151   2.248
56010W        W60078  10.982  12.679   1.819
56011W        W60079  12.018  12.651   3.011
56012W        W60080  14.289  12.434   3.265
56013W        W60081  11.905  13.878   1.710
56014W        W60082  13.026  13.567   2.844
56015W        W60083  12.246  12.207   2.069
56016W        W60084  12.538  12.991   1.712
56017W        W60085  13.535  13.764   3.560
56018W        W60086  12.614  13.084   3.570
56019W        W60087  12.595  12.800   3.048
56020W        W60088  11.004  12.191   3.570
56021W        W60089  13.836  13.726   3.169
56022W        W60090  11.417  11.308   1.167
56023W        W60091  11.944  13.566   2.166
56024W        W60092  14.407  13.349   1.456
56025W        W60093  13.820  11.749   2.023
56026W        W60094  14.105  11.702   0.118
56027W        W60095  14.570  12.503   2.424
56028W        W60096  12.537  14.210   2.177
56029W        W60097  14.311  13.676   0.615
56030W        W60098  11.440  14.462   0.369
56031W        W60099  11.833  14.508   1.045
56032W        W60100  11.630  11.262   2.471
56033W        W60101  14.253  12.280   2.746
56034W        W60102  13.658  12.702   1.205
56035W        W60103  13.624  12.390   0.232
56036W        W60104  12.832  13.534   2.372
56037W        W60105  12.638  11.864   1.571
56038W        W60106  13.238  13.951   2.565
56039W        W60107  14.109  12.742   0.987
56040W        W60108  13.011  11.400   1.003
56041W        W60109  11.668  14.094   0.686
56042W        W60110  11.039  11.593   1.285
56043W        W60111  13.825  12.200   1.759
56044W        W60112  11.283  13.817   1.674
56045W        W60113  12.624  14.167   0.544
56046W        W60114  14.016  12.193   0.008
56047W        W60115  11.039  13.951   2.172
56048W        W60116  11.830  13.523   2.652
56049W        W60117  12.203  12.883   1.271
56050W        W60118  12.225  11.288   2.364
56051W        W60119  14.454  11.050   1.661
56052W        W60120  11.673  12.922   0.129
56053W        W60121  11.328  11.955   0.308
56054W        W60122  11.390  13.911   1.102
56055W        W60123  12.521  13.394   1.350
56056W        W60124  13.853  14.253   3.064
56057W        W60125  12.779  11.895   0.748
56058W        W60126  14.162  14.293   1.520
56059W        W60127  13.839  12.146   3.118
56060W        W60128  14.552  13.802   1.252
56061W        W60129  13.179  13.094   2.736
56062W        W60130  10.945  12.645   0.942
56063W        W60131  12.056  13.060   2.515
56064W        W60132  13.260  12.324   0.893
56065W        W60133  13.137  12.814   0.997
56066W        W60134  11.480  12.234   2.471
56067W        W60135  11.465  12.110   3.393
56068W        W60136  11.355  11.027   1.552
56069W        W60137  13.123  11.374   2.113
56070W        W60138  12.771  11.559   3.276
56071W        W60139  13.126  11.708   0.454
56072W        W60140  14.309  14.101   3.208
56073W        W60141  13.276  11.182   3.247
56074W        W60142  14.295  13.483   3.369
56075W        W60143  13.725  11.650   2.965
56076W        W60144  13.525  11.588   1.235
56077W        W60145  13.918  12.722   3.639
56078W        W60146  11.658  14.298   1.625
56079W        W60147  12.316  12.015   0.611
56080W        W60148  11.885  11.299   3.275
56081W        W60149  13.937  11.783   0.956
56082W        W60150  14.304  12.265   0.901
56083W        W60151  12.047  14.482   3.372
56084W        W60152  11.973  11.018   0.607
56085W        W60153  14.294  11.552   1.642
56086W        W60154  14.444  13.801   0.087
56087W        W60155  11.351  13.004   1.789
56088W        W60156  13.268  11.591   0.019
56089W        W60157  14.402  13.923   1.739
56090W        W60158  14.441  11.117   2.489
56091W        W60159  12.886  12.329   3.043
56092W        W60160  12.979  13.668   0.746
56093W        W60161  13.379  12.962   3.486
56094W        W60162  13.053  10.939   1.795
56095W        W60163  11.665  11.842   1.858
56096W        W60164  11.219  13.042   2.632
56097W        W60165  13.078  14.235   1.338
56098W        W60166  14.272  11.832   2.210
56099W        W60167  12.909  14.179   2.977
56100W        W60168  14.252  13.238   0.182
56101W        W60169  12.687  12.721   1.243
56102W        W60170  14.539  11.232   2.984
56103W        W60171  12.688  13.067   2.578
56104W        W60172  12.905  11.953   2.023
56105W        W60173  13.757  12.251   0.861
56106W        W60174  14.044  11.984   0.503
56107W        W60175  13.853  14.024   0.892
56108W        W60176  13.687  13.627   1.688
56109W        W60177  13.583  12.706   0.666
56110W        W60178  13.016  12.916   1.652
56111W        W60179  13.897  12.704   1.719
56112W        W60180  11.272  11.719   2.143
56113W        W60181  14.050  12.771   2.970
56114W        W60182  14.401  14.389   2.116
56115W        W60183  12.331  13.833   1.518
56116W        W60184  13.338  14.366   2.842
56117W        W60185  13.332  11.696   2.606
56118W        W60186  12.539  14.404   2.667
56119W        W60187  14.236  11.358   1.133
56120W        W60188  14.027  12.677   2.434
56121W        W60189  11.010  11.998   2.472
56122W        W60190  13.870  11.793   1.490
56123W        W60191  14.281  11.944   3.267
56124W        W60192  13.166  13.643   1.485
56125W        W60193  12.422  14.234   1.098
56126W        W60194  11.537  11.414   0.356
56127W        W60195  12.641  11.068   2.166
56128W        W60196  11.669  14.188   0.014
56129W        W60197  12.043  12.654   0.765
56130W        W60198  12.697  13.283   3.078
56131W        W60199  12.527  11.641   1.068
56132W        W60200  13.883  11.238   1.496
56133W        W60201  13.603  14.520   1.824
56134W        W60202  13.015  14.168   2.164
56135W        W60203  12.411  13.205   2.125
56136W        W60204  14.181  13.928   2.251
56137W        W60205  11.875  11.431   1.020
56138W        W60206  12.397  13.728   1.980
56139W        W60207  11.880  11.659   0.045
56140W        W60208  12.681  12.268   2.439
56141W        W60209  13.529  11.134   2.309
56142W        W60210  10.949  12.977   2.194
56143W        W60211  12.653  12.795   0.352
56144W        W60212  11.921  11.110   0.122
56145W        W60213  12.659  12.191   1.173
56146W        W60214  13.629  11.167   2.872
56147W        W60215  12.217  13.179   2.981
56148W        W60216  13.021  12.961   3.198
56149W        W60217  13.638  12.991   3.091
56150W        W60218  12.922  11.131   3.596
56151W        W60219  12.144  11.747   1.989
56152W        W60220  11.570  11.703   1.387
56153W        W60221  11.356  14.415   1.063
56154W        W60222  12.688  13.745   3.188
56155W        W60223  11.723  13.230   0.547
56156W        W60224  13.403  12.615   1.768
56157W        W60225  13.683  12.414   2.167
56158W        W60226  12.888  13.088   2.101
56159W        W60227  13.358  13.462   0.233
56160W        W60228  13.030  11.483   1.561
56161W        W60229  14.509  11.761   0.829
56162W        W60230  11.003  14.350   2.860
56163W        W60231  11.420  13.576   2.392
56164W        W60232  10.987  14.422   0.624
56165W        W60233  12.886  11.692   2.430
56166W        W60234  12.249  13.715   0.279
56167W        W60235  14.154  14.097   0.465
56168W        W60236  13.129  12.750   0.479
56169W        W60237  11.972  11.941   0.996
56170W        W60238  12.804  11.851   0.048
56171W        W60239  13.388  13.416   3.226
56172W        W60240  13.741  11.322   0.843
56173W        W60241  11.071  11.170   0.291
56174W        W60242  12.357  13.489   2.581
56175W        W60243  12.156  13.405   1.673
56176W        W60244  11.898  13.357   0.071
56177W        W60245  11.139  13.598   0.839
56178W        W60246  11.643  12.668   3.281
56179W        W60247  12.347  11.228   3.467
56180W        W60248  13.056  11.370   2.823
56181W        W60249  12.251  11.138   1.104
56182W        W60250  13.310  11.215   0.609
56183W        W60251  11.255  11.147   2.186
56184W        W60252  11.303  12.110   1.556
56185W        W60253  13.992  11.218   1.962
56186W        W60254  11.414  11.716   0.776
56187W        W60255  13.985  11.404   2.392
56188W        W60256  14.381  12.607   0.077
56189W        W60257  11.673  11.365   1.896
56190W        W60258  12.787  11.937   2.836
56191W        W60259  10.935  11.627   0.314
56192W        W60260  11.721  13.016   2.875
56193W        W60261  13.079  12.414   2.054
56194W        W60262  12.946  14.493   0.350
56195W        W60263  11.092  13.000   0.047
56196W        W60264  11.827  13.411   3.173
56197W        W60265  11.348  12.578   2.804
56198W        W60266  12.339  12.683   2.598
56199W        W60267  14.107  11.042   2.860
56200W        W60268  14.505  12.652   2.851
56201W        W60269  14.493  12.852   0.537
56202W        W60270  13.356  13.184   0.636
56203W        W60271  13.830  14.484   0.331
56204W        W60272  13.007  12.474   3.473
56205W        W60273  11.337  13.441   3.513
56206W        W60274  14.543  11.363   3.465
56207W        W60275  14.261  12.291   2.086
56208W        W60276  12.569  14.421   3.563
56209W        W60277  12.424  11.050   0.290
56210W        W60278  13.963  13.649   0.233
56211W        W60279  11.732  11.742   3.119
56212W        W60280  12.166  13.736   2.981
56213W        W60281  14.292  11.727   2.779
56214W        W60282  13.503  14.386   0.747
56215W        W60283  13.742  13.005   2.114
56216W        W60284  11.992  11.421   2.781
56217W        W60285  12.461  12.490   3.538
56218W        W60286  11.964  13.669   0.732
56219W        W60287  13.719  13.167   0.996
56220W        W60288  11.487  11.793   2.720
56221W        W60289  12.816  13.855   1.184
56222W        W60290  14.566  12.415   1.365
56223W        W60291  12.788  11.048   3.084
56224W        W60292  13.568  13.753   2.163
56225W        W60293  13.871  14.097   1.871
56226W        W60294  13.090  13.899   0.299
56227W        W60295  11.100  13.791   3.141
56228W        W60296  11.843  11.783   2.379
56229W        W60297  11.813  11.131   1.489
56230W        W60298  13.434  11.973   2.181
56231W        W60299  12.232  13.144   0.381
56232W        W60300  14.230  13.086   1.880
56233W        W60301  11.557  13.844   3.303
56234W        W60302  13.944  14.526   1.100
56235W        W60303  12.043  11.546   1.545
56236W        W60304  11.812  13.039   1.635
56237W        W60305  12.125  14.450   2.385
56238W        W60306  14.192  14.546   3.417
56239W        W60307  13.351  12.734   2.350
56240W        W60308  11.200  12.532   0.265
56241W        W60309  14.334  14.190   0.962
56242W        W60310  14.171  11.514   0.581
56243W        W60311  12.310  11.033   2.984
56244W        W60312  14.016  13.835   1.442
56245W        W60313  14.045  12.391   1.347
56246W        W60314  12.162  12.064   1.563
56247W        W60315  12.407  12.326   2.887
56248W        W60316  13.518  13.479   2.750
56249W        W60317  12.168  11.933   2.862
56250W        W60318  12.147  14.399   1.478
56251W        W60319  11.464  14.358   3.112
56252W        W60320  11.576  13.719   0.242
56253W        W60321  14.093  13.477   1.052
56254W        W60322  11.697  12.269   2.938
56255W        W60323  14.470  12.199   0.419
56256W        W60324  12.215  13.256   0.890
56257W        W60325  13.314  12.638   2.971
56258W        W60326  13.205  12.266   2.515
56259W        W60327  11.765  12.638   2.544
56260W        W60328  13.975  14.526   2.373
56261W        W60329  13.766  11.160   3.367
56262W        W60330  11.430  11.310   2.954
56263W        W60331  11.769  12.333   2.007
56264W        W60332  12.138  12.147   0.129
56265W        W60333  10.941  13.906   2.674
56266W        W60334  12.526  12.615   2.117
56267W        W60335  12.349  11.640   0.222
56268W        W60336  11.484  12.456   1.003
56269W        W60337  11.255  14.308   2.440
56270W        W60338  14.050  12.534   0.548
56271W        W60339  14.145  11.450   3.234
56272W        W60340  13.581  13.659   1.197
56273W        W60341  11.179  12.583   3.374
56274W        W60342  14.145  11.047   0.670
56275W        W60343  13.665  13.522   0.681
56276W        W60344  12.567  12.580   0.766
56277W        W60345  13.754  11.384   0.289
56278W        W60346  13.819  11.991   2.475
56279W        W60347  11.528  12.584   1.682
56280W        W60348  11.822  13.523   1.331
56281W        W60349  13.585  12.143   1.296
56282W        W60350  12.608  11.522   1.992
56283W        W60351  14.570  13.433   2.503
56284W        W60352  14.488  11.420   2.064
56285W        W60353  11.027  14.250   1.440
56286W        W60354  11.536  13.437   0.976
56287W        W60355  12.570  13.907   3.631
56288W        W60356  14.325  12.875   1.421
56289W        W60357  13.679  13.052   0.301
56290W        W60358  12.974  14.573   2.513
56291W        W60359  13.831  13.295   3.550
56292W        W60360  12.646  11.005   0.830
56293W        W60361  13.359  11.874   1.689
56294W        W60362  11.045  13.461   2.021
56295W        W60363  12.298  11.423   0.662
56296W        W60364  12.102  12.907   3.511
56297W        W60365  13.096  11.888   1.225
56298W        W60366  13.301  13.298   2.347
56299W        W60367  11.455  13.903   2.782
56300W        W60368  12.046  13.886   3.505
56301W        W60369  11.897  11.683   0.519
56302W        W60370  13.414  11.825   0.844
56303W        W60371  13.372  13.933   3.081
56304W        W60372  12.057  12.525   1.680
56305W        W60373  11.712  14.223   2.545
56306W        W60374  14.457  14.340   0.146
56307W        W60375  11.320  13.012   3.142
56308W        W60376  13.315  13.274   1.830
56309W        W60377  11.751  12.923   1.072
56310W        W60378  12.122  13.930   2.467
56311W        W60379  12.500  11.349   1.508
56312W        W60380  11.111  13.333   0.438
56313W        W60381  12.630  12.284   0.308
56314W        W60382  11.276  12.833   1.327
56315W        W60383  12.566  11.475   2.791
56316W        W60384  14.238  11.184   0.218
56317W        W60385  14.331  12.930   3.317
56318W        W60386  12.985  14.187   3.469
56319W        W60387  14.543  13.281   2.991
56320W        W60388  13.951  14.079   3.602
56321W        W60389  11.690  14.535   2.080
56322W        W60390  14.549  13.157   0.954
56323W        W60391  13.079  12.424   1.467
56324W        W60392  12.846  11.036   1.357
56325W        W60393  11.905  14.020   1.194
56326W        W60394  12.404  11.761   2.419
56327W        W60395  12.104  11.130   1.888
56328W        W60396  11.167  13.952   0.436
56329W        W60397  12.983  13.316   1.154
56330W        W60398  11.858  14.111   3.033
56331W        W60399  11.335  12.934   0.729
56332W        W60400  11.220  11.477   1.728
56333W        W60401  12.768  13.442   1.785
56334W        W60402  11.020  11.296   0.805
56335W        W60403  13.684  12.502   2.732
56336W        W60404  13.561  11.888   0.304
56337W        W60405  14.078  13.560   1.952
56338W        W60406  12.739  14.044   1.783
56339W        W60407  12.151  14.148   0.694
56340W        W60408  13.433  11.051   0.124
56341W        W60409  11.233  14.311   1.865
56342W        W60410  13.430  12.069   3.500
56343W        W60411  11.413  11.599   3.499
56344W        W60412  11.144  12.199   0.832
56345W        W60413  11.835  12.188   0.557
56346W        W60414  13.598  12.515   3.374
56347W        W60415  11.941  12.796   2.083
56348W        W60416  13.415  11.082   1.203
56349W        W60417  12.546  14.513   1.706
56350W        W60418  13.760  13.975   2.643
56351W        W60419  13.344  14.124   1.754
56352W        W60420  13.363  13.104   1.348
56353W        W60421  12.825  11.329   0.419
56354W        W60422  14.506  10.957   1.141
56355W        W60423  12.194  12.592   0.304
56356W        W60424  14.360  11.929   1.294
56357W        W60425  13.052  13.099   0.171
56358W        W60426  13.988  13.299   2.919
56359W        W60427  13.642  14.000   0.386
56360W        W60428  12.257  11.675   3.292
56361W        W60429  12.077  12.259   2.533
56362W        W60430  14.169  13.754   2.810
56363W        W60431  13.269  11.704   3.187
56364W        W60432  11.113  12.175   2.964
56365W        W60433  12.873  12.652   2.690
56366W        W60434  11.230  13.410   1.347
56367W        W60435  11.377  12.707   2.237
56368W        W60436  13.694  12.993   2.587
56369W        W60437  13.466  14.373   3.398
56370W        W60438  13.362  12.112   2.951
56371W        W60439  13.639  14.166   1.356
56372W        W60440  12.641  13.886   2.679
56373W        W60441  12.126  14.241   1.948
56374W        W60442  13.931  13.412   2.367
56375W        W60443  12.981  13.484   3.504
56376W        W60444  11.586  13.437   1.843
56377W        W60445  13.932  13.196   1.488
56378W        W60446  13.573  14.262   2.239
56379W        W60447  11.551  13.991   2.109
56380W        W60448  12.572  12.043   3.319
56381W        W60449  13.023  14.209   0.830
56382W        W60450  12.331  13.464   3.468
56383W        W60451  12.457  13.702   0.845
56384W        W60452  11.678  12.442   0.104
56385W        W60453  11.017  14.528   7.003
56386W        W60454  11.393  13.421   6.526
56387W        W60455  14.098  13.151   4.296
56388W        W60456  14.228  14.236   6.323
56389W        W60457  12.146  14.227   3.849
56390W        W60458  12.229  12.379   4.832
56391W        W60459  11.744  12.227   4.996
56392W        W60460  12.735  13.042   4.430
56393W        W60461  12.410  14.134   6.785
56394W        W60462  11.059  11.695   6.748
56395W        W60463  11.821  10.975   6.550
56396W        W60464  13.515  11.363   5.437
56397W        W60465  13.164  12.234   4.007
56398W        W60466  13.734  11.668   7.098
56399W        W60467  11.100  11.460   6.223
56400W        W60468  11.199  14.079   7.244
56401W        W60469  12.721  13.469   3.976
56402W        W60470  11.153  12.252   5.669
56403W        W60471  12.046  12.143   6.906
56404W        W60472  14.505  12.002   5.405
56405W        W60473  14.269  13.045   6.264
56406W        W60474  12.577  12.378   5.291
56407W        W60475  13.123  13.717   5.660
56408W        W60476  11.623  13.151   5.892
56409W        W60477  10.982  12.679   5.463
56410W        W60478  12.018  12.651   6.655
56411W        W60479  14.289  12.434   6.909
56412W        W60480  11.905  13.878   5.354
56413W        W60481  12.246  12.207   5.713
56414W        W60482  12.538  12.991   5.356
56415W        W60483  13.535  13.764   7.204
56416W        W60484  12.614  13.084   7.214
56417W        W60485  12.595  12.800   6.692
56418W        W60486  11.004  12.191   7.214
56419W        W60487  13.836  13.726   6.813
56420W        W60488  11.417  11.308   4.811
56421W        W60489  11.944  13.566   5.810
56422W        W60490  14.407  13.349   5.100
56423W        W60491  13.820  11.749   5.667
56424W        W60492  14.105  11.702   3.762
56425W        W60493  14.570  12.503   6.068
56426W        W60494  12.537  14.210   5.821
56427W        W60495  14.311  13.676   4.259
56428W        W60496  11.440  14.462   4.013
56429W        W60497  11.833  14.508   4.689
56430W        W60498  11.630  11.262   6.115
56431W        W60499  14.253  12.280   6.390
56432W        W60500  13.658  12.702   4.849
56433W        W60501  13.624  12.390   3.876
56434W        W60502  12.832  13.534   6.016
56435W        W60503  12.638  11.864   5.215
56436W        W60504  13.238  13.951   6.209
56437W        W60505  14.109  12.742   4.631
56438W        W60506  13.011  11.400   4.647
56439W        W60507  11.668  14.094   4.330
56440W        W60508  11.039  11.593   4.929
56441W        W60509  13.825  12.200   5.403
56442W        W60510  11.283  13.817   5.318
56443W        W60511  12.624  14.167   4.188
56444W        W60512  14.016  12.193   3.652
56445W        W60513  11.039  13.951   5.816
56446W        W60514  11.830  13.523   6.296
56447W        W60515  12.203  12.883   4.915
56448W        W60516  12.225  11.288   6.008
56449W        W60517  14.454  11.050   5.305
56450W        W60518  11.673  12.922   3.773
56451W        W60519  11.390  13.911   4.746
56452W        W60520  12.521  13.394   4.994
56453W        W60521  13.853  14.253   6.708
56454W        W60522  12.779  11.895   4.392
56455W        W60523  14.162  14.293   5.164
56456W        W60524  13.839  12.146   6.762
56457W        W60525  14.552  13.802   4.896
56458W        W60526  13.179  13.094   6.380
56459W        W60527  10.945  12.645   4.586
56460W        W60528  12.056  13.060   6.159
56461W        W60529  13.260  12.324   4.537
56462W        W60530  13.137  12.814   4.641
56463W        W60531  11.480  12.234   6.115
56464W        W60532  11.465  12.110   7.037
56465W        W60533  11.355  11.027   5.196
56466W        W60534  13.123  11.374   5.757
56467W        W60535  12.771  11.559   6.920
56468W        W60536  13.126  11.708   4.098
56469W        W60537  14.309  14.101   6.852
56470W        W60538  13.276  11.182   6.891
56471W        W60539  14.295  13.483   7.013
56472W        W60540  13.725  11.650   6.609
56473W        W60541  13.525  11.588   4.879
56474W        W60542  11.658  14.298   5.269
56475W        W60543  12.316  12.015   4.255
56476W        W60544  11.885  11.299   6.919
56477W        W60545  13.937  11.783   4.600
56478W        W60546  14.304  12.265   4.545
56479W        W60547  12.047  14.482   7.016
56480W        W60548  11.973  11.018   4.251
56481W        W60549  14.294  11.552   5.286
56482W        W60550  14.444  13.801   3.731
56483W        W60551  11.351  13.004   5.433
56484W        W60552  13.268  11.591   3.663
56485W        W60553  14.402  13.923   5.383
56486W        W60554  14.441  11.117   6.133
56487W        W60555  12.886  12.329   6.687
56488W        W60556  12.979  13.668   4.390
56489W        W60557  13.379  12.962   7.130
56490W        W60558  13.053  10.939   5.439
56491W        W60559  11.665  11.842   5.502
56492W        W60560  13.078  14.235   4.982
56493W        W60561  14.272  11.832   5.854
56494W        W60562  12.909  14.179   6.621
56495W        W60563  14.252  13.238   3.826
56496W        W60564  12.687  12.721   4.887
56497W        W60565  14.539  11.232   6.628
56498W        W60566  12.688  13.067   6.222
56499W        W60567  12.905  11.953   5.667
56500W        W60568  13.757  12.251   4.505
56501W        W60569  14.044  11.984   4.147
56502W        W60570  13.853  14.024   4.536
56503W        W60571  13.687  13.627   5.332
56504W        W60572  13.583  12.706   4.310
56505W        W60573  13.016  12.916   5.296
56506W        W60574  13.897  12.704   5.363
56507W        W60575  11.272  11.719   5.787
56508W        W60576  14.401  14.389   5.760
56509W        W60577  12.331  13.833   5.162
56510W        W60578  13.338  14.366   6.486
56511W        W60579  13.332  11.696   6.250
56512W        W60580  12.539  14.404   6.311
56513W        W60581  14.236  11.358   4.777
56514W        W60582  11.010  11.998   6.116
56515W        W60583  13.870  11.793   5.134
56516W        W60584  14.281  11.944   6.911
56517W        W60585  12.422  14.234   4.742
56518W        W60586  11.537  11.414   4.000
56519W        W60587  12.641  11.068   5.810
56520W        W60588  11.669  14.188   3.658
56521W        W60589  12.043  12.654   4.409
56522W        W60590  12.697  13.283   6.722
56523W        W60591  12.527  11.641   4.712
56524W        W60592  13.883  11.238   5.140
56525W        W60593  13.603  14.520   5.468
56526W        W60594  13.015  14.168   5.808
56527W        W60595  12.411  13.205   5.769
56528W        W60596  14.181  13.928   5.895
56529W        W60597  11.875  11.431   4.664
56530W        W60598  12.397  13.728   5.624
56531W        W60599  11.880  11.659   3.689
56532W        W60600  12.681  12.268   6.083
56533W        W60601  13.529  11.134   5.953
56534W        W60602  10.949  12.977   5.838
56535W        W60603  12.653  12.795   3.996
56536W        W60604  11.921  11.110   3.766
56537W        W60605  12.659  12.191   4.817
56538W        W60606  13.629  11.167   6.516
56539W        W60607  12.217  13.179   6.625
56540W        W60608  13.021  12.961   6.842
56541W        W60609  12.922  11.131   7.240
56542W        W60610  12.144  11.747   5.633
56543W        W60611  11.570  11.703   5.031
56544W        W60612  11.356  14.415   4.707
56545W        W60613  12.688  13.745   6.832
56546W        W60614  11.723  13.230   4.191
56547W        W60615  13.403  12.615   5.412
56548W        W60616  13.683  12.414   5.811
56549W        W60617  13.358  13.462   3.877
56550W        W60618  13.030  11.483   5.205
56551W        W60619  14.509  11.761   4.473
56552W        W60620  11.003  14.350   6.504
56553W        W60621  11.420  13.576   6.036
56554W        W60622  12.886  11.692   6.074
56555W        W60623  12.249  13.715   3.923
56556W        W60624  14.154  14.097   4.109
56557W        W60625  13.129  12.750   4.123
56558W        W60626  11.972  11.941   4.640
56559W        W60627  12.804  11.851   3.692
56560W        W60628  13.388  13.416   6.870
56561W        W60629  13.741  11.322   4.487
56562W        W60630  12.357  13.489   6.225
56563W        W60631  12.156  13.405   5.317
56564W        W60632  11.898  13.357   3.715
56565W        W60633  11.643  12.668   6.925
56566W        W60634  12.347  11.228   7.111
56567W        W60635  13.056  11.370   6.467
56568W        W60636  12.251  11.138   4.748
56569W        W60637  13.310  11.215   4.253
56570W        W60638  11.255  11.147   5.830
56571W        W60639  11.303  12.110   5.200
56572W        W60640  13.992  11.218   5.606
56573W        W60641  11.414  11.716   4.420
56574W        W60642  13.985  11.404   6.036
56575W        W60643  14.381  12.607   3.721
56576W        W60644  11.673  11.365   5.540
56577W        W60645  12.787  11.937   6.480
56578W        W60646  10.935  11.627   3.958
56579W        W60647  11.721  13.016   6.519
56580W        W60648  13.079  12.414   5.698
56581W        W60649  12.946  14.493   3.994
56582W        W60650  11.092  13.000   3.691
56583W        W60651  11.827  13.411   6.817
56584W        W60652  11.348  12.578   6.448
56585W        W60653  12.339  12.683   6.242
56586W        W60654  14.107  11.042   6.504
56587W        W60655  14.505  12.652   6.495
56588W        W60656  14.493  12.852   4.181
56589W        W60657  13.356  13.184   4.280
56590W        W60658  13.830  14.484   3.975
56591W        W60659  13.007  12.474   7.117
56592W        W60660  11.337  13.441   7.157
56593W        W60661  14.543  11.363   7.109
56594W        W60662  14.261  12.291   5.730
56595W        W60663  12.569  14.421   7.207
56596W        W60664  12.424  11.050   3.934
56597W        W60665  13.963  13.649   3.877
56598W        W60666  11.732  11.742   6.763
56599W        W60667  12.166  13.736   6.625
56600W        W60668  14.292  11.727   6.423
56601W        W60669  13.503  14.386   4.391
56602W        W60670  13.742  13.005   5.758
56603W        W60671  11.992  11.421   6.425
56604W        W60672  12.461  12.490   7.182
56605W        W60673  11.964  13.669   4.376
56606W        W60674  13.719  13.167   4.640
56607W        W60675  11.487  11.793   6.364
56608W        W60676  14.566  12.415   5.009
56609W        W60677  12.788  11.048   6.728
56610W        W60678  13.568  13.753   5.807
56611W        W60679  13.871  14.097   5.515
56612W        W60680  13.090  13.899   3.943
56613W        W60681  11.100  13.791   6.785
56614W        W60682  11.843  11.783   6.023
56615W        W60683  11.813  11.131   5.133
56616W        W60684  13.434  11.973   5.825
56617W        W60685  12.232  13.144   4.025
56618W        W60686  14.230  13.086   5.524
56619W        W60687  11.557  13.844   6.947
56620W        W60688  13.944  14.526   4.744
56621W        W60689  12.043  11.546   5.189
56622W        W60690  11.812  13.039   5.279
56623W        W60691  12.125  14.450   6.029
56624W        W60692  14.192  14.546   7.061
56625W        W60693  13.351  12.734   5.994
56626W        W60694  11.200  12.532   3.909
56627W        W60695  14.334  14.190   4.606
56628W        W60696  14.171  11.514   4.225
56629W        W60697  12.310  11.033   6.628
56630W        W60698  14.016  13.835   5.086
56631W        W60699  14.045  12.391   4.991
56632W        W60700  12.162  12.064   5.207
56633W        W60701  12.407  12.326   6.531
56634W        W60702  13.518  13.479   6.394
56635W        W60703  12.168  11.933   6.506
56636W        W60704  12.147  14.399   5.122
56637W        W60705  11.464  14.358   6.756
56638W        W60706  11.576  13.719   3.886
56639W        W60707  14.093  13.477   4.696
56640W        W60708  11.697  12.269   6.582
56641W        W60709  14.470  12.199   4.063
56642W        W60710  12.215  13.256   4.534
56643W        W60711  13.314  12.638   6.615
56644W        W60712  13.205  12.266   6.159
56645W        W60713  11.765  12.638   6.188
56646W        W60714  13.975  14.526   6.017
56647W        W60715  13.766  11.160   7.011
56648W        W60716  11.430  11.310   6.598
56649W        W60717  11.769  12.333   5.651
56650W        W60718  12.138  12.147   3.773
56651W        W60719  10.941  13.906   6.318
56652W        W60720  12.526  12.615   5.761
56653W        W60721  12.349  11.640   3.866
56654W        W60722  11.484  12.456   4.647
56655W        W60723  11.255  14.308   6.084
56656W        W60724  14.050  12.534   4.192
56657W        W60725  14.145  11.450   6.878
56658W        W60726  11.179  12.583   7.018
56659W        W60727  14.145  11.047   4.314
56660W        W60728  13.665  13.522   4.325
56661W        W60729  12.567  12.580   4.410
56662W        W60730  13.754  11.384   3.933
56663W        W60731  13.819  11.991   6.119
56664W        W60732  11.528  12.584   5.326
56665W        W60733  11.822  13.523   4.975
56666W        W60734  13.585  12.143   4.940
56667W        W60735  12.608  11.522   5.636
56668W        W60736  14.570  13.433   6.147
56669W        W60737  14.488  11.420   5.708
56670W        W60738  11.027  14.250   5.084
56671W        W60739  11.536  13.437   4.620
56672W        W60740  11.451  11.054   7.173
56673W        W60741  12.570  13.907   7.275
56674W        W60742  14.325  12.875   5.065
56675W        W60743  13.679  13.052   3.945
56676W        W60744  12.974  14.573   6.157
56677W        W60745  13.831  13.295   7.194
56678W        W60746  12.646  11.005   4.474
56679W        W60747  13.359  11.874   5.333
56680W        W60748  12.298  11.423   4.306
56681W        W60749  13.096  11.888   4.869
56682W        W60750  13.301  13.298   5.991
56683W        W60751  12.046  13.886   7.149
56684W        W60752  11.897  11.683   4.163
56685W        W60753  13.414  11.825   4.488
56686W        W60754  13.372  13.933   6.725
56687W        W60755  12.057  12.525   5.324
56688W        W60756  11.712  14.223   6.189
56689W        W60757  14.457  14.340   3.790
56690W        W60758  11.320  13.012   6.786
56691W        W60759  13.315  13.274   5.474
56692W        W60760  11.751  12.923   4.716
56693W        W60761  12.122  13.930   6.111
56694W        W60762  12.500  11.349   5.152
56695W        W60763  11.111  13.333   4.082
56696W        W60764  12.630  12.284   3.952
56697W        W60765  11.276  12.833   4.971
56698W        W60766  12.566  11.475   6.435
56699W        W60767  14.238  11.184   3.862
56700W        W60768  14.331  12.930   6.961
56701W        W60769  12.985  14.187   7.113
56702W        W60770  14.543  13.281   6.635
56703W        W60771  13.951  14.079   7.246
56704W        W60772  11.690  14.535   5.724
56705W        W60773  14.549  13.157   4.598
56706W        W60774  13.079  12.424   5.111
56707W        W60775  12.846  11.036   5.001
56708W        W60776  11.905  14.020   4.838
56709W        W60777  12.404  11.761   6.063
56710W        W60778  12.104  11.130   5.532
56711W        W60779  11.167  13.952   4.080
56712W        W60780  11.858  14.111   6.677
56713W        W60781  11.335  12.934   4.373
56714W        W60782  11.220  11.477   5.372
56715W        W60783  12.768  13.442   5.429
56716W        W60784  13.684  12.502   6.376
56717W        W60785  13.561  11.888   3.948
56718W        W60786  14.078  13.560   5.596
56719W        W60787  12.739  14.044   5.427
56720W        W60788  12.151  14.148   4.338
56721W        W60789  13.433  11.051   3.768
56722W        W60790  11.233  14.311   5.509
56723W        W60791  13.430  12.069   7.144
56724W        W60792  11.413  11.599   7.143
56725W        W60793  11.144  12.199   4.476
56726W        W60794  11.835  12.188   4.201
56727W        W60795  11.941  12.796   5.727
56728W        W60796  13.415  11.082   4.847
56729W        W60797  12.546  14.513   5.350
56730W        W60798  13.760  13.975   6.287
56731W        W60799  13.344  14.124   5.398
56732W        W60800  13.363  13.104   4.992
56733W        W60801  12.825  11.329   4.063
56734W        W60802  14.506  10.957   4.785
56735W        W60803  12.194  12.592   3.948
56736W        W60804  14.360  11.929   4.938
56737W        W60805  13.052  13.099   3.815
56738W        W60806  13.988  13.299   6.563
56739W        W60807  13.642  14.000   4.030
56740W        W60808  12.257  11.675   6.936
56741W        W60809  12.077  12.259   6.177
56742W        W60810  14.169  13.754   6.454
56743W        W60811  13.269  11.704   6.831
56744W        W60812  11.113  12.175   6.608
56745W        W60813  12.873  12.652   6.334
56746W        W60814  11.377  12.707   5.881
56747W        W60815  13.694  12.993   6.231
56748W        W60816  13.466  14.373   7.042
56749W        W60817  13.362  12.112   6.595
56750W        W60818  13.639  14.166   5.000
56751W        W60819  12.641  13.886   6.323
56752W        W60820  12.126  14.241   5.592
56753W        W60821  13.931  13.412   6.011
56754W        W60822  12.981  13.484   7.148
56755W        W60823  11.586  13.437   5.487
56756W        W60824  13.932  13.196   5.132
56757W        W60825  13.573  14.262   5.883
56758W        W60826  11.551  13.991   5.753
56759W        W60827  12.572  12.043   6.963
56760W        W60828  13.023  14.209   4.474
56761W        W60829  12.331  13.464   7.112
56762W        W60830  12.457  13.702   4.489
56763W        W60831  11.678  12.442   3.748
56764W        W60832  11.017  14.528  10.648
56765W        W60833  11.393  13.421  10.171
56766W        W60834  14.098  13.151   7.941
56767W        W60835  14.228  14.236   9.968
56768W        W60836  12.146  14.227   7.494
56769W        W60837  12.229  12.379   8.477
56770W        W60838  11.744  12.227   8.641
56771W        W60839  12.735  13.042   8.075
56772W        W60840  12.410  14.134  10.430
56773W        W60841  11.059  11.695  10.393
56774W        W60842  11.821  10.975  10.195
56775W        W60843  13.515  11.363   9.082
56776W        W60844  13.164  12.234   7.652
56777W        W60845  13.734  11.668  10.743
56778W        W60846  11.100  11.460   9.868
56779W        W60847  11.199  14.079  10.889
56780W        W60848  12.721  13.469   7.621
56781W        W60849  11.153  12.252   9.314
56782W        W60850  12.046  12.143  10.551
56783W        W60851  14.505  12.002   9.050
56784W        W60852  14.269  13.045   9.909
56785W        W60853  12.577  12.378   8.936
56786W        W60854  13.123  13.717   9.305
56787W        W60855  11.623  13.151   9.537
56788W        W60856  10.982  12.679   9.108
56789W        W60857  12.018  12.651  10.300
56790W        W60858  14.289  12.434  10.554
56791W        W60859  11.905  13.878   8.999
56792W        W60860  13.026  13.567  10.133
56793W        W60861  12.246  12.207   9.358
56794W        W60862  12.538  12.991   9.001
56795W        W60863  13.535  13.764  10.849
56796W        W60864  12.614  13.084  10.859
56797W        W60865  12.595  12.800  10.337
56798W        W60866  11.004  12.191  10.859
56799W        W60867  13.836  13.726  10.458
56800W        W60868  11.944  13.566   9.455
56801W        W60869  14.407  13.349   8.745
56802W        W60870  13.820  11.749   9.312
56803W        W60871  14.105  11.702   7.407
56804W        W60872  14.570  12.503   9.713
56805W        W60873  12.537  14.210   9.466
56806W        W60874  14.311  13.676   7.904
56807W        W60875  11.440  14.462   7.658
56808W        W60876  11.833  14.508   8.334
56809W        W60877  11.630  11.262   9.760
56810W        W60878  14.253  12.280  10.035
56811W        W60879  13.658  12.702   8.494
56812W        W60880  13.624  12.390   7.521
56813W        W60881  12.832  13.534   9.661
56814W        W60882  12.638  11.864   8.860
56815W        W60883  13.238  13.951   9.854
56816W        W60884  14.109  12.742   8.276
56817W        W60885  13.011  11.400   8.292
56818W        W60886  11.668  14.094   7.975
56819W        W60887  11.039  11.593   8.574
56820W        W60888  13.825  12.200   9.048
56821W        W60889  11.283  13.817   8.963
56822W        W60890  12.624  14.167   7.833
56823W        W60891  14.016  12.193   7.297
56824W        W60892  11.039  13.951   9.461
56825W        W60893  11.830  13.523   9.941
56826W        W60894  12.203  12.883   8.560
56827W        W60895  12.225  11.288   9.653
56828W        W60896  14.454  11.050   8.950
56829W        W60897  11.673  12.922   7.418
56830W        W60898  11.328  11.955   7.597
56831W        W60899  11.390  13.911   8.391
56832W        W60900  12.521  13.394   8.639
56833W        W60901  13.853  14.253  10.353
56834W        W60902  12.779  11.895   8.037
56835W        W60903  14.162  14.293   8.809
56836W        W60904  13.839  12.146  10.407
56837W        W60905  14.552  13.802   8.541
56838W        W60906  13.179  13.094  10.025
56839W        W60907  10.945  12.645   8.231
56840W        W60908  12.056  13.060   9.804
56841W        W60909  13.260  12.324   8.182
56842W        W60910  13.137  12.814   8.286
56843W        W60911  11.480  12.234   9.760
56844W        W60912  11.465  12.110  10.682
56845W        W60913  11.355  11.027   8.841
56846W        W60914  13.123  11.374   9.402
56847W        W60915  12.771  11.559  10.565
56848W        W60916  13.126  11.708   7.743
56849W        W60917  14.309  14.101  10.497
56850W        W60918  13.276  11.182  10.536
56851W        W60919  14.295  13.483  10.658
56852W        W60920  13.725  11.650  10.254
56853W        W60921  13.525  11.588   8.524
56854W        W60922  13.918  12.722  10.928
56855W        W60923  11.658  14.298   8.914
56856W        W60924  12.316  12.015   7.900
56857W        W60925  11.885  11.299  10.564
56858W        W60926  13.937  11.783   8.245
56859W        W60927  14.304  12.265   8.190
56860W        W60928  12.047  14.482  10.661
56861W        W60929  11.973  11.018   7.896
56862W        W60930  14.294  11.552   8.931
56863W        W60931  14.444  13.801   7.376
56864W        W60932  11.351  13.004   9.078
56865W        W60933  13.268  11.591   7.308
56866W        W60934  14.402  13.923   9.028
56867W        W60935  14.441  11.117   9.778
56868W        W60936  12.886  12.329  10.332
56869W        W60937  12.979  13.668   8.035
56870W        W60938  13.379  12.962  10.775
56871W        W60939  13.053  10.939   9.084
56872W        W60940  11.665  11.842   9.147
56873W        W60941  11.219  13.042   9.921
56874W        W60942  13.078  14.235   8.627
56875W        W60943  14.272  11.832   9.499
56876W        W60944  12.909  14.179  10.266
56877W        W60945  14.252  13.238   7.471
56878W        W60946  12.687  12.721   8.532
56879W        W60947  14.539  11.232  10.273
56880W        W60948  12.688  13.067   9.867
56881W        W60949  12.905  11.953   9.312
56882W        W60950  13.757  12.251   8.150
56883W        W60951  14.044  11.984   7.792
56884W        W60952  13.853  14.024   8.181
56885W        W60953  13.687  13.627   8.977
56886W        W60954  13.583  12.706   7.955
56887W        W60955  13.016  12.916   8.941
56888W        W60956  13.897  12.704   9.008
56889W        W60957  11.272  11.719   9.432
56890W        W60958  14.050  12.771  10.259
56891W        W60959  14.401  14.389   9.405
56892W        W60960  12.331  13.833   8.807
56893W        W60961  13.338  14.366  10.131
56894W        W60962  13.332  11.696   9.895
56895W        W60963  12.539  14.404   9.956
56896W        W60964  14.236  11.358   8.422
56897W        W60965  14.027  12.677   9.723
56898W        W60966  11.010  11.998   9.761
56899W        W60967  13.870  11.793   8.779
56900W        W60968  14.281  11.944  10.556
56901W        W60969  13.166  13.643   8.774
56902W        W60970  12.422  14.234   8.387
56903W        W60971  11.537  11.414   7.645
56904W        W60972  12.641  11.068   9.455
56905W        W60973  11.669  14.188   7.303
56906W        W60974  12.697  13.283  10.367
56907W        W60975  12.527  11.641   8.357
56908W        W60976  13.883  11.238   8.785
56909W        W60977  13.603  14.520   9.113
56910W        W60978  13.015  14.168   9.453
56911W        W60979  12.411  13.205   9.414
56912W        W60980  14.181  13.928   9.540
56913W        W60981  12.397  13.728   9.269
56914W        W60982  11.880  11.659   7.334
56915W        W60983  12.681  12.268   9.728
56916W        W60984  13.529  11.134   9.598
56917W        W60985  10.949  12.977   9.483
56918W        W60986  12.653  12.795   7.641
56919W        W60987  11.921  11.110   7.411
56920W        W60988  12.659  12.191   8.462
56921W        W60989  13.629  11.167  10.161
56922W        W60990  12.217  13.179  10.270
56923W        W60991  13.021  12.961  10.487
56924W        W60992  13.638  12.991  10.380
56925W        W60993  12.922  11.131  10.885
56926W        W60994  12.144  11.747   9.278
56927W        W60995  11.570  11.703   8.676
56928W        W60996  11.356  14.415   8.352
56929W        W60997  12.688  13.745  10.477
56930W        W60998  11.723  13.230   7.836
56931W        W60999  13.403  12.615   9.057
56932W        W61000  13.683  12.414   9.456
56933W        W61001  12.888  13.088   9.390
56934W        W61002  13.358  13.462   7.522
56935W        W61003  13.030  11.483   8.850
56936W        W61004  14.509  11.761   8.118
56937W        W61005  11.003  14.350  10.149
56938W        W61006  11.420  13.576   9.681
56939W        W61007  10.987  14.422   7.913
56940W        W61008  12.886  11.692   9.719
56941W        W61009  12.249  13.715   7.568
56942W        W61010  14.154  14.097   7.754
56943W        W61011  13.129  12.750   7.768
56944W        W61012  11.972  11.941   8.285
56945W        W61013  12.804  11.851   7.337
56946W        W61014  13.388  13.416  10.515
56947W        W61015  13.741  11.322   8.132
56948W        W61016  11.071  11.170   7.580
56949W        W61017  12.357  13.489   9.870
56950W        W61018  12.156  13.405   8.962
56951W        W61019  11.898  13.357   7.360
56952W        W61020  11.139  13.598   8.128
56953W        W61021  11.643  12.668  10.570
56954W        W61022  12.347  11.228  10.756
56955W        W61023  13.056  11.370  10.112
56956W        W61024  12.251  11.138   8.393
56957W        W61025  13.310  11.215   7.898
56958W        W61026  11.255  11.147   9.475
56959W        W61027  11.303  12.110   8.845
56960W        W61028  13.992  11.218   9.251
56961W        W61029  11.414  11.716   8.065
56962W        W61030  13.985  11.404   9.681
56963W        W61031  14.381  12.607   7.366
56964W        W61032  11.673  11.365   9.185
56965W        W61033  12.787  11.937  10.125
56966W        W61034  10.935  11.627   7.603
56967W        W61035  11.721  13.016  10.164
56968W        W61036  13.079  12.414   9.343
56969W        W61037  12.946  14.493   7.639
56970W        W61038  11.092  13.000   7.336
56971W        W61039  11.827  13.411  10.462
56972W        W61040  11.348  12.578  10.093
56973W        W61041  12.339  12.683   9.887
56974W        W61042  14.107  11.042  10.149
56975W        W61043  14.505  12.652  10.140
56976W        W61044  14.493  12.852   7.826
56977W        W61045  13.356  13.184   7.925
56978W        W61046  13.830  14.484   7.620
56979W        W61047  13.007  12.474  10.762
56980W        W61048  11.337  13.441  10.802
56981W        W61049  14.543  11.363  10.754
56982W        W61050  14.261  12.291   9.375
56983W        W61051  12.569  14.421  10.852
56984W        W61052  12.424  11.050   7.579
56985W        W61053  13.963  13.649   7.522
56986W        W61054  11.732  11.742  10.408
56987W        W61055  12.166  13.736  10.270
56988W        W61056  14.292  11.727  10.068
56989W        W61057  13.503  14.386   8.036
56990W        W61058  13.742  13.005   9.403
56991W        W61059  11.992  11.421  10.070
56992W        W61060  12.461  12.490  10.827
56993W        W61061  11.964  13.669   8.021
56994W        W61062  13.719  13.167   8.285
56995W        W61063  11.487  11.793  10.009
56996W        W61064  12.816  13.855   8.473
56997W        W61065  14.566  12.415   8.654
56998W        W61066  12.788  11.048  10.373
56999W        W61067  13.568  13.753   9.452
57000W        W61068  13.871  14.097   9.160
57001W        W61069  13.090  13.899   7.588
57002W        W61070  11.100  13.791  10.430
57003W        W61071  11.843  11.783   9.668
57004W        W61072  11.813  11.131   8.778
57005W        W61073  13.434  11.973   9.470
57006W        W61074  12.232  13.144   7.670
57007W        W61075  14.230  13.086   9.169
57008W        W61076  11.557  13.844  10.592
57009W        W61077  13.944  14.526   8.389
57010W        W61078  12.043  11.546   8.834
57011W        W61079  11.812  13.039   8.924
57012W        W61080  12.125  14.450   9.674
57013W        W61081  14.192  14.546  10.706
57014W        W61082  13.351  12.734   9.639
57015W        W61083  11.200  12.532   7.554
57016W        W61084  14.334  14.190   8.251
57017W        W61085  14.171  11.514   7.870
57018W        W61086  12.310  11.033  10.273
57019W        W61087  14.016  13.835   8.731
57020W        W61088  14.045  12.391   8.636
57021W        W61089  12.162  12.064   8.852
57022W        W61090  12.407  12.326  10.176
57023W        W61091  13.518  13.479  10.039
57024W        W61092  12.168  11.933  10.151
57025W        W61093  12.147  14.399   8.767
57026W        W61094  11.464  14.358  10.401
57027W        W61095  11.576  13.719   7.531
57028W        W61096  14.093  13.477   8.341
57029W        W61097  11.697  12.269  10.227
57030W        W61098  14.470  12.199   7.708
57031W        W61099  12.215  13.256   8.179
57032W        W61100  13.314  12.638  10.260
57033W        W61101  13.205  12.266   9.804
57034W        W61102  11.765  12.638   9.833
57035W        W61103  13.975  14.526   9.662
57036W        W61104  13.766  11.160  10.656
57037W        W61105  11.430  11.310  10.243
57038W        W61106  11.769  12.333   9.296
57039W        W61107  12.138  12.147   7.418
57040W        W61108  10.941  13.906   9.963
57041W        W61109  12.526  12.615   9.406
57042W        W61110  12.349  11.640   7.511
57043W        W61111  11.484  12.456   8.292
57044W        W61112  11.255  14.308   9.729
57045W        W61113  14.050  12.534   7.837
57046W        W61114  14.145  11.450  10.523
57047W        W61115  13.581  13.659   8.486
57048W        W61116  11.179  12.583  10.663
57049W        W61117  14.145  11.047   7.959
57050W        W61118  13.665  13.522   7.970
57051W        W61119  12.567  12.580   8.055
57052W        W61120  13.754  11.384   7.578
57053W        W61121  13.819  11.991   9.764
57054W        W61122  11.528  12.584   8.971
57055W        W61123  11.822  13.523   8.620
57056W        W61124  13.585  12.143   8.585
57057W        W61125  12.608  11.522   9.281
57058W        W61126  14.570  13.433   9.792
57059W        W61127  14.488  11.420   9.353
57060W        W61128  11.027  14.250   8.729
57061W        W61129  11.536  13.437   8.265
57062W        W61130  11.451  11.054  10.818
57063W        W61131  12.570  13.907  10.920
57064W        W61132  14.325  12.875   8.710
57065W        W61133  13.679  13.052   7.590
57066W        W61134  12.974  14.573   9.802
57067W        W61135  13.831  13.295  10.839
57068W        W61136  12.646  11.005   8.119
57069W        W61137  13.359  11.874   8.978
57070W        W61138  11.045  13.461   9.310
57071W        W61139  12.298  11.423   7.951
57072W        W61140  12.102  12.907  10.800
57073W        W61141  13.096  11.888   8.514
57074W        W61142  13.301  13.298   9.636
57075W        W61143  11.455  13.903  10.071
57076W        W61144  12.046  13.886  10.794
57077W        W61145  13.414  11.825   8.133
57078W        W61146  13.372  13.933  10.370
57079W        W61147  12.057  12.525   8.969
57080W        W61148  11.712  14.223   9.834
57081W        W61149  14.457  14.340   7.435
57082W        W61150  11.320  13.012  10.431
57083W        W61151  13.315  13.274   9.119
57084W        W61152  11.751  12.923   8.361
57085W        W61153  12.122  13.930   9.756
57086W        W61154  12.500  11.349   8.797
57087W        W61155  11.111  13.333   7.727
57088W        W61156  12.630  12.284   7.597
57089W        W61157  11.276  12.833   8.616
57090W        W61158  12.566  11.475  10.080
57091W        W61159  14.238  11.184   7.507
57092W        W61160  14.331  12.930  10.606
57093W        W61161  12.985  14.187  10.758
57094W        W61162  14.543  13.281  10.280
57095W        W61163  13.951  14.079  10.891
57096W        W61164  11.690  14.535   9.369
57097W        W61165  14.549  13.157   8.243
57098W        W61166  13.079  12.424   8.756
57099W        W61167  12.846  11.036   8.646
57100W        W61168  11.905  14.020   8.483
57101W        W61169  12.404  11.761   9.708
57102W        W61170  12.104  11.130   9.177
57103W        W61171  11.167  13.952   7.725
57104W        W61172  12.983  13.316   8.443
57105W        W61173  11.858  14.111  10.322
57106W        W61174  11.335  12.934   8.018
57107W        W61175  11.220  11.477   9.017
57108W        W61176  12.768  13.442   9.074
57109W        W61177  11.020  11.296   8.094
57110W        W61178  13.684  12.502  10.021
57111W        W61179  13.561  11.888   7.593
57112W        W61180  14.078  13.560   9.241
57113W        W61181  12.739  14.044   9.072
57114W        W61182  12.151  14.148   7.983
57115W        W61183  13.433  11.051   7.413
57116W        W61184  11.233  14.311   9.154
57117W        W61185  13.430  12.069  10.789
57118W        W61186  11.413  11.599  10.788
57119W        W61187  11.144  12.199   8.121
57120W        W61188  11.835  12.188   7.846
57121W        W61189  13.598  12.515  10.663
57122W        W61190  11.941  12.796   9.372
57123W        W61191  13.415  11.082   8.492
57124W        W61192  12.546  14.513   8.995
57125W        W61193  13.760  13.975   9.932
57126W        W61194  13.344  14.124   9.043
57127W        W61195  13.363  13.104   8.637
57128W        W61196  12.825  11.329   7.708
57129W        W61197  14.506  10.957   8.430
57130W        W61198  14.360  11.929   8.583
57131W        W61199  13.052  13.099   7.460
57132W        W61200  13.988  13.299  10.208
57133W        W61201  13.642  14.000   7.675
57134W        W61202  12.257  11.675  10.581
57135W        W61203  12.077  12.259   9.822
57136W        W61204  14.169  13.754  10.099
57137W        W61205  13.269  11.704  10.476
57138W        W61206  11.113  12.175  10.253
57139W        W61207  12.873  12.652   9.979
57140W        W61208  11.230  13.410   8.636
57141W        W61209  11.377  12.707   9.526
57142W        W61210  13.694  12.993   9.876
57143W        W61211  13.466  14.373  10.687
57144W        W61212  13.362  12.112  10.240
57145W        W61213  13.639  14.166   8.645
57146W        W61214  12.641  13.886   9.968
57147W        W61215  12.126  14.241   9.237
57148W        W61216  13.931  13.412   9.656
57149W        W61217  12.981  13.484  10.793
57150W        W61218  11.586  13.437   9.132
57151W        W61219  13.932  13.196   8.777
57152W        W61220  13.573  14.262   9.528
57153W        W61221  11.551  13.991   9.398
57154W        W61222  12.572  12.043  10.608
57155W        W61223  13.023  14.209   8.119
57156W        W61224  12.331  13.464  10.757
57157W        W61225  12.457  13.702   8.134
57158W        W61226  11.678  12.442   7.393
57159W        W61227  11.017  14.528  14.292
57160W        W61228  11.393  13.421  13.815
57161W        W61229  14.098  13.151  11.585
57162W        W61230  14.228  14.236  13.612
57163W        W61231  12.146  14.227  11.138
57164W        W61232  12.229  12.379  12.121
57165W        W61233  11.744  12.227  12.285
57166W        W61234  12.735  13.042  11.719
57167W        W61235  12.410  14.134  14.074
57168W        W61236  11.059  11.695  14.037
57169W        W61237  11.821  10.975  13.839
57170W        W61238  13.515  11.363  12.726
57171W        W61239  13.164  12.234  11.296
57172W        W61240  13.734  11.668  14.387
57173W        W61241  11.100  11.460  13.512
57174W        W61242  11.199  14.079  14.533
57175W        W61243  12.721  13.469  11.265
57176W        W61244  11.153  12.252  12.958
57177W        W61245  12.046  12.143  14.195
57178W        W61246  14.505  12.002  12.694
57179W        W61247  14.269  13.045  13.553
57180W        W61248  12.577  12.378  12.580
57181W        W61249  13.123  13.717  12.949
57182W        W61250  11.623  13.151  13.181
57183W        W61251  10.982  12.679  12.752
57184W        W61252  12.018  12.651  13.944
57185W        W61253  14.289  12.434  14.198
57186W        W61254  11.905  13.878  12.643
57187W        W61255  13.026  13.567  13.777
57188W        W61256  12.246  12.207  13.002
57189W        W61257  12.538  12.991  12.645
57190W        W61258  13.535  13.764  14.493
57191W        W61259  12.614  13.084  14.503
57192W        W61260  12.595  12.800  13.981
57193W        W61261  11.004  12.191  14.503
57194W        W61262  13.836  13.726  14.102
57195W        W61263  11.417  11.308  12.100
57196W        W61264  11.944  13.566  13.099
57197W        W61265  14.407  13.349  12.389
57198W        W61266  13.820  11.749  12.956
57199W        W61267  14.105  11.702  11.051
57200W        W61268  14.570  12.503  13.357
57201W        W61269  12.537  14.210  13.110
57202W        W61270  14.311  13.676  11.548
57203W        W61271  11.440  14.462  11.302
57204W        W61272  11.833  14.508  11.978
57205W        W61273  11.630  11.262  13.404
57206W        W61274  14.253  12.280  13.679
57207W        W61275  13.658  12.702  12.138
57208W        W61276  13.624  12.390  11.165
57209W        W61277  12.832  13.534  13.305
57210W        W61278  12.638  11.864  12.504
57211W        W61279  13.238  13.951  13.498
57212W        W61280  14.109  12.742  11.920
57213W        W61281  13.011  11.400  11.936
57214W        W61282  11.668  14.094  11.619
57215W        W61283  11.039  11.593  12.218
57216W        W61284  13.825  12.200  12.692
57217W        W61285  11.283  13.817  12.607
57218W        W61286  12.624  14.167  11.477
57219W        W61287  14.016  12.193  10.941
57220W        W61288  11.039  13.951  13.105
57221W        W61289  11.830  13.523  13.585
57222W        W61290  12.203  12.883  12.204
57223W        W61291  12.225  11.288  13.297
57224W        W61292  14.454  11.050  12.594
57225W        W61293  11.673  12.922  11.062
57226W        W61294  11.328  11.955  11.241
57227W        W61295  11.390  13.911  12.035
57228W        W61296  12.521  13.394  12.283
57229W        W61297  13.853  14.253  13.997
57230W        W61298  12.779  11.895  11.681
57231W        W61299  14.162  14.293  12.453
57232W        W61300  13.839  12.146  14.051
57233W        W61301  14.552  13.802  12.185
57234W        W61302  13.179  13.094  13.669
57235W        W61303  10.945  12.645  11.875
57236W        W61304  12.056  13.060  13.448
57237W        W61305  13.260  12.324  11.826
57238W        W61306  13.137  12.814  11.930
57239W        W61307  11.480  12.234  13.404
57240W        W61308  11.465  12.110  14.326
57241W        W61309  11.355  11.027  12.485
57242W        W61310  13.123  11.374  13.046
57243W        W61311  12.771  11.559  14.209
57244W        W61312  13.126  11.708  11.387
57245W        W61313  14.309  14.101  14.141
57246W        W61314  13.276  11.182  14.180
57247W        W61315  14.295  13.483  14.302
57248W        W61316  13.725  11.650  13.898
57249W        W61317  13.525  11.588  12.168
57250W        W61318  13.918  12.722  14.572
57251W        W61319  11.658  14.298  12.558
57252W        W61320  12.316  12.015  11.544
57253W        W61321  11.885  11.299  14.208
57254W        W61322  13.937  11.783  11.889
57255W        W61323  14.304  12.265  11.834
57256W        W61324  12.047  14.482  14.305
57257W        W61325  11.973  11.018  11.540
57258W        W61326  14.294  11.552  12.575
57259W        W61327  14.444  13.801  11.020
57260W        W61328  11.351  13.004  12.722
57261W        W61329  13.268  11.591  10.952
57262W        W61330  14.402  13.923  12.672
57263W        W61331  14.441  11.117  13.422
57264W        W61332  12.886  12.329  13.976
57265W        W61333  12.979  13.668  11.679
57266W        W61334  13.379  12.962  14.419
57267W        W61335  13.053  10.939  12.728
57268W        W61336  11.665  11.842  12.791
57269W        W61337  11.219  13.042  13.565
57270W        W61338  13.078  14.235  12.271
57271W        W61339  14.272  11.832  13.143
57272W        W61340  12.909  14.179  13.910
57273W        W61341  14.252  13.238  11.115
57274W        W61342  12.687  12.721  12.176
57275W        W61343  14.539  11.232  13.917
57276W        W61344  12.688  13.067  13.511
57277W        W61345  12.905  11.953  12.956
57278W        W61346  13.757  12.251  11.794
57279W        W61347  14.044  11.984  11.436
57280W        W61348  13.853  14.024  11.825
57281W        W61349  13.687  13.627  12.621
57282W        W61350  13.583  12.706  11.599
57283W        W61351  13.016  12.916  12.585
57284W        W61352  13.897  12.704  12.652
57285W        W61353  11.272  11.719  13.076
57286W        W61354  14.050  12.771  13.903
57287W        W61355  14.401  14.389  13.049
57288W        W61356  12.331  13.833  12.451
57289W        W61357  13.338  14.366  13.775
57290W        W61358  13.332  11.696  13.539
57291W        W61359  12.539  14.404  13.600
57292W        W61360  14.236  11.358  12.066
57293W        W61361  14.027  12.677  13.367
57294W        W61362  11.010  11.998  13.405
57295W        W61363  13.870  11.793  12.423
57296W        W61364  14.281  11.944  14.200
57297W        W61365  13.166  13.643  12.418
57298W        W61366  12.422  14.234  12.031
57299W        W61367  11.537  11.414  11.289
57300W        W61368  12.641  11.068  13.099
57301W        W61369  11.669  14.188  10.947
57302W        W61370  12.043  12.654  11.698
57303W        W61371  12.697  13.283  14.011
57304W        W61372  12.527  11.641  12.001
57305W        W61373  13.883  11.238  12.429
57306W        W61374  13.603  14.520  12.757
57307W        W61375  13.015  14.168  13.097
57308W        W61376  12.411  13.205  13.058
57309W        W61377  14.181  13.928  13.184
57310W        W61378  11.875  11.431  11.953
57311W        W61379  12.397  13.728  12.913
57312W        W61380  11.880  11.659  10.978
57313W        W61381  12.681  12.268  13.372
57314W        W61382  13.529  11.134  13.242
57315W        W61383  10.949  12.977  13.127
57316W        W61384  12.653  12.795  11.285
57317W        W61385  11.921  11.110  11.055
57318W        W61386  12.659  12.191  12.106
57319W        W61387  13.629  11.167  13.805
57320W        W61388  12.217  13.179  13.914
57321W        W61389  13.021  12.961  14.131
57322W        W61390  13.638  12.991  14.024
57323W        W61391  12.922  11.131  14.529
57324W        W61392  12.144  11.747  12.922
57325W        W61393  11.570  11.703  12.320
57326W        W61394  11.356  14.415  11.996
57327W        W61395  12.688  13.745  14.121
57328W        W61396  11.723  13.230  11.480
57329W        W61397  13.403  12.615  12.701
57330W        W61398  13.683  12.414  13.100
57331W        W61399  12.888  13.088  13.034
57332W        W61400  13.358  13.462  11.166
57333W        W61401  13.030  11.483  12.494
57334W        W61402  14.509  11.761  11.762
57335W        W61403  11.003  14.350  13.793
57336W        W61404  11.420  13.576  13.325
57337W        W61405  10.987  14.422  11.557
57338W        W61406  12.886  11.692  13.363
57339W        W61407  12.249  13.715  11.212
57340W        W61408  14.154  14.097  11.398
57341W        W61409  13.129  12.750  11.412
57342W        W61410  11.972  11.941  11.929
57343W        W61411  12.804  11.851  10.981
57344W        W61412  13.388  13.416  14.159
57345W        W61413  13.741  11.322  11.776
57346W        W61414  11.071  11.170  11.224
57347W        W61415  12.357  13.489  13.514
57348W        W61416  12.156  13.405  12.606
57349W        W61417  11.898  13.357  11.004
57350W        W61418  11.139  13.598  11.772
57351W        W61419  11.643  12.668  14.214
57352W        W61420  12.347  11.228  14.400
57353W        W61421  13.056  11.370  13.756
57354W        W61422  12.251  11.138  12.037
57355W        W61423  13.310  11.215  11.542
57356W        W61424  11.255  11.147  13.119
57357W        W61425  11.303  12.110  12.489
57358W        W61426  13.992  11.218  12.895
57359W        W61427  11.414  11.716  11.709
57360W        W61428  13.985  11.404  13.325
57361W        W61429  14.381  12.607  11.010
57362W        W61430  11.673  11.365  12.829
57363W        W61431  12.787  11.937  13.769
57364W        W61432  10.935  11.627  11.247
57365W        W61433  11.721  13.016  13.808
57366W        W61434  13.079  12.414  12.987
57367W        W61435  12.946  14.493  11.283
57368W        W61436  11.092  13.000  10.980
57369W        W61437  11.827  13.411  14.106
57370W        W61438  11.348  12.578  13.737
57371W        W61439  12.339  12.683  13.531
57372W        W61440  14.107  11.042  13.793
57373W        W61441  14.505  12.652  13.784
57374W        W61442  14.493  12.852  11.470
57375W        W61443  13.356  13.184  11.569
57376W        W61444  13.830  14.484  11.264
57377W        W61445  13.007  12.474  14.406
57378W        W61446  11.337  13.441  14.446
57379W        W61447  14.543  11.363  14.398
57380W        W61448  14.261  12.291  13.019
57381W        W61449  12.569  14.421  14.496
57382W        W61450  12.424  11.050  11.223
57383W        W61451  13.963  13.649  11.166
57384W        W61452  11.732  11.742  14.052
57385W        W61453  12.166  13.736  13.914
57386W        W61454  14.292  11.727  13.712
57387W        W61455  13.503  14.386  11.680
57388W        W61456  13.742  13.005  13.047
57389W        W61457  11.992  11.421  13.714
57390W        W61458  12.461  12.490  14.471
57391W        W61459  11.964  13.669  11.665
57392W        W61460  13.719  13.167  11.929
57393W        W61461  11.487  11.793  13.653
57394W        W61462  12.816  13.855  12.117
57395W        W61463  14.566  12.415  12.298
57396W        W61464  12.788  11.048  14.017
57397W        W61465  13.568  13.753  13.096
57398W        W61466  13.871  14.097  12.804
57399W        W61467  13.090  13.899  11.232
57400W        W61468  11.100  13.791  14.074
57401W        W61469  11.843  11.783  13.312
57402W        W61470  11.813  11.131  12.422
57403W        W61471  13.434  11.973  13.114
57404W        W61472  12.232  13.144  11.314
57405W        W61473  14.230  13.086  12.813
57406W        W61474  11.557  13.844  14.236
57407W        W61475  13.944  14.526  12.033
57408W        W61476  12.043  11.546  12.478
57409W        W61477  11.812  13.039  12.568
57410W        W61478  12.125  14.450  13.318
57411W        W61479  14.192  14.546  14.350
57412W        W61480  13.351  12.734  13.283
57413W        W61481  11.200  12.532  11.198
57414W        W61482  14.334  14.190  11.895
57415W        W61483  14.171  11.514  11.514
57416W        W61484  12.310  11.033  13.917
57417W        W61485  14.016  13.835  12.375
57418W        W61486  14.045  12.391  12.280
57419W        W61487  12.162  12.064  12.496
57420W        W61488  12.407  12.326  13.820
57421W        W61489  13.518  13.479  13.683
57422W        W61490  12.168  11.933  13.795
57423W        W61491  12.147  14.399  12.411
57424W        W61492  11.464  14.358  14.045
57425W        W61493  11.576  13.719  11.175
57426W        W61494  14.093  13.477  11.985
57427W        W61495  11.697  12.269  13.871
57428W        W61496  14.470  12.199  11.352
57429W        W61497  12.215  13.256  11.823
57430W        W61498  13.314  12.638  13.904
57431W        W61499  13.205  12.266  13.448
57432W        W61500  11.765  12.638  13.477
57433W        W61501  13.975  14.526  13.306
57434W        W61502  13.766  11.160  14.300
57435W        W61503  11.430  11.310  13.887
57436W        W61504  11.769  12.333  12.940
57437W        W61505  12.138  12.147  11.062
57438W        W61506  10.941  13.906  13.607
57439W        W61507  12.526  12.615  13.050
57440W        W61508  12.349  11.640  11.155
57441W        W61509  11.484  12.456  11.936
57442W        W61510  11.255  14.308  13.373
57443W        W61511  14.050  12.534  11.481
57444W        W61512  14.145  11.450  14.167
57445W        W61513  13.581  13.659  12.130
57446W        W61514  11.179  12.583  14.307
57447W        W61515  14.145  11.047  11.603
57448W        W61516  13.665  13.522  11.614
57449W        W61517  12.567  12.580  11.699
57450W        W61518  13.754  11.384  11.222
57451W        W61519  13.819  11.991  13.408
57452W        W61520  11.528  12.584  12.615
57453W        W61521  11.822  13.523  12.264
57454W        W61522  13.585  12.143  12.229
57455W        W61523  12.608  11.522  12.925
57456W        W61524  14.570  13.433  13.436
57457W        W61525  14.488  11.420  12.997
57458W        W61526  11.027  14.250  12.373
57459W        W61527  11.536  13.437  11.909
57460W        W61528  11.451  11.054  14.462
57461W        W61529  12.570  13.907  14.564
57462W        W61530  14.325  12.875  12.354
57463W        W61531  13.679  13.052  11.234
57464W        W61532  12.974  14.573  13.446
57465W        W61533  13.831  13.295  14.483
57466W        W61534  12.646  11.005  11.763
57467W        W61535  13.359  11.874  12.622
57468W        W61536  11.045  13.461  12.954
57469W        W61537  12.298  11.423  11.595
57470W        W61538  12.102  12.907  14.444
57471W        W61539  13.096  11.888  12.158
57472W        W61540  13.301  13.298  13.280
57473W        W61541  11.455  13.903  13.715
57474W        W61542  12.046  13.886  14.438
57475W        W61543  11.897  11.683  11.452
57476W        W61544  13.414  11.825  11.777
57477W        W61545  13.372  13.933  14.014
57478W        W61546  12.057  12.525  12.613
57479W        W61547  11.712  14.223  13.478
57480W        W61548  14.457  14.340  11.079
57481W        W61549  11.320  13.012  14.075
57482W        W61550  13.315  13.274  12.763
57483W        W61551  11.751  12.923  12.005
57484W        W61552  12.122  13.930  13.400
57485W        W61553  12.500  11.349  12.441
57486W        W61554  11.111  13.333  11.371
57487W        W61555  12.630  12.284  11.241
57488W        W61556  11.276  12.833  12.260
57489W        W61557  12.566  11.475  13.724
57490W        W61558  14.238  11.184  11.151
57491W        W61559  14.331  12.930  14.250
57492W        W61560  12.985  14.187  14.402
57493W        W61561  14.543  13.281  13.924
57494W        W61562  13.951  14.079  14.535
57495W        W61563  11.690  14.535  13.013
57496W        W61564  14.549  13.157  11.887
57497W        W61565  13.079  12.424  12.400
57498W        W61566  12.846  11.036  12.290
57499W        W61567  11.905  14.020  12.127
57500W        W61568  12.404  11.761  13.352
57501W        W61569  12.104  11.130  12.821
57502W        W61570  11.167  13.952  11.369
57503W        W61571  12.983  13.316  12.087
57504W        W61572  11.858  14.111  13.966
57505W        W61573  11.335  12.934  11.662
57506W        W61574  11.220  11.477  12.661
57507W        W61575  12.768  13.442  12.718
57508W        W61576  11.020  11.296  11.738
57509W        W61577  13.684  12.502  13.665
57510W        W61578  13.561  11.888  11.237
57511W        W61579  14.078  13.560  12.885
57512W        W61580  12.739  14.044  12.716
57513W        W61581  12.151  14.148  11.627
57514W        W61582  13.433  11.051  11.057
57515W        W61583  11.233  14.311  12.798
57516W        W61584  13.430  12.069  14.433
57517W        W61585  11.413  11.599  14.432
57518W        W61586  11.144  12.199  11.765
57519W        W61587  11.835  12.188  11.490
57520W        W61588  13.598  12.515  14.307
57521W        W61589  11.941  12.796  13.016
57522W        W61590  13.415  11.082  12.136
57523W        W61591  12.546  14.513  12.639
57524W        W61592  13.760  13.975  13.576
57525W        W61593  13.344  14.124  12.687
57526W        W61594  13.363  13.104  12.281
57527W        W61595  12.825  11.329  11.352
57528W        W61596  14.506  10.957  12.074
57529W        W61597  12.194  12.592  11.237
57530W        W61598  14.360  11.929  12.227
57531W        W61599  13.052  13.099  11.104
57532W        W61600  13.988  13.299  13.852
57533W        W61601  13.642  14.000  11.319
57534W        W61602  12.257  11.675  14.225
57535W        W61603  12.077  12.259  13.466
57536W        W61604  14.169  13.754  13.743
57537W        W61605  13.269  11.704  14.120
57538W        W61606  11.113  12.175  13.897
57539W        W61607  12.873  12.652  13.623
57540W        W61608  11.230  13.410  12.280
57541W        W61609  11.377  12.707  13.170
57542W        W61610  13.694  12.993  13.520
57543W        W61611  13.466  14.373  14.331
57544W        W61612  13.362  12.112  13.884
57545W        W61613  13.639  14.166  12.289
57546W        W61614  12.641  13.886  13.612
57547W        W61615  12.126  14.241  12.881
57548W        W61616  13.931  13.412  13.300
57549W        W61617  12.981  13.484  14.437
57550W        W61618  11.586  13.437  12.776
57551W        W61619  13.932  13.196  12.421
57552W        W61620  13.573  14.262  13.172
57553W        W61621  11.551  13.991  13.042
57554W        W61622  12.572  12.043  14.252
57555W        W61623  13.023  14.209  11.763
57556W        W61624  12.331  13.464  14.401
57557W        W61625  12.457  13.702  11.778
57558W        W61626  11.678  12.442  11.037
57559W        W61627  11.017  14.528  17.936
57560W        W61628  11.393  13.421  17.459
57561W        W61629  14.098  13.151  15.229
57562W        W61630  14.228  14.236  17.256
57563W        W61631  12.146  14.227  14.782
57564W        W61632  12.229  12.379  15.765
57565W        W61633  11.744  12.227  15.929
57566W        W61634  12.735  13.042  15.363
57567W        W61635  12.410  14.134  17.718
57568W        W61636  11.059  11.695  17.681
57569W        W61637  11.821  10.975  17.483
57570W        W61638  13.515  11.363  16.370
57571W        W61639  13.164  12.234  14.940
57572W        W61640  13.734  11.668  18.031
57573W        W61641  11.100  11.460  17.156
57574W        W61642  11.199  14.079  18.177
57575W        W61643  12.721  13.469  14.909
57576W        W61644  11.153  12.252  16.602
57577W        W61645  12.046  12.143  17.839
57578W        W61646  14.505  12.002  16.338
57579W        W61647  14.269  13.045  17.197
57580W        W61648  12.577  12.378  16.224
57581W        W61649  13.123  13.717  16.593
57582W        W61650  11.623  13.151  16.825
57583W        W61651  10.982  12.679  16.396
57584W        W61652  12.018  12.651  17.588
57585W        W61653  14.289  12.434  17.842
57586W        W61654  11.905  13.878  16.287
57587W        W61655  12.246  12.207  16.646
57588W        W61656  12.538  12.991  16.289
57589W        W61657  13.535  13.764  18.137
57590W        W61658  12.614  13.084  18.147
57591W        W61659  12.595  12.800  17.625
57592W        W61660  11.004  12.191  18.147
57593W        W61661  13.836  13.726  17.746
57594W        W61662  11.417  11.308  15.744
57595W        W61663  11.944  13.566  16.743
57596W        W61664  14.407  13.349  16.033
57597W        W61665  13.820  11.749  16.600
57598W        W61666  14.105  11.702  14.695
57599W        W61667  14.570  12.503  17.001
57600W        W61668  14.311  13.676  15.192
57601W        W61669  11.440  14.462  14.946
57602W        W61670  11.833  14.508  15.622
57603W        W61671  11.630  11.262  17.048
57604W        W61672  14.253  12.280  17.323
57605W        W61673  13.624  12.390  14.809
57606W        W61674  12.832  13.534  16.949
57607W        W61675  12.638  11.864  16.148
57608W        W61676  13.238  13.951  17.142
57609W        W61677  14.109  12.742  15.564
57610W        W61678  13.011  11.400  15.580
57611W        W61679  11.668  14.094  15.263
57612W        W61680  11.039  11.593  15.862
57613W        W61681  13.825  12.200  16.336
57614W        W61682  11.283  13.817  16.251
57615W        W61683  12.624  14.167  15.121
57616W        W61684  14.016  12.193  14.585
57617W        W61685  11.039  13.951  16.749
57618W        W61686  11.830  13.523  17.229
57619W        W61687  12.203  12.883  15.848
57620W        W61688  12.225  11.288  16.941
57621W        W61689  14.454  11.050  16.238
57622W        W61690  11.673  12.922  14.706
57623W        W61691  11.328  11.955  14.885
57624W        W61692  11.390  13.911  15.679
57625W        W61693  13.853  14.253  17.641
57626W        W61694  12.779  11.895  15.325
57627W        W61695  14.162  14.293  16.097
57628W        W61696  13.839  12.146  17.695
57629W        W61697  14.552  13.802  15.829
57630W        W61698  13.179  13.094  17.313
57631W        W61699  10.945  12.645  15.519
57632W        W61700  12.056  13.060  17.092
57633W        W61701  13.260  12.324  15.470
57634W        W61702  13.137  12.814  15.574
57635W        W61703  11.480  12.234  17.048
57636W        W61704  11.465  12.110  17.970
57637W        W61705  11.355  11.027  16.129
57638W        W61706  13.123  11.374  16.690
57639W        W61707  12.771  11.559  17.853
57640W        W61708  13.126  11.708  15.031
57641W        W61709  14.309  14.101  17.785
57642W        W61710  13.276  11.182  17.824
57643W        W61711  14.295  13.483  17.946
57644W        W61712  13.725  11.650  17.542
57645W        W61713  13.525  11.588  15.812
57646W        W61714  11.658  14.298  16.202
57647W        W61715  12.316  12.015  15.188
57648W        W61716  11.885  11.299  17.852
57649W        W61717  13.937  11.783  15.533
57650W        W61718  14.304  12.265  15.478
57651W        W61719  12.047  14.482  17.949
57652W        W61720  11.973  11.018  15.184
57653W        W61721  14.294  11.552  16.219
57654W        W61722  14.444  13.801  14.664
57655W        W61723  11.351  13.004  16.366
57656W        W61724  13.268  11.591  14.596
57657W        W61725  14.402  13.923  16.316
57658W        W61726  14.441  11.117  17.066
57659W        W61727  12.886  12.329  17.620
57660W        W61728  12.979  13.668  15.323
57661W        W61729  13.053  10.939  16.372
57662W        W61730  11.665  11.842  16.435
57663W        W61731  11.219  13.042  17.209
57664W        W61732  14.272  11.832  16.787
57665W        W61733  12.909  14.179  17.554
57666W        W61734  14.252  13.238  14.759
57667W        W61735  12.687  12.721  15.820
57668W        W61736  14.539  11.232  17.561
57669W        W61737  12.688  13.067  17.155
57670W        W61738  12.905  11.953  16.600
57671W        W61739  13.757  12.251  15.438
57672W        W61740  14.044  11.984  15.080
57673W        W61741  13.853  14.024  15.469
57674W        W61742  13.687  13.627  16.265
57675W        W61743  13.583  12.706  15.243
57676W        W61744  13.897  12.704  16.296
57677W        W61745  11.272  11.719  16.720
57678W        W61746  14.050  12.771  17.547
57679W        W61747  14.401  14.389  16.693
57680W        W61748  12.331  13.833  16.095
57681W        W61749  13.338  14.366  17.419
57682W        W61750  13.332  11.696  17.183
57683W        W61751  12.539  14.404  17.244
57684W        W61752  14.236  11.358  15.710
57685W        W61753  14.027  12.677  17.011
57686W        W61754  11.010  11.998  17.049
57687W        W61755  13.870  11.793  16.067
57688W        W61756  14.281  11.944  17.844
57689W        W61757  13.166  13.643  16.062
57690W        W61758  12.422  14.234  15.675
57691W        W61759  11.537  11.414  14.933
57692W        W61760  12.641  11.068  16.743
57693W        W61761  11.669  14.188  14.591
57694W        W61762  12.043  12.654  15.342
57695W        W61763  12.527  11.641  15.645
57696W        W61764  13.883  11.238  16.073
57697W        W61765  13.603  14.520  16.401
57698W        W61766  12.411  13.205  16.702
57699W        W61767  14.181  13.928  16.828
57700W        W61768  11.875  11.431  15.597
57701W        W61769  11.880  11.659  14.622
57702W        W61770  12.681  12.268  17.016
57703W        W61771  13.529  11.134  16.886
57704W        W61772  10.949  12.977  16.771
57705W        W61773  12.653  12.795  14.929
57706W        W61774  11.921  11.110  14.699
57707W        W61775  12.659  12.191  15.750
57708W        W61776  13.629  11.167  17.449
57709W        W61777  12.217  13.179  17.558
57710W        W61778  13.021  12.961  17.775
57711W        W61779  12.922  11.131  18.173
57712W        W61780  12.144  11.747  16.566
57713W        W61781  11.570  11.703  15.964
57714W        W61782  11.356  14.415  15.640
57715W        W61783  12.688  13.745  17.765
57716W        W61784  11.723  13.230  15.124
57717W        W61785  13.683  12.414  16.744
57718W        W61786  12.888  13.088  16.678
57719W        W61787  13.358  13.462  14.810
57720W        W61788  13.030  11.483  16.138
57721W        W61789  14.509  11.761  15.406
57722W        W61790  11.003  14.350  17.437
57723W        W61791  11.420  13.576  16.969
57724W        W61792  10.987  14.422  15.201
57725W        W61793  12.886  11.692  17.007
57726W        W61794  12.249  13.715  14.856
57727W        W61795  14.154  14.097  15.042
57728W        W61796  13.129  12.750  15.056
57729W        W61797  11.972  11.941  15.573
57730W        W61798  12.804  11.851  14.625
57731W        W61799  13.388  13.416  17.803
57732W        W61800  13.741  11.322  15.420
57733W        W61801  11.071  11.170  14.868
57734W        W61802  12.357  13.489  17.158
57735W        W61803  12.156  13.405  16.250
57736W        W61804  11.898  13.357  14.648
57737W        W61805  11.139  13.598  15.416
57738W        W61806  11.643  12.668  17.858
57739W        W61807  12.347  11.228  18.044
57740W        W61808  13.056  11.370  17.400
57741W        W61809  12.251  11.138  15.681
57742W        W61810  13.310  11.215  15.186
57743W        W61811  11.255  11.147  16.763
57744W        W61812  11.303  12.110  16.133
57745W        W61813  13.992  11.218  16.539
57746W        W61814  11.414  11.716  15.353
57747W        W61815  13.985  11.404  16.969
57748W        W61816  14.381  12.607  14.654
57749W        W61817  11.673  11.365  16.473
57750W        W61818  12.787  11.937  17.413
57751W        W61819  10.935  11.627  14.891
57752W        W61820  11.721  13.016  17.452
57753W        W61821  12.946  14.493  14.927
57754W        W61822  11.092  13.000  14.624
57755W        W61823  11.827  13.411  17.750
57756W        W61824  11.348  12.578  17.381
57757W        W61825  12.339  12.683  17.175
57758W        W61826  14.107  11.042  17.437
57759W        W61827  14.505  12.652  17.428
57760W        W61828  14.493  12.852  15.114
57761W        W61829  13.356  13.184  15.213
57762W        W61830  13.830  14.484  14.908
57763W        W61831  13.007  12.474  18.050
57764W        W61832  11.337  13.441  18.090
57765W        W61833  14.543  11.363  18.042
57766W        W61834  14.261  12.291  16.663
57767W        W61835  12.569  14.421  18.140
57768W        W61836  12.424  11.050  14.867
57769W        W61837  13.963  13.649  14.810
57770W        W61838  11.732  11.742  17.696
57771W        W61839  12.166  13.736  17.558
57772W        W61840  14.292  11.727  17.356
57773W        W61841  13.503  14.386  15.324
57774W        W61842  13.742  13.005  16.691
57775W        W61843  11.992  11.421  17.358
57776W        W61844  12.461  12.490  18.115
57777W        W61845  11.964  13.669  15.309
57778W        W61846  13.719  13.167  15.573
57779W        W61847  11.487  11.793  17.297
57780W        W61848  12.816  13.855  15.761
57781W        W61849  14.566  12.415  15.942
57782W        W61850  12.788  11.048  17.661
57783W        W61851  13.568  13.753  16.740
57784W        W61852  13.871  14.097  16.448
57785W        W61853  13.090  13.899  14.876
57786W        W61854  11.100  13.791  17.718
57787W        W61855  11.843  11.783  16.956
57788W        W61856  11.813  11.131  16.066
57789W        W61857  13.434  11.973  16.758
57790W        W61858  12.232  13.144  14.958
57791W        W61859  14.230  13.086  16.457
57792W        W61860  11.557  13.844  17.880
57793W        W61861  13.944  14.526  15.677
57794W        W61862  12.043  11.546  16.122
57795W        W61863  11.812  13.039  16.212
57796W        W61864  14.192  14.546  17.994
57797W        W61865  13.351  12.734  16.927
57798W        W61866  11.200  12.532  14.842
57799W        W61867  14.334  14.190  15.539
57800W        W61868  14.171  11.514  15.158
57801W        W61869  12.310  11.033  17.561
57802W        W61870  14.016  13.835  16.019
57803W        W61871  14.045  12.391  15.924
57804W        W61872  12.162  12.064  16.140
57805W        W61873  12.407  12.326  17.464
57806W        W61874  13.518  13.479  17.327
57807W        W61875  12.168  11.933  17.439
57808W        W61876  12.147  14.399  16.055
57809W        W61877  11.464  14.358  17.689
57810W        W61878  11.576  13.719  14.819
57811W        W61879  14.093  13.477  15.629
57812W        W61880  11.697  12.269  17.515
57813W        W61881  14.470  12.199  14.996
57814W        W61882  12.215  13.256  15.467
57815W        W61883  13.314  12.638  17.548
57816W        W61884  13.205  12.266  17.092
57817W        W61885  11.765  12.638  17.121
57818W        W61886  13.975  14.526  16.950
57819W        W61887  13.766  11.160  17.944
57820W        W61888  11.430  11.310  17.531
57821W        W61889  11.769  12.333  16.584
57822W        W61890  12.138  12.147  14.706
57823W        W61891  10.941  13.906  17.251
57824W        W61892  12.526  12.615  16.694
57825W        W61893  12.349  11.640  14.799
57826W        W61894  11.484  12.456  15.580
57827W        W61895  11.255  14.308  17.017
57828W        W61896  14.050  12.534  15.125
57829W        W61897  14.145  11.450  17.811
57830W        W61898  11.179  12.583  17.951
57831W        W61899  14.145  11.047  15.247
57832W        W61900  13.665  13.522  15.258
57833W        W61901  12.567  12.580  15.343
57834W        W61902  13.754  11.384  14.866
57835W        W61903  13.819  11.991  17.052
57836W        W61904  11.528  12.584  16.259
57837W        W61905  11.822  13.523  15.908
57838W        W61906  13.585  12.143  15.873
57839W        W61907  12.608  11.522  16.569
57840W        W61908  14.570  13.433  17.080
57841W        W61909  14.488  11.420  16.641
57842W        W61910  11.027  14.250  16.017
57843W        W61911  11.536  13.437  15.553
57844W        W61912  11.451  11.054  18.106
57845W        W61913  12.570  13.907  18.208
57846W        W61914  14.325  12.875  15.998
57847W        W61915  13.679  13.052  14.878
57848W        W61916  12.974  14.573  17.090
57849W        W61917  13.831  13.295  18.127
57850W        W61918  12.646  11.005  15.407
57851W        W61919  13.359  11.874  16.266
57852W        W61920  11.045  13.461  16.598
57853W        W61921  12.298  11.423  15.239
57854W        W61922  12.102  12.907  18.088
57855W        W61923  13.096  11.888  15.802
57856W        W61924  13.301  13.298  16.924
57857W        W61925  11.455  13.903  17.359
57858W        W61926  12.046  13.886  18.082
57859W        W61927  11.897  11.683  15.096
57860W        W61928  13.414  11.825  15.421
57861W        W61929  13.372  13.933  17.658
57862W        W61930  12.057  12.525  16.257
57863W        W61931  11.712  14.223  17.122
57864W        W61932  14.457  14.340  14.723
57865W        W61933  11.320  13.012  17.719
57866W        W61934  11.751  12.923  15.649
57867W        W61935  12.122  13.930  17.044
57868W        W61936  12.500  11.349  16.085
57869W        W61937  11.111  13.333  15.015
57870W        W61938  12.630  12.284  14.885
57871W        W61939  11.276  12.833  15.904
57872W        W61940  12.566  11.475  17.368
57873W        W61941  14.238  11.184  14.795
57874W        W61942  14.331  12.930  17.894
57875W        W61943  12.985  14.187  18.046
57876W        W61944  14.543  13.281  17.568
57877W        W61945  13.951  14.079  18.179
57878W        W61946  11.690  14.535  16.657
57879W        W61947  14.549  13.157  15.531
57880W        W61948  13.079  12.424  16.044
57881W        W61949  12.846  11.036  15.934
57882W        W61950  11.905  14.020  15.771
57883W        W61951  12.404  11.761  16.996
57884W        W61952  12.104  11.130  16.465
57885W        W61953  11.167  13.952  15.013
57886W        W61954  12.983  13.316  15.731
57887W        W61955  11.858  14.111  17.610
57888W        W61956  11.335  12.934  15.306
57889W        W61957  11.220  11.477  16.305
57890W        W61958  12.768  13.442  16.362
57891W        W61959  11.020  11.296  15.382
57892W        W61960  13.684  12.502  17.309
57893W        W61961  13.561  11.888  14.881
57894W        W61962  14.078  13.560  16.529
57895W        W61963  12.151  14.148  15.271
57896W        W61964  13.433  11.051  14.701
57897W        W61965  11.233  14.311  16.442
57898W        W61966  13.430  12.069  18.077
57899W        W61967  11.413  11.599  18.076
57900W        W61968  11.144  12.199  15.409
57901W        W61969  11.835  12.188  15.134
57902W        W61970  11.941  12.796  16.660
57903W        W61971  13.415  11.082  15.780
57904W        W61972  12.546  14.513  16.283
57905W        W61973  13.760  13.975  17.220
57906W        W61974  13.344  14.124  16.331
57907W        W61975  13.363  13.104  15.925
57908W        W61976  12.825  11.329  14.996
57909W        W61977  14.506  10.957  15.718
57910W        W61978  12.194  12.592  14.881
57911W        W61979  14.360  11.929  15.871
57912W        W61980  13.052  13.099  14.748
57913W        W61981  13.988  13.299  17.496
57914W        W61982  13.642  14.000  14.963
57915W        W61983  12.257  11.675  17.869
57916W        W61984  12.077  12.259  17.110
57917W        W61985  14.169  13.754  17.387
57918W        W61986  13.269  11.704  17.764
57919W        W61987  11.113  12.175  17.541
57920W        W61988  12.873  12.652  17.267
57921W        W61989  11.230  13.410  15.924
57922W        W61990  11.377  12.707  16.814
57923W        W61991  13.466  14.373  17.975
57924W        W61992  13.362  12.112  17.528
57925W        W61993  13.639  14.166  15.933
57926W        W61994  12.641  13.886  17.256
57927W        W61995  12.126  14.241  16.525
57928W        W61996  13.931  13.412  16.944
57929W        W61997  11.586  13.437  16.420
57930W        W61998  13.932  13.196  16.065
57931W        W61999  13.573  14.262  16.816
57932W        W62000  11.551  13.991  16.686
57933W        W62001  12.572  12.043  17.896
57934W        W62002  13.023  14.209  15.407
57935W        W62003  12.457  13.702  15.422
57936W        W62004  11.678  12.442  14.681
57937W        W62005  11.017  14.528  21.580
57938W        W62006  11.393  13.421  21.103
57939W        W62007  14.098  13.151  18.873
57940W        W62008  14.228  14.236  20.900
57941W        W62009  12.146  14.227  18.426
57942W        W62010  12.229  12.379  19.409
57943W        W62011  11.744  12.227  19.573
57944W        W62012  12.735  13.042  19.007
57945W        W62013  12.410  14.134  21.362
57946W        W62014  11.059  11.695  21.325
57947W        W62015  11.821  10.975  21.127
57948W        W62016  13.515  11.363  20.014
57949W        W62017  13.164  12.234  18.584
57950W        W62018  13.734  11.668  21.675
57951W        W62019  11.100  11.460  20.800
57952W        W62020  11.199  14.079  21.821
57953W        W62021  11.153  12.252  20.246
57954W        W62022  12.046  12.143  21.483
57955W        W62023  14.505  12.002  19.982
57956W        W62024  14.269  13.045  20.841
57957W        W62025  12.577  12.378  19.868
57958W        W62026  13.123  13.717  20.237
57959W        W62027  11.623  13.151  20.469
57960W        W62028  10.982  12.679  20.040
57961W        W62029  12.018  12.651  21.232
57962W        W62030  14.289  12.434  21.486
57963W        W62031  11.905  13.878  19.931
57964W        W62032  13.026  13.567  21.065
57965W        W62033  12.246  12.207  20.290
57966W        W62034  12.538  12.991  19.933
57967W        W62035  13.535  13.764  21.781
57968W        W62036  12.614  13.084  21.791
57969W        W62037  12.595  12.800  21.269
57970W        W62038  11.004  12.191  21.791
57971W        W62039  13.836  13.726  21.390
57972W        W62040  11.417  11.308  19.388
57973W        W62041  11.944  13.566  20.387
57974W        W62042  14.407  13.349  19.677
57975W        W62043  13.820  11.749  20.244
57976W        W62044  14.105  11.702  18.339
57977W        W62045  14.570  12.503  20.645
57978W        W62046  12.537  14.210  20.398
57979W        W62047  14.311  13.676  18.836
57980W        W62048  11.440  14.462  18.590
57981W        W62049  11.833  14.508  19.266
57982W        W62050  11.630  11.262  20.692
57983W        W62051  14.253  12.280  20.967
57984W        W62052  13.658  12.702  19.426
57985W        W62053  13.624  12.390  18.453
57986W        W62054  12.832  13.534  20.593
57987W        W62055  12.638  11.864  19.792
57988W        W62056  13.238  13.951  20.786
57989W        W62057  14.109  12.742  19.208
57990W        W62058  11.039  11.593  19.506
57991W        W62059  13.825  12.200  19.980
57992W        W62060  11.283  13.817  19.895
57993W        W62061  12.624  14.167  18.765
57994W        W62062  14.016  12.193  18.229
57995W        W62063  11.039  13.951  20.393
57996W        W62064  11.830  13.523  20.873
57997W        W62065  12.203  12.883  19.492
57998W        W62066  12.225  11.288  20.585
57999W        W62067  14.454  11.050  19.882
58000W        W62068  11.673  12.922  18.350
58001W        W62069  11.328  11.955  18.529
58002W        W62070  11.390  13.911  19.323
58003W        W62071  12.521  13.394  19.571
58004W        W62072  13.853  14.253  21.285
58005W        W62073  14.162  14.293  19.741
58006W        W62074  13.839  12.146  21.339
58007W        W62075  14.552  13.802  19.473
58008W        W62076  13.179  13.094  20.957
58009W        W62077  10.945  12.645  19.163
58010W        W62078  12.056  13.060  20.736
58011W        W62079  13.260  12.324  19.114
58012W        W62080  13.137  12.814  19.218
58013W        W62081  11.480  12.234  20.692
58014W        W62082  11.465  12.110  21.614
58015W        W62083  11.355  11.027  19.773
58016W        W62084  13.123  11.374  20.334
58017W        W62085  12.771  11.559  21.497
58018W        W62086  14.309  14.101  21.429
58019W        W62087  13.276  11.182  21.468
58020W        W62088  14.295  13.483  21.590
58021W        W62089  13.725  11.650  21.186
58022W        W62090  13.525  11.588  19.456
58023W        W62091  13.918  12.722  21.860
58024W        W62092  11.658  14.298  19.846
58025W        W62093  12.316  12.015  18.832
58026W        W62094  11.885  11.299  21.496
58027W        W62095  13.937  11.783  19.177
58028W        W62096  14.304  12.265  19.122
58029W        W62097  12.047  14.482  21.593
58030W        W62098  11.973  11.018  18.828
58031W        W62099  14.294  11.552  19.863
58032W        W62100  14.444  13.801  18.308
58033W        W62101  11.351  13.004  20.010
58034W        W62102  13.268  11.591  18.240
58035W        W62103  14.402  13.923  19.960
58036W        W62104  14.441  11.117  20.710
58037W        W62105  12.886  12.329  21.264
58038W        W62106  12.979  13.668  18.967
58039W        W62107  13.379  12.962  21.707
58040W        W62108  13.053  10.939  20.016
58041W        W62109  11.665  11.842  20.079
58042W        W62110  11.219  13.042  20.853
58043W        W62111  13.078  14.235  19.559
58044W        W62112  14.272  11.832  20.431
58045W        W62113  12.909  14.179  21.198
58046W        W62114  14.252  13.238  18.403
58047W        W62115  12.687  12.721  19.464
58048W        W62116  14.539  11.232  21.205
58049W        W62117  12.688  13.067  20.799
58050W        W62118  12.905  11.953  20.244
58051W        W62119  13.757  12.251  19.082
58052W        W62120  14.044  11.984  18.724
58053W        W62121  13.853  14.024  19.113
58054W        W62122  13.687  13.627  19.909
58055W        W62123  13.583  12.706  18.887
58056W        W62124  13.016  12.916  19.873
58057W        W62125  13.897  12.704  19.940
58058W        W62126  11.272  11.719  20.364
58059W        W62127  14.050  12.771  21.191
58060W        W62128  14.401  14.389  20.337
58061W        W62129  12.331  13.833  19.739
58062W        W62130  13.338  14.366  21.063
58063W        W62131  13.332  11.696  20.827
58064W        W62132  12.539  14.404  20.888
58065W        W62133  14.236  11.358  19.354
58066W        W62134  14.027  12.677  20.655
58067W        W62135  11.010  11.998  20.693
58068W        W62136  13.870  11.793  19.711
58069W        W62137  14.281  11.944  21.488
58070W        W62138  13.166  13.643  19.706
58071W        W62139  12.422  14.234  19.319
58072W        W62140  11.537  11.414  18.577
58073W        W62141  12.641  11.068  20.387
58074W        W62142  11.669  14.188  18.235
58075W        W62143  12.043  12.654  18.986
58076W        W62144  12.697  13.283  21.299
58077W        W62145  12.527  11.641  19.289
58078W        W62146  13.883  11.238  19.717
58079W        W62147  13.603  14.520  20.045
58080W        W62148  13.015  14.168  20.385
58081W        W62149  12.411  13.205  20.346
58082W        W62150  14.181  13.928  20.472
58083W        W62151  11.875  11.431  19.241
58084W        W62152  12.397  13.728  20.201
58085W        W62153  11.880  11.659  18.266
58086W        W62154  12.681  12.268  20.660
58087W        W62155  13.529  11.134  20.530
58088W        W62156  10.949  12.977  20.415
58089W        W62157  12.653  12.795  18.573
58090W        W62158  11.921  11.110  18.343
58091W        W62159  12.659  12.191  19.394
58092W        W62160  13.629  11.167  21.093
58093W        W62161  12.217  13.179  21.202
58094W        W62162  13.021  12.961  21.419
58095W        W62163  13.638  12.991  21.312
58096W        W62164  12.922  11.131  21.817
58097W        W62165  12.144  11.747  20.210
58098W        W62166  11.570  11.703  19.608
58099W        W62167  11.356  14.415  19.284
58100W        W62168  12.688  13.745  21.409
58101W        W62169  11.723  13.230  18.768
58102W        W62170  13.403  12.615  19.989
58103W        W62171  13.683  12.414  20.388
58104W        W62172  12.888  13.088  20.322
58105W        W62173  13.358  13.462  18.454
58106W        W62174  13.030  11.483  19.782
58107W        W62175  14.509  11.761  19.050
58108W        W62176  11.003  14.350  21.081
58109W        W62177  11.420  13.576  20.613
58110W        W62178  10.987  14.422  18.845
58111W        W62179  12.886  11.692  20.651
58112W        W62180  12.249  13.715  18.500
58113W        W62181  14.154  14.097  18.686
58114W        W62182  11.972  11.941  19.217
58115W        W62183  12.804  11.851  18.269
58116W        W62184  13.388  13.416  21.447
58117W        W62185  13.741  11.322  19.064
58118W        W62186  11.071  11.170  18.512
58119W        W62187  12.357  13.489  20.802
58120W        W62188  12.156  13.405  19.894
58121W        W62189  11.898  13.357  18.292
58122W        W62190  11.139  13.598  19.060
58123W        W62191  11.643  12.668  21.502
58124W        W62192  12.347  11.228  21.688
58125W        W62193  13.056  11.370  21.044
58126W        W62194  12.251  11.138  19.325
58127W        W62195  13.310  11.215  18.830
58128W        W62196  11.255  11.147  20.407
58129W        W62197  11.303  12.110  19.777
58130W        W62198  13.992  11.218  20.183
58131W        W62199  11.414  11.716  18.997
58132W        W62200  13.985  11.404  20.613
58133W        W62201  14.381  12.607  18.298
58134W        W62202  11.673  11.365  20.117
58135W        W62203  12.787  11.937  21.057
58136W        W62204  10.935  11.627  18.535
58137W        W62205  11.721  13.016  21.096
58138W        W62206  13.079  12.414  20.275
58139W        W62207  12.946  14.493  18.571
58140W        W62208  11.092  13.000  18.268
58141W        W62209  11.827  13.411  21.394
58142W        W62210  11.348  12.578  21.025
58143W        W62211  12.339  12.683  20.819
58144W        W62212  14.107  11.042  21.081
58145W        W62213  14.505  12.652  21.072
58146W        W62214  14.493  12.852  18.758
58147W        W62215  13.356  13.184  18.857
58148W        W62216  13.830  14.484  18.552
58149W        W62217  13.007  12.474  21.694
58150W        W62218  11.337  13.441  21.734
58151W        W62219  14.543  11.363  21.686
58152W        W62220  14.261  12.291  20.307
58153W        W62221  12.569  14.421  21.784
58154W        W62222  12.424  11.050  18.511
58155W        W62223  13.963  13.649  18.454
58156W        W62224  11.732  11.742  21.340
58157W        W62225  12.166  13.736  21.202
58158W        W62226  14.292  11.727  21.000
58159W        W62227  13.503  14.386  18.968
58160W        W62228  13.742  13.005  20.335
58161W        W62229  11.992  11.421  21.002
58162W        W62230  12.461  12.490  21.759
58163W        W62231  11.964  13.669  18.953
58164W        W62232  13.719  13.167  19.217
58165W        W62233  11.487  11.793  20.941
58166W        W62234  12.816  13.855  19.405
58167W        W62235  14.566  12.415  19.586
58168W        W62236  12.788  11.048  21.305
58169W        W62237  13.568  13.753  20.384
58170W        W62238  13.871  14.097  20.092
58171W        W62239  13.090  13.899  18.520
58172W        W62240  11.100  13.791  21.362
58173W        W62241  11.843  11.783  20.600
58174W        W62242  11.813  11.131  19.710
58175W        W62243  13.434  11.973  20.402
58176W        W62244  12.232  13.144  18.602
58177W        W62245  14.230  13.086  20.101
58178W        W62246  11.557  13.844  21.524
58179W        W62247  13.944  14.526  19.321
58180W        W62248  12.043  11.546  19.766
58181W        W62249  11.812  13.039  19.856
58182W        W62250  12.125  14.450  20.606
58183W        W62251  14.192  14.546  21.638
58184W        W62252  13.351  12.734  20.571
58185W        W62253  11.200  12.532  18.486
58186W        W62254  14.334  14.190  19.183
58187W        W62255  14.171  11.514  18.802
58188W        W62256  12.310  11.033  21.205
58189W        W62257  14.016  13.835  19.663
58190W        W62258  14.045  12.391  19.568
58191W        W62259  12.162  12.064  19.784
58192W        W62260  12.407  12.326  21.108
58193W        W62261  13.518  13.479  20.971
58194W        W62262  12.168  11.933  21.083
58195W        W62263  12.147  14.399  19.699
58196W        W62264  11.464  14.358  21.333
58197W        W62265  11.576  13.719  18.463
58198W        W62266  14.093  13.477  19.273
58199W        W62267  11.697  12.269  21.159
58200W        W62268  14.470  12.199  18.640
58201W        W62269  13.314  12.638  21.192
58202W        W62270  13.205  12.266  20.736
58203W        W62271  11.765  12.638  20.765
58204W        W62272  13.975  14.526  20.594
58205W        W62273  13.766  11.160  21.588
58206W        W62274  11.430  11.310  21.175
58207W        W62275  11.769  12.333  20.228
58208W        W62276  12.138  12.147  18.350
58209W        W62277  10.941  13.906  20.895
58210W        W62278  12.526  12.615  20.338
58211W        W62279  12.349  11.640  18.443
58212W        W62280  11.484  12.456  19.224
58213W        W62281  11.255  14.308  20.661
58214W        W62282  14.050  12.534  18.769
58215W        W62283  14.145  11.450  21.455
58216W        W62284  13.581  13.659  19.418
58217W        W62285  11.179  12.583  21.595
58218W        W62286  14.145  11.047  18.891
58219W        W62287  13.665  13.522  18.902
58220W        W62288  12.567  12.580  18.987
58221W        W62289  13.754  11.384  18.510
58222W        W62290  13.819  11.991  20.696
58223W        W62291  11.528  12.584  19.903
58224W        W62292  11.822  13.523  19.552
58225W        W62293  13.585  12.143  19.517
58226W        W62294  12.608  11.522  20.213
58227W        W62295  14.570  13.433  20.724
58228W        W62296  14.488  11.420  20.285
58229W        W62297  11.027  14.250  19.661
58230W        W62298  11.536  13.437  19.197
58231W        W62299  11.451  11.054  21.750
58232W        W62300  12.570  13.907  21.852
58233W        W62301  14.325  12.875  19.642
58234W        W62302  13.679  13.052  18.522
58235W        W62303  12.974  14.573  20.734
58236W        W62304  13.831  13.295  21.771
58237W        W62305  12.646  11.005  19.051
58238W        W62306  13.359  11.874  19.910
58239W        W62307  11.045  13.461  20.242
58240W        W62308  12.298  11.423  18.883
58241W        W62309  12.102  12.907  21.732
58242W        W62310  13.096  11.888  19.446
58243W        W62311  13.301  13.298  20.568
58244W        W62312  11.455  13.903  21.003
58245W        W62313  12.046  13.886  21.726
58246W        W62314  11.897  11.683  18.740
58247W        W62315  13.372  13.933  21.302
58248W        W62316  12.057  12.525  19.901
58249W        W62317  11.712  14.223  20.766
58250W        W62318  14.457  14.340  18.367
58251W        W62319  11.320  13.012  21.363
58252W        W62320  13.315  13.274  20.051
58253W        W62321  11.751  12.923  19.293
58254W        W62322  12.122  13.930  20.688
58255W        W62323  12.500  11.349  19.729
58256W        W62324  11.111  13.333  18.659
58257W        W62325  12.630  12.284  18.529
58258W        W62326  11.276  12.833  19.548
58259W        W62327  12.566  11.475  21.012
58260W        W62328  14.238  11.184  18.439
58261W        W62329  14.331  12.930  21.538
58262W        W62330  12.985  14.187  21.690
58263W        W62331  14.543  13.281  21.212
58264W        W62332  13.951  14.079  21.823
58265W        W62333  11.690  14.535  20.301
58266W        W62334  14.549  13.157  19.175
58267W        W62335  13.079  12.424  19.688
58268W        W62336  12.846  11.036  19.578
58269W        W62337  11.905  14.020  19.415
58270W        W62338  12.404  11.761  20.640
58271W        W62339  12.104  11.130  20.109
58272W        W62340  11.167  13.952  18.657
58273W        W62341  12.983  13.316  19.375
58274W        W62342  11.858  14.111  21.254
58275W        W62343  11.335  12.934  18.950
58276W        W62344  11.220  11.477  19.949
58277W        W62345  12.768  13.442  20.006
58278W        W62346  11.020  11.296  19.026
58279W        W62347  13.684  12.502  20.953
58280W        W62348  13.561  11.888  18.525
58281W        W62349  14.078  13.560  20.173
58282W        W62350  13.433  11.051  18.345
58283W        W62351  11.233  14.311  20.086
58284W        W62352  13.430  12.069  21.721
58285W        W62353  11.413  11.599  21.720
58286W        W62354  11.144  12.199  19.053
58287W        W62355  11.835  12.188  18.778
58288W        W62356  13.598  12.515  21.595
58289W        W62357  11.941  12.796  20.304
58290W        W62358  13.415  11.082  19.424
58291W        W62359  12.546  14.513  19.927
58292W        W62360  13.760  13.975  20.864
58293W        W62361  13.344  14.124  19.975
58294W        W62362  13.363  13.104  19.569
58295W        W62363  12.825  11.329  18.640
58296W        W62364  14.506  10.957  19.362
58297W        W62365  12.194  12.592  18.525
58298W        W62366  14.360  11.929  19.515
58299W        W62367  13.988  13.299  21.140
58300W        W62368  13.642  14.000  18.607
58301W        W62369  12.257  11.675  21.513
58302W        W62370  12.077  12.259  20.754
58303W        W62371  14.169  13.754  21.031
58304W        W62372  13.269  11.704  21.408
58305W        W62373  11.113  12.175  21.185
58306W        W62374  12.873  12.652  20.911
58307W        W62375  11.230  13.410  19.568
58308W        W62376  11.377  12.707  20.458
58309W        W62377  13.694  12.993  20.808
58310W        W62378  13.466  14.373  21.619
58311W        W62379  13.362  12.112  21.172
58312W        W62380  12.641  13.886  20.900
58313W        W62381  12.126  14.241  20.169
58314W        W62382  13.931  13.412  20.588
58315W        W62383  12.981  13.484  21.725
58316W        W62384  11.586  13.437  20.064
58317W        W62385  13.932  13.196  19.709
58318W        W62386  13.573  14.262  20.460
58319W        W62387  11.551  13.991  20.330
58320W        W62388  12.572  12.043  21.540
58321W        W62389  13.023  14.209  19.051
58322W        W62390  12.331  13.464  21.689
58323W        W62391  11.678  12.442  18.325
58324W        W62392  14.098  13.151  22.518
58325W        W62393  12.146  14.227  22.071
58326W        W62394  12.229  12.379  23.054
58327W        W62395  11.744  12.227  23.218
58328W        W62396  12.735  13.042  22.652
58329W        W62397  13.164  12.234  22.229
58330W        W62398  12.721  13.469  22.198
58331W        W62399  11.417  11.308  23.033
58332W        W62400  14.105  11.702  21.984
58333W        W62401  14.311  13.676  22.481
58334W        W62402  11.440  14.462  22.235
58335W        W62403  11.833  14.508  22.911
58336W        W62404  13.658  12.702  23.071
58337W        W62405  13.624  12.390  22.098
58338W        W62406  14.109  12.742  22.853
58339W        W62407  13.011  11.400  22.869
58340W        W62408  11.668  14.094  22.552
58341W        W62409  12.624  14.167  22.410
58342W        W62410  14.016  12.193  21.874
58343W        W62411  12.203  12.883  23.137
58344W        W62412  11.673  12.922  21.995
58345W        W62413  11.328  11.955  22.174
58346W        W62414  11.390  13.911  22.968
58347W        W62415  12.521  13.394  23.216
58348W        W62416  12.779  11.895  22.614
58349W        W62417  10.945  12.645  22.808
58350W        W62418  13.260  12.324  22.759
58351W        W62419  13.137  12.814  22.863
58352W        W62420  13.126  11.708  22.320
58353W        W62421  13.525  11.588  23.101
58354W        W62422  12.316  12.015  22.477
58355W        W62423  13.937  11.783  22.822
58356W        W62424  14.304  12.265  22.767
58357W        W62425  11.973  11.018  22.473
58358W        W62426  14.444  13.801  21.953
58359W        W62427  13.268  11.591  21.885
58360W        W62428  12.979  13.668  22.612
58361W        W62429  13.078  14.235  23.204
58362W        W62430  14.252  13.238  22.048
58363W        W62431  12.687  12.721  23.109
58364W        W62432  13.757  12.251  22.727
58365W        W62433  14.044  11.984  22.369
58366W        W62434  13.853  14.024  22.758
58367W        W62435  13.583  12.706  22.532
58368W        W62436  14.236  11.358  22.999
58369W        W62437  12.422  14.234  22.964
58370W        W62438  11.537  11.414  22.222
58371W        W62439  11.669  14.188  21.880
58372W        W62440  12.043  12.654  22.631
58373W        W62441  12.527  11.641  22.934
58374W        W62442  11.875  11.431  22.886
58375W        W62443  11.880  11.659  21.911
58376W        W62444  12.653  12.795  22.218
58377W        W62445  11.921  11.110  21.988
58378W        W62446  12.659  12.191  23.039
58379W        W62447  11.570  11.703  23.253
58380W        W62448  11.356  14.415  22.929
58381W        W62449  11.723  13.230  22.413
58382W        W62450  13.358  13.462  22.099
58383W        W62451  14.509  11.761  22.695
58384W        W62452  10.987  14.422  22.490
58385W        W62453  12.249  13.715  22.145
58386W        W62454  14.154  14.097  22.331
58387W        W62455  13.129  12.750  22.345
58388W        W62456  11.972  11.941  22.862
58389W        W62457  12.804  11.851  21.914
58390W        W62458  13.741  11.322  22.709
58391W        W62459  11.071  11.170  22.157
58392W        W62460  11.898  13.357  21.937
58393W        W62461  11.139  13.598  22.705
58394W        W62462  12.251  11.138  22.970
58395W        W62463  13.310  11.215  22.475
58396W        W62464  11.414  11.716  22.642
58397W        W62465  14.381  12.607  21.943
58398W        W62466  10.935  11.627  22.180
58399W        W62467  12.946  14.493  22.216
58400W        W62468  11.092  13.000  21.913
58401W        W62469  14.493  12.852  22.403
58402W        W62470  13.356  13.184  22.502
58403W        W62471  13.830  14.484  22.197
58404W        W62472  12.424  11.050  22.156
58405W        W62473  13.963  13.649  22.099
58406W        W62474  13.503  14.386  22.613
58407W        W62475  11.964  13.669  22.598
58408W        W62476  13.719  13.167  22.862
58409W        W62477  12.816  13.855  23.050
58410W        W62478  14.566  12.415  23.231
58411W        W62479  13.090  13.899  22.165
58412W        W62480  12.232  13.144  22.247
58413W        W62481  13.944  14.526  22.966
58414W        W62482  11.200  12.532  22.131
58415W        W62483  14.334  14.190  22.828
58416W        W62484  14.171  11.514  22.447
58417W        W62485  14.045  12.391  23.213
58418W        W62486  11.576  13.719  22.108
58419W        W62487  14.093  13.477  22.918
58420W        W62488  14.470  12.199  22.285
58421W        W62489  12.215  13.256  22.756
58422W        W62490  12.138  12.147  21.995
58423W        W62491  12.349  11.640  22.088
58424W        W62492  11.484  12.456  22.869
58425W        W62493  14.050  12.534  22.414
58426W        W62494  13.581  13.659  23.063
58427W        W62495  14.145  11.047  22.536
58428W        W62496  13.665  13.522  22.547
58429W        W62497  12.567  12.580  22.632
58430W        W62498  13.754  11.384  22.155
58431W        W62499  11.822  13.523  23.197
58432W        W62500  13.585  12.143  23.162
58433W        W62501  11.027  14.250  23.306
58434W        W62502  11.536  13.437  22.842
58435W        W62503  14.325  12.875  23.287
58436W        W62504  13.679  13.052  22.167
58437W        W62505  12.646  11.005  22.696
58438W        W62506  12.298  11.423  22.528
58439W        W62507  13.096  11.888  23.091
58440W        W62508  11.897  11.683  22.385
58441W        W62509  13.414  11.825  22.710
58442W        W62510  14.457  14.340  22.012
58443W        W62511  11.111  13.333  22.304
58444W        W62512  12.630  12.284  22.174
58445W        W62513  11.276  12.833  23.193
58446W        W62514  14.238  11.184  22.084
58447W        W62515  14.549  13.157  22.820
58448W        W62516  12.846  11.036  23.223
58449W        W62517  11.905  14.020  23.060
58450W        W62518  11.167  13.952  22.302
58451W        W62519  12.983  13.316  23.020
58452W        W62520  11.335  12.934  22.595
58453W        W62521  11.020  11.296  22.671
58454W        W62522  13.561  11.888  22.170
58455W        W62523  12.151  14.148  22.560
58456W        W62524  13.433  11.051  21.990
58457W        W62525  11.144  12.199  22.698
58458W        W62526  11.835  12.188  22.423
58459W        W62527  13.363  13.104  23.214
58460W        W62528  12.825  11.329  22.285
58461W        W62529  14.506  10.957  23.007
58462W        W62530  12.194  12.592  22.170
58463W        W62531  14.360  11.929  23.160
58464W        W62532  13.052  13.099  22.037
58465W        W62533  13.642  14.000  22.252
58466W        W62534  11.230  13.410  23.213
58467W        W62535  13.639  14.166  23.222
58468W        W62536  13.023  14.209  22.696
58469W        W62537  12.457  13.702  22.711
58470W        W62538  11.678  12.442  21.970
58471W        W62539  11.017  18.172   3.359
58472W        W62540  11.393  17.065   2.882
58473W        W62541  14.098  16.795   0.652
58474W        W62542  14.228  17.880   2.679
58475W        W62543  12.146  17.871   0.205
58476W        W62544  12.229  16.023   1.188
58477W        W62545  11.744  15.871   1.352
58478W        W62546  12.735  16.686   0.786
58479W        W62547  12.410  17.778   3.141
58480W        W62548  11.059  15.339   3.104
58481W        W62549  11.821  14.619   2.906
58482W        W62550  13.515  15.007   1.793
58483W        W62551  13.164  15.878   0.363
58484W        W62552  13.734  15.312   3.454
58485W        W62553  11.100  15.104   2.579
58486W        W62554  11.199  17.723   3.600
58487W        W62555  12.721  17.113   0.332
58488W        W62556  11.153  15.896   2.025
58489W        W62557  12.046  15.787   3.262
58490W        W62558  14.505  15.646   1.761
58491W        W62559  14.269  16.689   2.620
58492W        W62560  12.577  16.022   1.647
58493W        W62561  13.123  17.361   2.016
58494W        W62562  11.623  16.795   2.248
58495W        W62563  10.982  16.323   1.819
58496W        W62564  12.018  16.295   3.011
58497W        W62565  14.289  16.078   3.265
58498W        W62566  11.905  17.522   1.710
58499W        W62567  13.026  17.211   2.844
58500W        W62568  12.246  15.851   2.069
58501W        W62569  12.538  16.635   1.712
58502W        W62570  13.535  17.408   3.560
58503W        W62571  12.614  16.728   3.570
58504W        W62572  12.595  16.444   3.048
58505W        W62573  11.004  15.835   3.570
58506W        W62574  13.836  17.370   3.169
58507W        W62575  11.417  14.952   1.167
58508W        W62576  11.944  17.210   2.166
58509W        W62577  14.407  16.993   1.456
58510W        W62578  13.820  15.393   2.023
58511W        W62579  14.105  15.346   0.118
58512W        W62580  14.570  16.147   2.424
58513W        W62581  12.537  17.854   2.177
58514W        W62582  14.311  17.320   0.615
58515W        W62583  11.440  18.106   0.369
58516W        W62584  11.833  18.152   1.045
58517W        W62585  11.630  14.906   2.471
58518W        W62586  14.253  15.924   2.746
58519W        W62587  13.658  16.346   1.205
58520W        W62588  13.624  16.034   0.232
58521W        W62589  12.832  17.178   2.372
58522W        W62590  12.638  15.508   1.571
58523W        W62591  13.238  17.595   2.565
58524W        W62592  14.109  16.386   0.987
58525W        W62593  13.011  15.044   1.003
58526W        W62594  11.668  17.738   0.686
58527W        W62595  11.039  15.237   1.285
58528W        W62596  13.825  15.844   1.759
58529W        W62597  11.283  17.461   1.674
58530W        W62598  12.624  17.811   0.544
58531W        W62599  14.016  15.837   0.008
58532W        W62600  11.039  17.595   2.172
58533W        W62601  11.830  17.167   2.652
58534W        W62602  12.203  16.527   1.271
58535W        W62603  12.225  14.932   2.364
58536W        W62604  14.454  14.694   1.661
58537W        W62605  11.673  16.566   0.129
58538W        W62606  11.328  15.599   0.308
58539W        W62607  11.390  17.555   1.102
58540W        W62608  12.521  17.038   1.350
58541W        W62609  13.853  17.897   3.064
58542W        W62610  12.779  15.539   0.748
58543W        W62611  14.162  17.937   1.520
58544W        W62612  13.839  15.790   3.118
58545W        W62613  14.552  17.446   1.252
58546W        W62614  13.179  16.738   2.736
58547W        W62615  10.945  16.289   0.942
58548W        W62616  12.056  16.704   2.515
58549W        W62617  13.260  15.968   0.893
58550W        W62618  13.137  16.458   0.997
58551W        W62619  11.480  15.878   2.471
58552W        W62620  11.465  15.754   3.393
58553W        W62621  11.355  14.671   1.552
58554W        W62622  13.123  15.018   2.113
58555W        W62623  12.771  15.203   3.276
58556W        W62624  13.126  15.352   0.454
58557W        W62625  14.309  17.745   3.208
58558W        W62626  13.276  14.826   3.247
58559W        W62627  14.295  17.127   3.369
58560W        W62628  13.725  15.294   2.965
58561W        W62629  13.525  15.232   1.235
58562W        W62630  13.918  16.366   3.639
58563W        W62631  11.658  17.942   1.625
58564W        W62632  12.316  15.659   0.611
58565W        W62633  11.885  14.943   3.275
58566W        W62634  13.937  15.427   0.956
58567W        W62635  14.304  15.909   0.901
58568W        W62636  12.047  18.126   3.372
58569W        W62637  11.973  14.662   0.607
58570W        W62638  14.294  15.196   1.642
58571W        W62639  14.444  17.445   0.087
58572W        W62640  11.351  16.648   1.789
58573W        W62641  13.268  15.235   0.019
58574W        W62642  14.402  17.567   1.739
58575W        W62643  14.441  14.761   2.489
58576W        W62644  12.886  15.973   3.043
58577W        W62645  12.979  17.312   0.746
58578W        W62646  13.379  16.606   3.486
58579W        W62647  13.053  14.583   1.795
58580W        W62648  11.665  15.486   1.858
58581W        W62649  11.219  16.686   2.632
58582W        W62650  13.078  17.879   1.338
58583W        W62651  14.272  15.476   2.210
58584W        W62652  12.909  17.823   2.977
58585W        W62653  14.252  16.882   0.182
58586W        W62654  12.687  16.365   1.243
58587W        W62655  14.539  14.876   2.984
58588W        W62656  12.688  16.711   2.578
58589W        W62657  12.905  15.597   2.023
58590W        W62658  13.757  15.895   0.861
58591W        W62659  14.044  15.628   0.503
58592W        W62660  13.853  17.668   0.892
58593W        W62661  13.687  17.271   1.688
58594W        W62662  13.583  16.350   0.666
58595W        W62663  13.016  16.560   1.652
58596W        W62664  13.897  16.348   1.719
58597W        W62665  11.272  15.363   2.143
58598W        W62666  14.050  16.415   2.970
58599W        W62667  14.401  18.033   2.116
58600W        W62668  12.331  17.477   1.518
58601W        W62669  13.338  18.010   2.842
58602W        W62670  13.332  15.340   2.606
58603W        W62671  12.539  18.048   2.667
58604W        W62672  14.236  15.002   1.133
58605W        W62673  14.027  16.321   2.434
58606W        W62674  11.010  15.642   2.472
58607W        W62675  13.870  15.437   1.490
58608W        W62676  14.281  15.588   3.267
58609W        W62677  13.166  17.287   1.485
58610W        W62678  12.422  17.878   1.098
58611W        W62679  11.537  15.058   0.356
58612W        W62680  12.641  14.712   2.166
58613W        W62681  11.669  17.832   0.014
58614W        W62682  12.043  16.298   0.765
58615W        W62683  12.697  16.927   3.078
58616W        W62684  12.527  15.285   1.068
58617W        W62685  13.883  14.882   1.496
58618W        W62686  13.603  18.164   1.824
58619W        W62687  13.015  17.812   2.164
58620W        W62688  12.411  16.849   2.125
58621W        W62689  14.181  17.572   2.251
58622W        W62690  11.875  15.075   1.020
58623W        W62691  12.397  17.372   1.980
58624W        W62692  11.880  15.303   0.045
58625W        W62693  12.681  15.912   2.439
58626W        W62694  13.529  14.778   2.309
58627W        W62695  10.949  16.621   2.194
58628W        W62696  12.653  16.439   0.352
58629W        W62697  11.921  14.754   0.122
58630W        W62698  12.659  15.835   1.173
58631W        W62699  13.629  14.811   2.872
58632W        W62700  12.217  16.823   2.981
58633W        W62701  13.021  16.605   3.198
58634W        W62702  13.638  16.635   3.091
58635W        W62703  12.922  14.775   3.596
58636W        W62704  12.144  15.391   1.989
58637W        W62705  11.570  15.347   1.387
58638W        W62706  11.356  18.059   1.063
58639W        W62707  12.688  17.389   3.188
58640W        W62708  11.723  16.874   0.547
58641W        W62709  13.403  16.259   1.768
58642W        W62710  13.683  16.058   2.167
58643W        W62711  12.888  16.732   2.101
58644W        W62712  13.358  17.106   0.233
58645W        W62713  13.030  15.127   1.561
58646W        W62714  14.509  15.405   0.829
58647W        W62715  11.003  17.994   2.860
58648W        W62716  11.420  17.220   2.392
58649W        W62717  10.987  18.066   0.624
58650W        W62718  12.886  15.336   2.430
58651W        W62719  12.249  17.359   0.279
58652W        W62720  14.154  17.741   0.465
58653W        W62721  13.129  16.394   0.479
58654W        W62722  11.972  15.585   0.996
58655W        W62723  12.804  15.495   0.048
58656W        W62724  13.388  17.060   3.226
58657W        W62725  13.741  14.966   0.843
58658W        W62726  11.071  14.814   0.291
58659W        W62727  12.357  17.133   2.581
58660W        W62728  12.156  17.049   1.673
58661W        W62729  11.898  17.001   0.071
58662W        W62730  11.139  17.242   0.839
58663W        W62731  11.643  16.312   3.281
58664W        W62732  12.347  14.872   3.467
58665W        W62733  13.056  15.014   2.823
58666W        W62734  12.251  14.782   1.104
58667W        W62735  13.310  14.859   0.609
58668W        W62736  11.255  14.791   2.186
58669W        W62737  11.303  15.754   1.556
58670W        W62738  13.992  14.862   1.962
58671W        W62739  11.414  15.360   0.776
58672W        W62740  13.985  15.048   2.392
58673W        W62741  14.381  16.251   0.077
58674W        W62742  11.673  15.009   1.896
58675W        W62743  12.787  15.581   2.836
58676W        W62744  10.935  15.271   0.314
58677W        W62745  11.721  16.660   2.875
58678W        W62746  13.079  16.058   2.054
58679W        W62747  12.946  18.137   0.350
58680W        W62748  11.092  16.644   0.047
58681W        W62749  11.827  17.055   3.173
58682W        W62750  11.348  16.222   2.804
58683W        W62751  12.339  16.327   2.598
58684W        W62752  14.107  14.686   2.860
58685W        W62753  14.505  16.296   2.851
58686W        W62754  14.493  16.496   0.537
58687W        W62755  13.356  16.828   0.636
58688W        W62756  13.830  18.128   0.331
58689W        W62757  13.007  16.118   3.473
58690W        W62758  11.337  17.085   3.513
58691W        W62759  14.543  15.007   3.465
58692W        W62760  14.261  15.935   2.086
58693W        W62761  12.569  18.065   3.563
58694W        W62762  12.424  14.694   0.290
58695W        W62763  13.963  17.293   0.233
58696W        W62764  11.732  15.386   3.119
58697W        W62765  12.166  17.380   2.981
58698W        W62766  14.292  15.371   2.779
58699W        W62767  13.503  18.030   0.747
58700W        W62768  13.742  16.649   2.114
58701W        W62769  11.992  15.065   2.781
58702W        W62770  12.461  16.134   3.538
58703W        W62771  11.964  17.313   0.732
58704W        W62772  13.719  16.811   0.996
58705W        W62773  11.487  15.437   2.720
58706W        W62774  12.816  17.499   1.184
58707W        W62775  14.566  16.059   1.365
58708W        W62776  12.788  14.692   3.084
58709W        W62777  13.568  17.397   2.163
58710W        W62778  13.871  17.741   1.871
58711W        W62779  13.090  17.543   0.299
58712W        W62780  11.100  17.435   3.141
58713W        W62781  11.843  15.427   2.379
58714W        W62782  11.813  14.775   1.489
58715W        W62783  13.434  15.617   2.181
58716W        W62784  12.232  16.788   0.381
58717W        W62785  14.230  16.730   1.880
58718W        W62786  11.557  17.488   3.303
58719W        W62787  13.944  18.170   1.100
58720W        W62788  12.043  15.190   1.545
58721W        W62789  11.812  16.683   1.635
58722W        W62790  12.125  18.094   2.385
58723W        W62791  14.192  18.190   3.417
58724W        W62792  13.351  16.378   2.350
58725W        W62793  11.200  16.176   0.265
58726W        W62794  14.334  17.834   0.962
58727W        W62795  14.171  15.158   0.581
58728W        W62796  12.310  14.677   2.984
58729W        W62797  14.016  17.479   1.442
58730W        W62798  14.045  16.035   1.347
58731W        W62799  12.162  15.708   1.563
58732W        W62800  12.407  15.970   2.887
58733W        W62801  13.518  17.123   2.750
58734W        W62802  12.168  15.577   2.862
58735W        W62803  12.147  18.043   1.478
58736W        W62804  11.464  18.002   3.112
58737W        W62805  11.576  17.363   0.242
58738W        W62806  14.093  17.121   1.052
58739W        W62807  11.697  15.913   2.938
58740W        W62808  14.470  15.843   0.419
58741W        W62809  12.215  16.900   0.890
58742W        W62810  13.314  16.282   2.971
58743W        W62811  13.205  15.910   2.515
58744W        W62812  11.765  16.282   2.544
58745W        W62813  13.975  18.170   2.373
58746W        W62814  13.766  14.804   3.367
58747W        W62815  11.430  14.954   2.954
58748W        W62816  11.769  15.977   2.007
58749W        W62817  12.138  15.791   0.129
58750W        W62818  10.941  17.550   2.674
58751W        W62819  12.526  16.259   2.117
58752W        W62820  12.349  15.284   0.222
58753W        W62821  11.484  16.100   1.003
58754W        W62822  11.255  17.952   2.440
58755W        W62823  14.050  16.178   0.548
58756W        W62824  14.145  15.094   3.234
58757W        W62825  13.581  17.303   1.197
58758W        W62826  11.179  16.227   3.374
58759W        W62827  14.145  14.691   0.670
58760W        W62828  13.665  17.166   0.681
58761W        W62829  12.567  16.224   0.766
58762W        W62830  13.754  15.028   0.289
58763W        W62831  13.819  15.635   2.475
58764W        W62832  11.528  16.228   1.682
58765W        W62833  11.822  17.167   1.331
58766W        W62834  13.585  15.787   1.296
58767W        W62835  12.608  15.166   1.992
58768W        W62836  14.570  17.077   2.503
58769W        W62837  14.488  15.064   2.064
58770W        W62838  11.027  17.894   1.440
58771W        W62839  11.536  17.081   0.976
58772W        W62840  11.451  14.698   3.529
58773W        W62841  12.570  17.551   3.631
58774W        W62842  14.325  16.519   1.421
58775W        W62843  13.679  16.696   0.301
58776W        W62844  12.974  18.217   2.513
58777W        W62845  13.831  16.939   3.550
58778W        W62846  12.646  14.649   0.830
58779W        W62847  13.359  15.518   1.689
58780W        W62848  11.045  17.105   2.021
58781W        W62849  12.298  15.067   0.662
58782W        W62850  12.102  16.551   3.511
58783W        W62851  13.096  15.532   1.225
58784W        W62852  13.301  16.942   2.347
58785W        W62853  11.455  17.547   2.782
58786W        W62854  12.046  17.530   3.505
58787W        W62855  11.897  15.327   0.519
58788W        W62856  13.414  15.469   0.844
58789W        W62857  13.372  17.577   3.081
58790W        W62858  12.057  16.169   1.680
58791W        W62859  11.712  17.867   2.545
58792W        W62860  14.457  17.984   0.146
58793W        W62861  11.320  16.656   3.142
58794W        W62862  13.315  16.918   1.830
58795W        W62863  11.751  16.567   1.072
58796W        W62864  12.122  17.574   2.467
58797W        W62865  12.500  14.993   1.508
58798W        W62866  11.111  16.977   0.438
58799W        W62867  12.630  15.928   0.308
58800W        W62868  11.276  16.477   1.327
58801W        W62869  12.566  15.119   2.791
58802W        W62870  14.238  14.828   0.218
58803W        W62871  14.331  16.574   3.317
58804W        W62872  12.985  17.831   3.469
58805W        W62873  14.543  16.925   2.991
58806W        W62874  13.951  17.723   3.602
58807W        W62875  11.690  18.179   2.080
58808W        W62876  14.549  16.801   0.954
58809W        W62877  13.079  16.068   1.467
58810W        W62878  12.846  14.680   1.357
58811W        W62879  11.905  17.664   1.194
58812W        W62880  12.404  15.405   2.419
58813W        W62881  12.104  14.774   1.888
58814W        W62882  11.167  17.596   0.436
58815W        W62883  12.983  16.960   1.154
58816W        W62884  11.858  17.755   3.033
58817W        W62885  11.335  16.578   0.729
58818W        W62886  11.220  15.121   1.728
58819W        W62887  12.768  17.086   1.785
58820W        W62888  11.020  14.940   0.805
58821W        W62889  13.684  16.146   2.732
58822W        W62890  13.561  15.532   0.304
58823W        W62891  14.078  17.204   1.952
58824W        W62892  12.739  17.688   1.783
58825W        W62893  12.151  17.792   0.694
58826W        W62894  13.433  14.695   0.124
58827W        W62895  11.233  17.955   1.865
58828W        W62896  13.430  15.713   3.500
58829W        W62897  11.413  15.243   3.499
58830W        W62898  11.144  15.843   0.832
58831W        W62899  11.835  15.832   0.557
58832W        W62900  13.598  16.159   3.374
58833W        W62901  11.941  16.440   2.083
58834W        W62902  13.415  14.726   1.203
58835W        W62903  12.546  18.157   1.706
58836W        W62904  13.760  17.619   2.643
58837W        W62905  13.344  17.768   1.754
58838W        W62906  13.363  16.748   1.348
58839W        W62907  12.825  14.973   0.419
58840W        W62908  14.506  14.601   1.141
58841W        W62909  12.194  16.236   0.304
58842W        W62910  14.360  15.573   1.294
58843W        W62911  13.052  16.743   0.171
58844W        W62912  13.988  16.943   2.919
58845W        W62913  13.642  17.644   0.386
58846W        W62914  12.257  15.319   3.292
58847W        W62915  12.077  15.903   2.533
58848W        W62916  14.169  17.398   2.810
58849W        W62917  13.269  15.348   3.187
58850W        W62918  11.113  15.819   2.964
58851W        W62919  12.873  16.296   2.690
58852W        W62920  11.230  17.054   1.347
58853W        W62921  11.377  16.351   2.237
58854W        W62922  13.694  16.637   2.587
58855W        W62923  13.466  18.017   3.398
58856W        W62924  13.362  15.756   2.951
58857W        W62925  13.639  17.810   1.356
58858W        W62926  12.641  17.530   2.679
58859W        W62927  12.126  17.885   1.948
58860W        W62928  13.931  17.056   2.367
58861W        W62929  12.981  17.128   3.504
58862W        W62930  11.586  17.081   1.843
58863W        W62931  13.932  16.840   1.488
58864W        W62932  13.573  17.906   2.239
58865W        W62933  11.551  17.635   2.109
58866W        W62934  12.572  15.687   3.319
58867W        W62935  13.023  17.853   0.830
58868W        W62936  12.331  17.108   3.468
58869W        W62937  12.457  17.346   0.845
58870W        W62938  11.678  16.086   0.104
58871W        W62939  11.017  18.172   7.003
58872W        W62940  11.393  17.065   6.526
58873W        W62941  14.098  16.795   4.296
58874W        W62942  14.228  17.880   6.323
58875W        W62943  12.146  17.871   3.849
58876W        W62944  12.229  16.023   4.832
58877W        W62945  11.744  15.871   4.996
58878W        W62946  12.735  16.686   4.430
58879W        W62947  12.410  17.778   6.785
58880W        W62948  11.059  15.339   6.748
58881W        W62949  11.821  14.619   6.550
58882W        W62950  13.515  15.007   5.437
58883W        W62951  13.164  15.878   4.007
58884W        W62952  13.734  15.312   7.098
58885W        W62953  11.100  15.104   6.223
58886W        W62954  11.199  17.723   7.244
58887W        W62955  12.721  17.113   3.976
58888W        W62956  11.153  15.896   5.669
58889W        W62957  12.046  15.787   6.906
58890W        W62958  14.505  15.646   5.405
58891W        W62959  14.269  16.689   6.264
58892W        W62960  12.577  16.022   5.291
58893W        W62961  13.123  17.361   5.660
58894W        W62962  11.623  16.795   5.892
58895W        W62963  10.982  16.323   5.463
58896W        W62964  12.018  16.295   6.655
58897W        W62965  14.289  16.078   6.909
58898W        W62966  11.905  17.522   5.354
58899W        W62967  13.026  17.211   6.488
58900W        W62968  12.246  15.851   5.713
58901W        W62969  12.538  16.635   5.356
58902W        W62970  13.535  17.408   7.204
58903W        W62971  12.614  16.728   7.214
58904W        W62972  12.595  16.444   6.692
58905W        W62973  11.004  15.835   7.214
58906W        W62974  13.836  17.370   6.813
58907W        W62975  11.417  14.952   4.811
58908W        W62976  11.944  17.210   5.810
58909W        W62977  14.407  16.993   5.100
58910W        W62978  13.820  15.393   5.667
58911W        W62979  14.105  15.346   3.762
58912W        W62980  14.570  16.147   6.068
58913W        W62981  12.537  17.854   5.821
58914W        W62982  14.311  17.320   4.259
58915W        W62983  11.440  18.106   4.013
58916W        W62984  11.833  18.152   4.689
58917W        W62985  11.630  14.906   6.115
58918W        W62986  14.253  15.924   6.390
58919W        W62987  13.658  16.346   4.849
58920W        W62988  13.624  16.034   3.876
58921W        W62989  12.832  17.178   6.016
58922W        W62990  12.638  15.508   5.215
58923W        W62991  13.238  17.595   6.209
58924W        W62992  14.109  16.386   4.631
58925W        W62993  13.011  15.044   4.647
58926W        W62994  11.668  17.738   4.330
58927W        W62995  11.039  15.237   4.929
58928W        W62996  13.825  15.844   5.403
58929W        W62997  11.283  17.461   5.318
58930W        W62998  12.624  17.811   4.188
58931W        W62999  14.016  15.837   3.652
58932W        W63000  11.039  17.595   5.816
58933W        W63001  11.830  17.167   6.296
58934W        W63002  12.203  16.527   4.915
58935W        W63003  12.225  14.932   6.008
58936W        W63004  14.454  14.694   5.305
58937W        W63005  11.673  16.566   3.773
58938W        W63006  11.328  15.599   3.952
58939W        W63007  11.390  17.555   4.746
58940W        W63008  12.521  17.038   4.994
58941W        W63009  13.853  17.897   6.708
58942W        W63010  12.779  15.539   4.392
58943W        W63011  14.162  17.937   5.164
58944W        W63012  13.839  15.790   6.762
58945W        W63013  14.552  17.446   4.896
58946W        W63014  13.179  16.738   6.380
58947W        W63015  10.945  16.289   4.586
58948W        W63016  12.056  16.704   6.159
58949W        W63017  13.260  15.968   4.537
58950W        W63018  13.137  16.458   4.641
58951W        W63019  11.480  15.878   6.115
58952W        W63020  11.465  15.754   7.037
58953W        W63021  11.355  14.671   5.196
58954W        W63022  13.123  15.018   5.757
58955W        W63023  12.771  15.203   6.920
58956W        W63024  13.126  15.352   4.098
58957W        W63025  14.309  17.745   6.852
58958W        W63026  13.276  14.826   6.891
58959W        W63027  14.295  17.127   7.013
58960W        W63028  13.725  15.294   6.609
58961W        W63029  13.525  15.232   4.879
58962W        W63030  13.918  16.366   7.283
58963W        W63031  11.658  17.942   5.269
58964W        W63032  12.316  15.659   4.255
58965W        W63033  11.885  14.943   6.919
58966W        W63034  13.937  15.427   4.600
58967W        W63035  14.304  15.909   4.545
58968W        W63036  12.047  18.126   7.016
58969W        W63037  11.973  14.662   4.251
58970W        W63038  14.294  15.196   5.286
58971W        W63039  14.444  17.445   3.731
58972W        W63040  11.351  16.648   5.433
58973W        W63041  13.268  15.235   3.663
58974W        W63042  14.402  17.567   5.383
58975W        W63043  14.441  14.761   6.133
58976W        W63044  12.886  15.973   6.687
58977W        W63045  12.979  17.312   4.390
58978W        W63046  13.379  16.606   7.130
58979W        W63047  13.053  14.583   5.439
58980W        W63048  11.665  15.486   5.502
58981W        W63049  11.219  16.686   6.276
58982W        W63050  13.078  17.879   4.982
58983W        W63051  14.272  15.476   5.854
58984W        W63052  12.909  17.823   6.621
58985W        W63053  14.252  16.882   3.826
58986W        W63054  12.687  16.365   4.887
58987W        W63055  14.539  14.876   6.628
58988W        W63056  12.688  16.711   6.222
58989W        W63057  12.905  15.597   5.667
58990W        W63058  13.757  15.895   4.505
58991W        W63059  14.044  15.628   4.147
58992W        W63060  13.853  17.668   4.536
58993W        W63061  13.687  17.271   5.332
58994W        W63062  13.583  16.350   4.310
58995W        W63063  13.016  16.560   5.296
58996W        W63064  13.897  16.348   5.363
58997W        W63065  11.272  15.363   5.787
58998W        W63066  14.050  16.415   6.614
58999W        W63067  14.401  18.033   5.760
59000W        W63068  12.331  17.477   5.162
59001W        W63069  13.338  18.010   6.486
59002W        W63070  13.332  15.340   6.250
59003W        W63071  12.539  18.048   6.311
59004W        W63072  14.236  15.002   4.777
59005W        W63073  14.027  16.321   6.078
59006W        W63074  11.010  15.642   6.116
59007W        W63075  13.870  15.437   5.134
59008W        W63076  14.281  15.588   6.911
59009W        W63077  13.166  17.287   5.129
59010W        W63078  12.422  17.878   4.742
59011W        W63079  11.537  15.058   4.000
59012W        W63080  12.641  14.712   5.810
59013W        W63081  11.669  17.832   3.658
59014W        W63082  12.043  16.298   4.409
59015W        W63083  12.697  16.927   6.722
59016W        W63084  12.527  15.285   4.712
59017W        W63085  13.883  14.882   5.140
59018W        W63086  13.603  18.164   5.468
59019W        W63087  13.015  17.812   5.808
59020W        W63088  12.411  16.849   5.769
59021W        W63089  14.181  17.572   5.895
59022W        W63090  11.875  15.075   4.664
59023W        W63091  12.397  17.372   5.624
59024W        W63092  11.880  15.303   3.689
59025W        W63093  12.681  15.912   6.083
59026W        W63094  13.529  14.778   5.953
59027W        W63095  10.949  16.621   5.838
59028W        W63096  12.653  16.439   3.996
59029W        W63097  11.921  14.754   3.766
59030W        W63098  12.659  15.835   4.817
59031W        W63099  13.629  14.811   6.516
59032W        W63100  12.217  16.823   6.625
59033W        W63101  13.021  16.605   6.842
59034W        W63102  13.638  16.635   6.735
59035W        W63103  12.922  14.775   7.240
59036W        W63104  12.144  15.391   5.633
59037W        W63105  11.570  15.347   5.031
59038W        W63106  11.356  18.059   4.707
59039W        W63107  12.688  17.389   6.832
59040W        W63108  11.723  16.874   4.191
59041W        W63109  13.403  16.259   5.412
59042W        W63110  13.683  16.058   5.811
59043W        W63111  12.888  16.732   5.745
59044W        W63112  13.358  17.106   3.877
59045W        W63113  13.030  15.127   5.205
59046W        W63114  14.509  15.405   4.473
59047W        W63115  11.003  17.994   6.504
59048W        W63116  11.420  17.220   6.036
59049W        W63117  10.987  18.066   4.268
59050W        W63118  12.886  15.336   6.074
59051W        W63119  12.249  17.359   3.923
59052W        W63120  14.154  17.741   4.109
59053W        W63121  13.129  16.394   4.123
59054W        W63122  11.972  15.585   4.640
59055W        W63123  12.804  15.495   3.692
59056W        W63124  13.388  17.060   6.870
59057W        W63125  13.741  14.966   4.487
59058W        W63126  11.071  14.814   3.935
59059W        W63127  12.357  17.133   6.225
59060W        W63128  12.156  17.049   5.317
59061W        W63129  11.898  17.001   3.715
59062W        W63130  11.139  17.242   4.483
59063W        W63131  11.643  16.312   6.925
59064W        W63132  12.347  14.872   7.111
59065W        W63133  13.056  15.014   6.467
59066W        W63134  12.251  14.782   4.748
59067W        W63135  13.310  14.859   4.253
59068W        W63136  11.255  14.791   5.830
59069W        W63137  11.303  15.754   5.200
59070W        W63138  13.992  14.862   5.606
59071W        W63139  11.414  15.360   4.420
59072W        W63140  13.985  15.048   6.036
59073W        W63141  14.381  16.251   3.721
59074W        W63142  11.673  15.009   5.540
59075W        W63143  12.787  15.581   6.480
59076W        W63144  10.935  15.271   3.958
59077W        W63145  11.721  16.660   6.519
59078W        W63146  13.079  16.058   5.698
59079W        W63147  12.946  18.137   3.994
59080W        W63148  11.092  16.644   3.691
59081W        W63149  11.827  17.055   6.817
59082W        W63150  11.348  16.222   6.448
59083W        W63151  12.339  16.327   6.242
59084W        W63152  14.107  14.686   6.504
59085W        W63153  14.505  16.296   6.495
59086W        W63154  14.493  16.496   4.181
59087W        W63155  13.356  16.828   4.280
59088W        W63156  13.830  18.128   3.975
59089W        W63157  13.007  16.118   7.117
59090W        W63158  11.337  17.085   7.157
59091W        W63159  14.543  15.007   7.109
59092W        W63160  14.261  15.935   5.730
59093W        W63161  12.569  18.065   7.207
59094W        W63162  12.424  14.694   3.934
59095W        W63163  13.963  17.293   3.877
59096W        W63164  11.732  15.386   6.763
59097W        W63165  12.166  17.380   6.625
59098W        W63166  14.292  15.371   6.423
59099W        W63167  13.503  18.030   4.391
59100W        W63168  13.742  16.649   5.758
59101W        W63169  11.992  15.065   6.425
59102W        W63170  12.461  16.134   7.182
59103W        W63171  11.964  17.313   4.376
59104W        W63172  13.719  16.811   4.640
59105W        W63173  11.487  15.437   6.364
59106W        W63174  12.816  17.499   4.828
59107W        W63175  14.566  16.059   5.009
59108W        W63176  12.788  14.692   6.728
59109W        W63177  13.568  17.397   5.807
59110W        W63178  13.871  17.741   5.515
59111W        W63179  13.090  17.543   3.943
59112W        W63180  11.100  17.435   6.785
59113W        W63181  11.843  15.427   6.023
59114W        W63182  11.813  14.775   5.133
59115W        W63183  13.434  15.617   5.825
59116W        W63184  12.232  16.788   4.025
59117W        W63185  14.230  16.730   5.524
59118W        W63186  11.557  17.488   6.947
59119W        W63187  13.944  18.170   4.744
59120W        W63188  12.043  15.190   5.189
59121W        W63189  11.812  16.683   5.279
59122W        W63190  12.125  18.094   6.029
59123W        W63191  14.192  18.190   7.061
59124W        W63192  13.351  16.378   5.994
59125W        W63193  11.200  16.176   3.909
59126W        W63194  14.334  17.834   4.606
59127W        W63195  14.171  15.158   4.225
59128W        W63196  12.310  14.677   6.628
59129W        W63197  14.016  17.479   5.086
59130W        W63198  14.045  16.035   4.991
59131W        W63199  12.162  15.708   5.207
59132W        W63200  12.407  15.970   6.531
59133W        W63201  13.518  17.123   6.394
59134W        W63202  12.168  15.577   6.506
59135W        W63203  12.147  18.043   5.122
59136W        W63204  11.464  18.002   6.756
59137W        W63205  11.576  17.363   3.886
59138W        W63206  14.093  17.121   4.696
59139W        W63207  11.697  15.913   6.582
59140W        W63208  14.470  15.843   4.063
59141W        W63209  12.215  16.900   4.534
59142W        W63210  13.314  16.282   6.615
59143W        W63211  13.205  15.910   6.159
59144W        W63212  11.765  16.282   6.188
59145W        W63213  13.975  18.170   6.017
59146W        W63214  13.766  14.804   7.011
59147W        W63215  11.430  14.954   6.598
59148W        W63216  11.769  15.977   5.651
59149W        W63217  12.138  15.791   3.773
59150W        W63218  10.941  17.550   6.318
59151W        W63219  12.526  16.259   5.761
59152W        W63220  12.349  15.284   3.866
59153W        W63221  11.484  16.100   4.647
59154W        W63222  11.255  17.952   6.084
59155W        W63223  14.050  16.178   4.192
59156W        W63224  14.145  15.094   6.878
59157W        W63225  13.581  17.303   4.841
59158W        W63226  11.179  16.227   7.018
59159W        W63227  14.145  14.691   4.314
59160W        W63228  13.665  17.166   4.325
59161W        W63229  12.567  16.224   4.410
59162W        W63230  13.754  15.028   3.933
59163W        W63231  13.819  15.635   6.119
59164W        W63232  11.528  16.228   5.326
59165W        W63233  11.822  17.167   4.975
59166W        W63234  13.585  15.787   4.940
59167W        W63235  12.608  15.166   5.636
59168W        W63236  14.570  17.077   6.147
59169W        W63237  14.488  15.064   5.708
59170W        W63238  11.027  17.894   5.084
59171W        W63239  11.536  17.081   4.620
59172W        W63240  11.451  14.698   7.173
59173W        W63241  12.570  17.551   7.275
59174W        W63242  14.325  16.519   5.065
59175W        W63243  13.679  16.696   3.945
59176W        W63244  12.974  18.217   6.157
59177W        W63245  13.831  16.939   7.194
59178W        W63246  12.646  14.649   4.474
59179W        W63247  13.359  15.518   5.333
59180W        W63248  11.045  17.105   5.665
59181W        W63249  12.298  15.067   4.306
59182W        W63250  12.102  16.551   7.155
59183W        W63251  13.096  15.532   4.869
59184W        W63252  13.301  16.942   5.991
59185W        W63253  11.455  17.547   6.426
59186W        W63254  12.046  17.530   7.149
59187W        W63255  11.897  15.327   4.163
59188W        W63256  13.414  15.469   4.488
59189W        W63257  13.372  17.577   6.725
59190W        W63258  12.057  16.169   5.324
59191W        W63259  11.712  17.867   6.189
59192W        W63260  14.457  17.984   3.790
59193W        W63261  11.320  16.656   6.786
59194W        W63262  13.315  16.918   5.474
59195W        W63263  11.751  16.567   4.716
59196W        W63264  12.122  17.574   6.111
59197W        W63265  12.500  14.993   5.152
59198W        W63266  11.111  16.977   4.082
59199W        W63267  12.630  15.928   3.952
59200W        W63268  11.276  16.477   4.971
59201W        W63269  12.566  15.119   6.435
59202W        W63270  14.238  14.828   3.862
59203W        W63271  14.331  16.574   6.961
59204W        W63272  12.985  17.831   7.113
59205W        W63273  14.543  16.925   6.635
59206W        W63274  13.951  17.723   7.246
59207W        W63275  11.690  18.179   5.724
59208W        W63276  14.549  16.801   4.598
59209W        W63277  13.079  16.068   5.111
59210W        W63278  12.846  14.680   5.001
59211W        W63279  11.905  17.664   4.838
59212W        W63280  12.404  15.405   6.063
59213W        W63281  12.104  14.774   5.532
59214W        W63282  11.167  17.596   4.080
59215W        W63283  12.983  16.960   4.798
59216W        W63284  11.858  17.755   6.677
59217W        W63285  11.335  16.578   4.373
59218W        W63286  11.220  15.121   5.372
59219W        W63287  12.768  17.086   5.429
59220W        W63288  11.020  14.940   4.449
59221W        W63289  13.684  16.146   6.376
59222W        W63290  13.561  15.532   3.948
59223W        W63291  14.078  17.204   5.596
59224W        W63292  12.739  17.688   5.427
59225W        W63293  12.151  17.792   4.338
59226W        W63294  13.433  14.695   3.768
59227W        W63295  11.233  17.955   5.509
59228W        W63296  13.430  15.713   7.144
59229W        W63297  11.413  15.243   7.143
59230W        W63298  11.144  15.843   4.476
59231W        W63299  11.835  15.832   4.201
59232W        W63300  13.598  16.159   7.018
59233W        W63301  11.941  16.440   5.727
59234W        W63302  13.415  14.726   4.847
59235W        W63303  12.546  18.157   5.350
59236W        W63304  13.760  17.619   6.287
59237W        W63305  13.344  17.768   5.398
59238W        W63306  13.363  16.748   4.992
59239W        W63307  12.825  14.973   4.063
59240W        W63308  14.506  14.601   4.785
59241W        W63309  12.194  16.236   3.948
59242W        W63310  14.360  15.573   4.938
59243W        W63311  13.052  16.743   3.815
59244W        W63312  13.988  16.943   6.563
59245W        W63313  13.642  17.644   4.030
59246W        W63314  12.257  15.319   6.936
59247W        W63315  12.077  15.903   6.177
59248W        W63316  14.169  17.398   6.454
59249W        W63317  13.269  15.348   6.831
59250W        W63318  11.113  15.819   6.608
59251W        W63319  12.873  16.296   6.334
59252W        W63320  11.230  17.054   4.991
59253W        W63321  11.377  16.351   5.881
59254W        W63322  13.694  16.637   6.231
59255W        W63323  13.466  18.017   7.042
59256W        W63324  13.362  15.756   6.595
59257W        W63325  13.639  17.810   5.000
59258W        W63326  12.641  17.530   6.323
59259W        W63327  12.126  17.885   5.592
59260W        W63328  13.931  17.056   6.011
59261W        W63329  12.981  17.128   7.148
59262W        W63330  11.586  17.081   5.487
59263W        W63331  13.932  16.840   5.132
59264W        W63332  13.573  17.906   5.883
59265W        W63333  11.551  17.635   5.753
59266W        W63334  12.572  15.687   6.963
59267W        W63335  13.023  17.853   4.474
59268W        W63336  12.331  17.108   7.112
59269W        W63337  12.457  17.346   4.489
59270W        W63338  11.678  16.086   3.748
59271W        W63339  11.017  18.172  10.648
59272W        W63340  11.393  17.065  10.171
59273W        W63341  14.098  16.795   7.941
59274W        W63342  14.228  17.880   9.968
59275W        W63343  12.146  17.871   7.494
59276W        W63344  12.229  16.023   8.477
59277W        W63345  11.744  15.871   8.641
59278W        W63346  12.735  16.686   8.075
59279W        W63347  12.410  17.778  10.430
59280W        W63348  11.059  15.339  10.393
59281W        W63349  11.821  14.619  10.195
59282W        W63350  13.515  15.007   9.082
59283W        W63351  13.164  15.878   7.652
59284W        W63352  13.734  15.312  10.743
59285W        W63353  11.100  15.104   9.868
59286W        W63354  11.199  17.723  10.889
59287W        W63355  12.721  17.113   7.621
59288W        W63356  11.153  15.896   9.314
59289W        W63357  12.046  15.787  10.551
59290W        W63358  14.505  15.646   9.050
59291W        W63359  14.269  16.689   9.909
59292W        W63360  12.577  16.022   8.936
59293W        W63361  13.123  17.361   9.305
59294W        W63362  11.623  16.795   9.537
59295W        W63363  10.982  16.323   9.108
59296W        W63364  12.018  16.295  10.300
59297W        W63365  14.289  16.078  10.554
59298W        W63366  11.905  17.522   8.999
59299W        W63367  13.026  17.211  10.133
59300W        W63368  12.246  15.851   9.358
59301W        W63369  12.538  16.635   9.001
59302W        W63370  13.535  17.408  10.849
59303W        W63371  12.614  16.728  10.859
59304W        W63372  12.595  16.444  10.337
59305W        W63373  11.004  15.835  10.859
59306W        W63374  13.836  17.370  10.458
59307W        W63375  11.417  14.952   8.456
59308W        W63376  11.944  17.210   9.455
59309W        W63377  14.407  16.993   8.745
59310W        W63378  13.820  15.393   9.312
59311W        W63379  14.105  15.346   7.407
59312W        W63380  14.570  16.147   9.713
59313W        W63381  12.537  17.854   9.466
59314W        W63382  14.311  17.320   7.904
59315W        W63383  11.440  18.106   7.658
59316W        W63384  11.833  18.152   8.334
59317W        W63385  11.630  14.906   9.760
59318W        W63386  14.253  15.924  10.035
59319W        W63387  13.658  16.346   8.494
59320W        W63388  13.624  16.034   7.521
59321W        W63389  12.832  17.178   9.661
59322W        W63390  12.638  15.508   8.860
59323W        W63391  13.238  17.595   9.854
59324W        W63392  14.109  16.386   8.276
59325W        W63393  13.011  15.044   8.292
59326W        W63394  11.668  17.738   7.975
59327W        W63395  11.039  15.237   8.574
59328W        W63396  13.825  15.844   9.048
59329W        W63397  11.283  17.461   8.963
59330W        W63398  12.624  17.811   7.833
59331W        W63399  14.016  15.837   7.297
59332W        W63400  11.039  17.595   9.461
59333W        W63401  11.830  17.167   9.941
59334W        W63402  12.203  16.527   8.560
59335W        W63403  12.225  14.932   9.653
59336W        W63404  14.454  14.694   8.950
59337W        W63405  11.673  16.566   7.418
59338W        W63406  11.328  15.599   7.597
59339W        W63407  11.390  17.555   8.391
59340W        W63408  12.521  17.038   8.639
59341W        W63409  13.853  17.897  10.353
59342W        W63410  12.779  15.539   8.037
59343W        W63411  14.162  17.937   8.809
59344W        W63412  13.839  15.790  10.407
59345W        W63413  14.552  17.446   8.541
59346W        W63414  13.179  16.738  10.025
59347W        W63415  10.945  16.289   8.231
59348W        W63416  12.056  16.704   9.804
59349W        W63417  13.260  15.968   8.182
59350W        W63418  13.137  16.458   8.286
59351W        W63419  11.480  15.878   9.760
59352W        W63420  11.465  15.754  10.682
59353W        W63421  11.355  14.671   8.841
59354W        W63422  13.123  15.018   9.402
59355W        W63423  12.771  15.203  10.565
59356W        W63424  13.126  15.352   7.743
59357W        W63425  14.309  17.745  10.497
59358W        W63426  13.276  14.826  10.536
59359W        W63427  14.295  17.127  10.658
59360W        W63428  13.725  15.294  10.254
59361W        W63429  13.525  15.232   8.524
59362W        W63430  13.918  16.366  10.928
59363W        W63431  11.658  17.942   8.914
59364W        W63432  12.316  15.659   7.900
59365W        W63433  11.885  14.943  10.564
59366W        W63434  13.937  15.427   8.245
59367W        W63435  14.304  15.909   8.190
59368W        W63436  12.047  18.126  10.661
59369W        W63437  11.973  14.662   7.896
59370W        W63438  14.294  15.196   8.931
59371W        W63439  14.444  17.445   7.376
59372W        W63440  11.351  16.648   9.078
59373W        W63441  13.268  15.235   7.308
59374W        W63442  14.402  17.567   9.028
59375W        W63443  14.441  14.761   9.778
59376W        W63444  12.886  15.973  10.332
59377W        W63445  12.979  17.312   8.035
59378W        W63446  13.379  16.606  10.775
59379W        W63447  13.053  14.583   9.084
59380W        W63448  11.665  15.486   9.147
59381W        W63449  11.219  16.686   9.921
59382W        W63450  13.078  17.879   8.627
59383W        W63451  14.272  15.476   9.499
59384W        W63452  12.909  17.823  10.266
59385W        W63453  14.252  16.882   7.471
59386W        W63454  12.687  16.365   8.532
59387W        W63455  14.539  14.876  10.273
59388W        W63456  12.688  16.711   9.867
59389W        W63457  12.905  15.597   9.312
59390W        W63458  13.757  15.895   8.150
59391W        W63459  14.044  15.628   7.792
59392W        W63460  13.853  17.668   8.181
59393W        W63461  13.687  17.271   8.977
59394W        W63462  13.583  16.350   7.955
59395W        W63463  13.016  16.560   8.941
59396W        W63464  13.897  16.348   9.008
59397W        W63465  11.272  15.363   9.432
59398W        W63466  14.050  16.415  10.259
59399W        W63467  14.401  18.033   9.405
59400W        W63468  12.331  17.477   8.807
59401W        W63469  13.338  18.010  10.131
59402W        W63470  13.332  15.340   9.895
59403W        W63471  12.539  18.048   9.956
59404W        W63472  14.236  15.002   8.422
59405W        W63473  14.027  16.321   9.723
59406W        W63474  11.010  15.642   9.761
59407W        W63475  13.870  15.437   8.779
59408W        W63476  14.281  15.588  10.556
59409W        W63477  13.166  17.287   8.774
59410W        W63478  12.422  17.878   8.387
59411W        W63479  11.537  15.058   7.645
59412W        W63480  12.641  14.712   9.455
59413W        W63481  11.669  17.832   7.303
59414W        W63482  12.043  16.298   8.054
59415W        W63483  12.697  16.927  10.367
59416W        W63484  12.527  15.285   8.357
59417W        W63485  13.883  14.882   8.785
59418W        W63486  13.603  18.164   9.113
59419W        W63487  13.015  17.812   9.453
59420W        W63488  12.411  16.849   9.414
59421W        W63489  14.181  17.572   9.540
59422W        W63490  11.875  15.075   8.309
59423W        W63491  12.397  17.372   9.269
59424W        W63492  11.880  15.303   7.334
59425W        W63493  12.681  15.912   9.728
59426W        W63494  13.529  14.778   9.598
59427W        W63495  10.949  16.621   9.483
59428W        W63496  12.653  16.439   7.641
59429W        W63497  11.921  14.754   7.411
59430W        W63498  12.659  15.835   8.462
59431W        W63499  13.629  14.811  10.161
59432W        W63500  12.217  16.823  10.270
59433W        W63501  13.021  16.605  10.487
59434W        W63502  13.638  16.635  10.380
59435W        W63503  12.922  14.775  10.885
59436W        W63504  12.144  15.391   9.278
59437W        W63505  11.570  15.347   8.676
59438W        W63506  11.356  18.059   8.352
59439W        W63507  12.688  17.389  10.477
59440W        W63508  11.723  16.874   7.836
59441W        W63509  13.403  16.259   9.057
59442W        W63510  13.683  16.058   9.456
59443W        W63511  12.888  16.732   9.390
59444W        W63512  13.358  17.106   7.522
59445W        W63513  13.030  15.127   8.850
59446W        W63514  14.509  15.405   8.118
59447W        W63515  11.003  17.994  10.149
59448W        W63516  11.420  17.220   9.681
59449W        W63517  10.987  18.066   7.913
59450W        W63518  12.886  15.336   9.719
59451W        W63519  12.249  17.359   7.568
59452W        W63520  14.154  17.741   7.754
59453W        W63521  13.129  16.394   7.768
59454W        W63522  11.972  15.585   8.285
59455W        W63523  12.804  15.495   7.337
59456W        W63524  13.388  17.060  10.515
59457W        W63525  13.741  14.966   8.132
59458W        W63526  11.071  14.814   7.580
59459W        W63527  12.357  17.133   9.870
59460W        W63528  12.156  17.049   8.962
59461W        W63529  11.898  17.001   7.360
59462W        W63530  11.139  17.242   8.128
59463W        W63531  11.643  16.312  10.570
59464W        W63532  12.347  14.872  10.756
59465W        W63533  13.056  15.014  10.112
59466W        W63534  12.251  14.782   8.393
59467W        W63535  13.310  14.859   7.898
59468W        W63536  11.255  14.791   9.475
59469W        W63537  11.303  15.754   8.845
59470W        W63538  13.992  14.862   9.251
59471W        W63539  11.414  15.360   8.065
59472W        W63540  13.985  15.048   9.681
59473W        W63541  14.381  16.251   7.366
59474W        W63542  11.673  15.009   9.185
59475W        W63543  12.787  15.581  10.125
59476W        W63544  10.935  15.271   7.603
59477W        W63545  11.721  16.660  10.164
59478W        W63546  13.079  16.058   9.343
59479W        W63547  12.946  18.137   7.639
59480W        W63548  11.092  16.644   7.336
59481W        W63549  11.827  17.055  10.462
59482W        W63550  11.348  16.222  10.093
59483W        W63551  12.339  16.327   9.887
59484W        W63552  14.107  14.686  10.149
59485W        W63553  14.505  16.296  10.140
59486W        W63554  14.493  16.496   7.826
59487W        W63555  13.356  16.828   7.925
59488W        W63556  13.830  18.128   7.620
59489W        W63557  13.007  16.118  10.762
59490W        W63558  11.337  17.085  10.802
59491W        W63559  14.543  15.007  10.754
59492W        W63560  14.261  15.935   9.375
59493W        W63561  12.569  18.065  10.852
59494W        W63562  12.424  14.694   7.579
59495W        W63563  13.963  17.293   7.522
59496W        W63564  11.732  15.386  10.408
59497W        W63565  12.166  17.380  10.270
59498W        W63566  14.292  15.371  10.068
59499W        W63567  13.503  18.030   8.036
59500W        W63568  13.742  16.649   9.403
59501W        W63569  11.992  15.065  10.070
59502W        W63570  12.461  16.134  10.827
59503W        W63571  11.964  17.313   8.021
59504W        W63572  13.719  16.811   8.285
59505W        W63573  11.487  15.437  10.009
59506W        W63574  12.816  17.499   8.473
59507W        W63575  14.566  16.059   8.654
59508W        W63576  12.788  14.692  10.373
59509W        W63577  13.568  17.397   9.452
59510W        W63578  13.871  17.741   9.160
59511W        W63579  13.090  17.543   7.588
59512W        W63580  11.100  17.435  10.430
59513W        W63581  11.843  15.427   9.668
59514W        W63582  11.813  14.775   8.778
59515W        W63583  13.434  15.617   9.470
59516W        W63584  12.232  16.788   7.670
59517W        W63585  14.230  16.730   9.169
59518W        W63586  11.557  17.488  10.592
59519W        W63587  13.944  18.170   8.389
59520W        W63588  12.043  15.190   8.834
59521W        W63589  11.812  16.683   8.924
59522W        W63590  12.125  18.094   9.674
59523W        W63591  14.192  18.190  10.706
59524W        W63592  13.351  16.378   9.639
59525W        W63593  11.200  16.176   7.554
59526W        W63594  14.334  17.834   8.251
59527W        W63595  14.171  15.158   7.870
59528W        W63596  12.310  14.677  10.273
59529W        W63597  14.016  17.479   8.731
59530W        W63598  14.045  16.035   8.636
59531W        W63599  12.162  15.708   8.852
59532W        W63600  12.407  15.970  10.176
59533W        W63601  13.518  17.123  10.039
59534W        W63602  12.168  15.577  10.151
59535W        W63603  12.147  18.043   8.767
59536W        W63604  11.464  18.002  10.401
59537W        W63605  11.576  17.363   7.531
59538W        W63606  14.093  17.121   8.341
59539W        W63607  11.697  15.913  10.227
59540W        W63608  14.470  15.843   7.708
59541W        W63609  12.215  16.900   8.179
59542W        W63610  13.314  16.282  10.260
59543W        W63611  13.205  15.910   9.804
59544W        W63612  11.765  16.282   9.833
59545W        W63613  13.975  18.170   9.662
59546W        W63614  13.766  14.804  10.656
59547W        W63615  11.430  14.954  10.243
59548W        W63616  11.769  15.977   9.296
59549W        W63617  12.138  15.791   7.418
59550W        W63618  10.941  17.550   9.963
59551W        W63619  12.526  16.259   9.406
59552W        W63620  12.349  15.284   7.511
59553W        W63621  11.484  16.100   8.292
59554W        W63622  11.255  17.952   9.729
59555W        W63623  14.050  16.178   7.837
59556W        W63624  14.145  15.094  10.523
59557W        W63625  13.581  17.303   8.486
59558W        W63626  11.179  16.227  10.663
59559W        W63627  14.145  14.691   7.959
59560W        W63628  13.665  17.166   7.970
59561W        W63629  12.567  16.224   8.055
59562W        W63630  13.754  15.028   7.578
59563W        W63631  13.819  15.635   9.764
59564W        W63632  11.528  16.228   8.971
59565W        W63633  11.822  17.167   8.620
59566W        W63634  13.585  15.787   8.585
59567W        W63635  12.608  15.166   9.281
59568W        W63636  14.570  17.077   9.792
59569W        W63637  14.488  15.064   9.353
59570W        W63638  11.027  17.894   8.729
59571W        W63639  11.536  17.081   8.265
59572W        W63640  11.451  14.698  10.818
59573W        W63641  12.570  17.551  10.920
59574W        W63642  14.325  16.519   8.710
59575W        W63643  13.679  16.696   7.590
59576W        W63644  12.974  18.217   9.802
59577W        W63645  13.831  16.939  10.839
59578W        W63646  12.646  14.649   8.119
59579W        W63647  13.359  15.518   8.978
59580W        W63648  11.045  17.105   9.310
59581W        W63649  12.298  15.067   7.951
59582W        W63650  12.102  16.551  10.800
59583W        W63651  13.096  15.532   8.514
59584W        W63652  13.301  16.942   9.636
59585W        W63653  11.455  17.547  10.071
59586W        W63654  12.046  17.530  10.794
59587W        W63655  11.897  15.327   7.808
59588W        W63656  13.414  15.469   8.133
59589W        W63657  13.372  17.577  10.370
59590W        W63658  12.057  16.169   8.969
59591W        W63659  11.712  17.867   9.834
59592W        W63660  14.457  17.984   7.435
59593W        W63661  11.320  16.656  10.431
59594W        W63662  13.315  16.918   9.119
59595W        W63663  11.751  16.567   8.361
59596W        W63664  12.122  17.574   9.756
59597W        W63665  12.500  14.993   8.797
59598W        W63666  11.111  16.977   7.727
59599W        W63667  12.630  15.928   7.597
59600W        W63668  11.276  16.477   8.616
59601W        W63669  12.566  15.119  10.080
59602W        W63670  14.238  14.828   7.507
59603W        W63671  14.331  16.574  10.606
59604W        W63672  12.985  17.831  10.758
59605W        W63673  14.543  16.925  10.280
59606W        W63674  13.951  17.723  10.891
59607W        W63675  11.690  18.179   9.369
59608W        W63676  14.549  16.801   8.243
59609W        W63677  13.079  16.068   8.756
59610W        W63678  12.846  14.680   8.646
59611W        W63679  11.905  17.664   8.483
59612W        W63680  12.404  15.405   9.708
59613W        W63681  12.104  14.774   9.177
59614W        W63682  11.167  17.596   7.725
59615W        W63683  12.983  16.960   8.443
59616W        W63684  11.858  17.755  10.322
59617W        W63685  11.335  16.578   8.018
59618W        W63686  11.220  15.121   9.017
59619W        W63687  12.768  17.086   9.074
59620W        W63688  11.020  14.940   8.094
59621W        W63689  13.684  16.146  10.021
59622W        W63690  13.561  15.532   7.593
59623W        W63691  14.078  17.204   9.241
59624W        W63692  12.739  17.688   9.072
59625W        W63693  12.151  17.792   7.983
59626W        W63694  13.433  14.695   7.413
59627W        W63695  11.233  17.955   9.154
59628W        W63696  13.430  15.713  10.789
59629W        W63697  11.413  15.243  10.788
59630W        W63698  11.144  15.843   8.121
59631W        W63699  11.835  15.832   7.846
59632W        W63700  13.598  16.159  10.663
59633W        W63701  11.941  16.440   9.372
59634W        W63702  13.415  14.726   8.492
59635W        W63703  12.546  18.157   8.995
59636W        W63704  13.760  17.619   9.932
59637W        W63705  13.344  17.768   9.043
59638W        W63706  13.363  16.748   8.637
59639W        W63707  12.825  14.973   7.708
59640W        W63708  14.506  14.601   8.430
59641W        W63709  12.194  16.236   7.593
59642W        W63710  14.360  15.573   8.583
59643W        W63711  13.052  16.743   7.460
59644W        W63712  13.988  16.943  10.208
59645W        W63713  13.642  17.644   7.675
59646W        W63714  12.257  15.319  10.581
59647W        W63715  12.077  15.903   9.822
59648W        W63716  14.169  17.398  10.099
59649W        W63717  13.269  15.348  10.476
59650W        W63718  11.113  15.819  10.253
59651W        W63719  12.873  16.296   9.979
59652W        W63720  11.230  17.054   8.636
59653W        W63721  11.377  16.351   9.526
59654W        W63722  13.694  16.637   9.876
59655W        W63723  13.466  18.017  10.687
59656W        W63724  13.362  15.756  10.240
59657W        W63725  13.639  17.810   8.645
59658W        W63726  12.641  17.530   9.968
59659W        W63727  12.126  17.885   9.237
59660W        W63728  13.931  17.056   9.656
59661W        W63729  12.981  17.128  10.793
59662W        W63730  11.586  17.081   9.132
59663W        W63731  13.932  16.840   8.777
59664W        W63732  13.573  17.906   9.528
59665W        W63733  11.551  17.635   9.398
59666W        W63734  12.572  15.687  10.608
59667W        W63735  13.023  17.853   8.119
59668W        W63736  12.331  17.108  10.757
59669W        W63737  12.457  17.346   8.134
59670W        W63738  11.678  16.086   7.393
59671W        W63739  11.017  18.172  14.292
59672W        W63740  11.393  17.065  13.815
59673W        W63741  14.098  16.795  11.585
59674W        W63742  14.228  17.880  13.612
59675W        W63743  12.146  17.871  11.138
59676W        W63744  12.229  16.023  12.121
59677W        W63745  11.744  15.871  12.285
59678W        W63746  12.735  16.686  11.719
59679W        W63747  12.410  17.778  14.074
59680W        W63748  11.059  15.339  14.037
59681W        W63749  11.821  14.619  13.839
59682W        W63750  13.515  15.007  12.726
59683W        W63751  13.164  15.878  11.296
59684W        W63752  13.734  15.312  14.387
59685W        W63753  11.100  15.104  13.512
59686W        W63754  11.199  17.723  14.533
59687W        W63755  12.721  17.113  11.265
59688W        W63756  11.153  15.896  12.958
59689W        W63757  12.046  15.787  14.195
59690W        W63758  14.505  15.646  12.694
59691W        W63759  14.269  16.689  13.553
59692W        W63760  12.577  16.022  12.580
59693W        W63761  13.123  17.361  12.949
59694W        W63762  11.623  16.795  13.181
59695W        W63763  10.982  16.323  12.752
59696W        W63764  12.018  16.295  13.944
59697W        W63765  14.289  16.078  14.198
59698W        W63766  11.905  17.522  12.643
59699W        W63767  13.026  17.211  13.777
59700W        W63768  12.246  15.851  13.002
59701W        W63769  12.538  16.635  12.645
59702W        W63770  13.535  17.408  14.493
59703W        W63771  12.614  16.728  14.503
59704W        W63772  12.595  16.444  13.981
59705W        W63773  11.004  15.835  14.503
59706W        W63774  13.836  17.370  14.102
59707W        W63775  11.417  14.952  12.100
59708W        W63776  11.944  17.210  13.099
59709W        W63777  14.407  16.993  12.389
59710W        W63778  13.820  15.393  12.956
59711W        W63779  14.105  15.346  11.051
59712W        W63780  14.570  16.147  13.357
59713W        W63781  12.537  17.854  13.110
59714W        W63782  14.311  17.320  11.548
59715W        W63783  11.440  18.106  11.302
59716W        W63784  11.833  18.152  11.978
59717W        W63785  11.630  14.906  13.404
59718W        W63786  14.253  15.924  13.679
59719W        W63787  13.658  16.346  12.138
59720W        W63788  13.624  16.034  11.165
59721W        W63789  12.832  17.178  13.305
59722W        W63790  12.638  15.508  12.504
59723W        W63791  13.238  17.595  13.498
59724W        W63792  14.109  16.386  11.920
59725W        W63793  13.011  15.044  11.936
59726W        W63794  11.668  17.738  11.619
59727W        W63795  11.039  15.237  12.218
59728W        W63796  13.825  15.844  12.692
59729W        W63797  11.283  17.461  12.607
59730W        W63798  12.624  17.811  11.477
59731W        W63799  14.016  15.837  10.941
59732W        W63800  11.039  17.595  13.105
59733W        W63801  11.830  17.167  13.585
59734W        W63802  12.203  16.527  12.204
59735W        W63803  12.225  14.932  13.297
59736W        W63804  14.454  14.694  12.594
59737W        W63805  11.673  16.566  11.062
59738W        W63806  11.328  15.599  11.241
59739W        W63807  11.390  17.555  12.035
59740W        W63808  12.521  17.038  12.283
59741W        W63809  13.853  17.897  13.997
59742W        W63810  12.779  15.539  11.681
59743W        W63811  14.162  17.937  12.453
59744W        W63812  13.839  15.790  14.051
59745W        W63813  14.552  17.446  12.185
59746W        W63814  13.179  16.738  13.669
59747W        W63815  10.945  16.289  11.875
59748W        W63816  12.056  16.704  13.448
59749W        W63817  13.260  15.968  11.826
59750W        W63818  13.137  16.458  11.930
59751W        W63819  11.480  15.878  13.404
59752W        W63820  11.465  15.754  14.326
59753W        W63821  11.355  14.671  12.485
59754W        W63822  13.123  15.018  13.046
59755W        W63823  12.771  15.203  14.209
59756W        W63824  13.126  15.352  11.387
59757W        W63825  14.309  17.745  14.141
59758W        W63826  13.276  14.826  14.180
59759W        W63827  14.295  17.127  14.302
59760W        W63828  13.725  15.294  13.898
59761W        W63829  13.525  15.232  12.168
59762W        W63830  13.918  16.366  14.572
59763W        W63831  11.658  17.942  12.558
59764W        W63832  12.316  15.659  11.544
59765W        W63833  11.885  14.943  14.208
59766W        W63834  13.937  15.427  11.889
59767W        W63835  14.304  15.909  11.834
59768W        W63836  12.047  18.126  14.305
59769W        W63837  11.973  14.662  11.540
59770W        W63838  14.294  15.196  12.575
59771W        W63839  14.444  17.445  11.020
59772W        W63840  11.351  16.648  12.722
59773W        W63841  13.268  15.235  10.952
59774W        W63842  14.402  17.567  12.672
59775W        W63843  14.441  14.761  13.422
59776W        W63844  12.886  15.973  13.976
59777W        W63845  12.979  17.312  11.679
59778W        W63846  13.379  16.606  14.419
59779W        W63847  13.053  14.583  12.728
59780W        W63848  11.665  15.486  12.791
59781W        W63849  11.219  16.686  13.565
59782W        W63850  13.078  17.879  12.271
59783W        W63851  14.272  15.476  13.143
59784W        W63852  12.909  17.823  13.910
59785W        W63853  14.252  16.882  11.115
59786W        W63854  12.687  16.365  12.176
59787W        W63855  14.539  14.876  13.917
59788W        W63856  12.688  16.711  13.511
59789W        W63857  12.905  15.597  12.956
59790W        W63858  13.757  15.895  11.794
59791W        W63859  14.044  15.628  11.436
59792W        W63860  13.853  17.668  11.825
59793W        W63861  13.687  17.271  12.621
59794W        W63862  13.583  16.350  11.599
59795W        W63863  13.016  16.560  12.585
59796W        W63864  13.897  16.348  12.652
59797W        W63865  11.272  15.363  13.076
59798W        W63866  14.050  16.415  13.903
59799W        W63867  14.401  18.033  13.049
59800W        W63868  12.331  17.477  12.451
59801W        W63869  13.338  18.010  13.775
59802W        W63870  13.332  15.340  13.539
59803W        W63871  12.539  18.048  13.600
59804W        W63872  14.236  15.002  12.066
59805W        W63873  14.027  16.321  13.367
59806W        W63874  11.010  15.642  13.405
59807W        W63875  13.870  15.437  12.423
59808W        W63876  14.281  15.588  14.200
59809W        W63877  13.166  17.287  12.418
59810W        W63878  12.422  17.878  12.031
59811W        W63879  11.537  15.058  11.289
59812W        W63880  12.641  14.712  13.099
59813W        W63881  11.669  17.832  10.947
59814W        W63882  12.043  16.298  11.698
59815W        W63883  12.697  16.927  14.011
59816W        W63884  12.527  15.285  12.001
59817W        W63885  13.883  14.882  12.429
59818W        W63886  13.603  18.164  12.757
59819W        W63887  13.015  17.812  13.097
59820W        W63888  12.411  16.849  13.058
59821W        W63889  14.181  17.572  13.184
59822W        W63890  11.875  15.075  11.953
59823W        W63891  12.397  17.372  12.913
59824W        W63892  11.880  15.303  10.978
59825W        W63893  12.681  15.912  13.372
59826W        W63894  13.529  14.778  13.242
59827W        W63895  10.949  16.621  13.127
59828W        W63896  12.653  16.439  11.285
59829W        W63897  11.921  14.754  11.055
59830W        W63898  12.659  15.835  12.106
59831W        W63899  13.629  14.811  13.805
59832W        W63900  12.217  16.823  13.914
59833W        W63901  13.021  16.605  14.131
59834W        W63902  13.638  16.635  14.024
59835W        W63903  12.922  14.775  14.529
59836W        W63904  12.144  15.391  12.922
59837W        W63905  11.570  15.347  12.320
59838W        W63906  11.356  18.059  11.996
59839W        W63907  12.688  17.389  14.121
59840W        W63908  11.723  16.874  11.480
59841W        W63909  13.403  16.259  12.701
59842W        W63910  13.683  16.058  13.100
59843W        W63911  12.888  16.732  13.034
59844W        W63912  13.358  17.106  11.166
59845W        W63913  13.030  15.127  12.494
59846W        W63914  14.509  15.405  11.762
59847W        W63915  11.003  17.994  13.793
59848W        W63916  11.420  17.220  13.325
59849W        W63917  10.987  18.066  11.557
59850W        W63918  12.886  15.336  13.363
59851W        W63919  12.249  17.359  11.212
59852W        W63920  14.154  17.741  11.398
59853W        W63921  13.129  16.394  11.412
59854W        W63922  11.972  15.585  11.929
59855W        W63923  12.804  15.495  10.981
59856W        W63924  13.388  17.060  14.159
59857W        W63925  13.741  14.966  11.776
59858W        W63926  11.071  14.814  11.224
59859W        W63927  12.357  17.133  13.514
59860W        W63928  12.156  17.049  12.606
59861W        W63929  11.898  17.001  11.004
59862W        W63930  11.139  17.242  11.772
59863W        W63931  11.643  16.312  14.214
59864W        W63932  12.347  14.872  14.400
59865W        W63933  13.056  15.014  13.756
59866W        W63934  12.251  14.782  12.037
59867W        W63935  13.310  14.859  11.542
59868W        W63936  11.255  14.791  13.119
59869W        W63937  11.303  15.754  12.489
59870W        W63938  13.992  14.862  12.895
59871W        W63939  11.414  15.360  11.709
59872W        W63940  13.985  15.048  13.325
59873W        W63941  14.381  16.251  11.010
59874W        W63942  11.673  15.009  12.829
59875W        W63943  12.787  15.581  13.769
59876W        W63944  10.935  15.271  11.247
59877W        W63945  11.721  16.660  13.808
59878W        W63946  13.079  16.058  12.987
59879W        W63947  12.946  18.137  11.283
59880W        W63948  11.092  16.644  10.980
59881W        W63949  11.827  17.055  14.106
59882W        W63950  11.348  16.222  13.737
59883W        W63951  12.339  16.327  13.531
59884W        W63952  14.107  14.686  13.793
59885W        W63953  14.505  16.296  13.784
59886W        W63954  14.493  16.496  11.470
59887W        W63955  13.356  16.828  11.569
59888W        W63956  13.830  18.128  11.264
59889W        W63957  13.007  16.118  14.406
59890W        W63958  11.337  17.085  14.446
59891W        W63959  14.543  15.007  14.398
59892W        W63960  14.261  15.935  13.019
59893W        W63961  12.569  18.065  14.496
59894W        W63962  12.424  14.694  11.223
59895W        W63963  13.963  17.293  11.166
59896W        W63964  11.732  15.386  14.052
59897W        W63965  12.166  17.380  13.914
59898W        W63966  14.292  15.371  13.712
59899W        W63967  13.503  18.030  11.680
59900W        W63968  13.742  16.649  13.047
59901W        W63969  11.992  15.065  13.714
59902W        W63970  12.461  16.134  14.471
59903W        W63971  11.964  17.313  11.665
59904W        W63972  13.719  16.811  11.929
59905W        W63973  11.487  15.437  13.653
59906W        W63974  12.816  17.499  12.117
59907W        W63975  14.566  16.059  12.298
59908W        W63976  12.788  14.692  14.017
59909W        W63977  13.568  17.397  13.096
59910W        W63978  13.871  17.741  12.804
59911W        W63979  13.090  17.543  11.232
59912W        W63980  11.100  17.435  14.074
59913W        W63981  11.843  15.427  13.312
59914W        W63982  11.813  14.775  12.422
59915W        W63983  13.434  15.617  13.114
59916W        W63984  12.232  16.788  11.314
59917W        W63985  14.230  16.730  12.813
59918W        W63986  11.557  17.488  14.236
59919W        W63987  13.944  18.170  12.033
59920W        W63988  12.043  15.190  12.478
59921W        W63989  11.812  16.683  12.568
59922W        W63990  12.125  18.094  13.318
59923W        W63991  14.192  18.190  14.350
59924W        W63992  13.351  16.378  13.283
59925W        W63993  11.200  16.176  11.198
59926W        W63994  14.334  17.834  11.895
59927W        W63995  14.171  15.158  11.514
59928W        W63996  12.310  14.677  13.917
59929W        W63997  14.016  17.479  12.375
59930W        W63998  14.045  16.035  12.280
59931W        W63999  12.162  15.708  12.496
59932W        W64000  12.407  15.970  13.820
59933W        W64001  13.518  17.123  13.683
59934W        W64002  12.168  15.577  13.795
59935W        W64003  12.147  18.043  12.411
59936W        W64004  11.464  18.002  14.045
59937W        W64005  11.576  17.363  11.175
59938W        W64006  14.093  17.121  11.985
59939W        W64007  11.697  15.913  13.871
59940W        W64008  14.470  15.843  11.352
59941W        W64009  12.215  16.900  11.823
59942W        W64010  13.314  16.282  13.904
59943W        W64011  13.205  15.910  13.448
59944W        W64012  11.765  16.282  13.477
59945W        W64013  13.975  18.170  13.306
59946W        W64014  13.766  14.804  14.300
59947W        W64015  11.430  14.954  13.887
59948W        W64016  11.769  15.977  12.940
59949W        W64017  12.138  15.791  11.062
59950W        W64018  10.941  17.550  13.607
59951W        W64019  12.526  16.259  13.050
59952W        W64020  12.349  15.284  11.155
59953W        W64021  11.484  16.100  11.936
59954W        W64022  11.255  17.952  13.373
59955W        W64023  14.050  16.178  11.481
59956W        W64024  14.145  15.094  14.167
59957W        W64025  13.581  17.303  12.130
59958W        W64026  11.179  16.227  14.307
59959W        W64027  14.145  14.691  11.603
59960W        W64028  13.665  17.166  11.614
59961W        W64029  12.567  16.224  11.699
59962W        W64030  13.754  15.028  11.222
59963W        W64031  13.819  15.635  13.408
59964W        W64032  11.528  16.228  12.615
59965W        W64033  11.822  17.167  12.264
59966W        W64034  13.585  15.787  12.229
59967W        W64035  12.608  15.166  12.925
59968W        W64036  14.570  17.077  13.436
59969W        W64037  14.488  15.064  12.997
59970W        W64038  11.027  17.894  12.373
59971W        W64039  11.536  17.081  11.909
59972W        W64040  11.451  14.698  14.462
59973W        W64041  12.570  17.551  14.564
59974W        W64042  14.325  16.519  12.354
59975W        W64043  13.679  16.696  11.234
59976W        W64044  12.974  18.217  13.446
59977W        W64045  13.831  16.939  14.483
59978W        W64046  12.646  14.649  11.763
59979W        W64047  13.359  15.518  12.622
59980W        W64048  11.045  17.105  12.954
59981W        W64049  12.298  15.067  11.595
59982W        W64050  12.102  16.551  14.444
59983W        W64051  13.096  15.532  12.158
59984W        W64052  13.301  16.942  13.280
59985W        W64053  11.455  17.547  13.715
59986W        W64054  12.046  17.530  14.438
59987W        W64055  11.897  15.327  11.452
59988W        W64056  13.414  15.469  11.777
59989W        W64057  13.372  17.577  14.014
59990W        W64058  12.057  16.169  12.613
59991W        W64059  11.712  17.867  13.478
59992W        W64060  14.457  17.984  11.079
59993W        W64061  11.320  16.656  14.075
59994W        W64062  13.315  16.918  12.763
59995W        W64063  11.751  16.567  12.005
59996W        W64064  12.122  17.574  13.400
59997W        W64065  12.500  14.993  12.441
59998W        W64066  11.111  16.977  11.371
59999W        W64067  12.630  15.928  11.241
60000W        W64068  11.276  16.477  12.260
60001W        W64069  12.566  15.119  13.724
60002W        W64070  14.238  14.828  11.151
60003W        W64071  14.331  16.574  14.250
60004W        W64072  12.985  17.831  14.402
60005W        W64073  14.543  16.925  13.924
60006W        W64074  13.951  17.723  14.535
60007W        W64075  11.690  18.179  13.013
60008W        W64076  14.549  16.801  11.887
60009W        W64077  13.079  16.068  12.400
60010W        W64078  12.846  14.680  12.290
60011W        W64079  11.905  17.664  12.127
60012W        W64080  12.404  15.405  13.352
60013W        W64081  12.104  14.774  12.821
60014W        W64082  11.167  17.596  11.369
60015W        W64083  12.983  16.960  12.087
60016W        W64084  11.858  17.755  13.966
60017W        W64085  11.335  16.578  11.662
60018W        W64086  11.220  15.121  12.661
60019W        W64087  12.768  17.086  12.718
60020W        W64088  11.020  14.940  11.738
60021W        W64089  13.684  16.146  13.665
60022W        W64090  13.561  15.532  11.237
60023W        W64091  14.078  17.204  12.885
60024W        W64092  12.739  17.688  12.716
60025W        W64093  12.151  17.792  11.627
60026W        W64094  13.433  14.695  11.057
60027W        W64095  11.233  17.955  12.798
60028W        W64096  13.430  15.713  14.433
60029W        W64097  11.413  15.243  14.432
60030W        W64098  11.144  15.843  11.765
60031W        W64099  11.835  15.832  11.490
60032W        W64100  13.598  16.159  14.307
60033W        W64101  11.941  16.440  13.016
60034W        W64102  13.415  14.726  12.136
60035W        W64103  12.546  18.157  12.639
60036W        W64104  13.760  17.619  13.576
60037W        W64105  13.344  17.768  12.687
60038W        W64106  13.363  16.748  12.281
60039W        W64107  12.825  14.973  11.352
60040W        W64108  14.506  14.601  12.074
60041W        W64109  12.194  16.236  11.237
60042W        W64110  14.360  15.573  12.227
60043W        W64111  13.052  16.743  11.104
60044W        W64112  13.988  16.943  13.852
60045W        W64113  13.642  17.644  11.319
60046W        W64114  12.257  15.319  14.225
60047W        W64115  12.077  15.903  13.466
60048W        W64116  14.169  17.398  13.743
60049W        W64117  13.269  15.348  14.120
60050W        W64118  11.113  15.819  13.897
60051W        W64119  12.873  16.296  13.623
60052W        W64120  11.230  17.054  12.280
60053W        W64121  11.377  16.351  13.170
60054W        W64122  13.694  16.637  13.520
60055W        W64123  13.466  18.017  14.331
60056W        W64124  13.362  15.756  13.884
60057W        W64125  13.639  17.810  12.289
60058W        W64126  12.641  17.530  13.612
60059W        W64127  12.126  17.885  12.881
60060W        W64128  13.931  17.056  13.300
60061W        W64129  12.981  17.128  14.437
60062W        W64130  11.586  17.081  12.776
60063W        W64131  13.932  16.840  12.421
60064W        W64132  13.573  17.906  13.172
60065W        W64133  11.551  17.635  13.042
60066W        W64134  12.572  15.687  14.252
60067W        W64135  13.023  17.853  11.763
60068W        W64136  12.331  17.108  14.401
60069W        W64137  12.457  17.346  11.778
60070W        W64138  11.678  16.086  11.037
60071W        W64139  11.017  18.172  17.936
60072W        W64140  11.393  17.065  17.459
60073W        W64141  14.098  16.795  15.229
60074W        W64142  14.228  17.880  17.256
60075W        W64143  12.146  17.871  14.782
60076W        W64144  12.229  16.023  15.765
60077W        W64145  11.744  15.871  15.929
60078W        W64146  12.735  16.686  15.363
60079W        W64147  12.410  17.778  17.718
60080W        W64148  11.059  15.339  17.681
60081W        W64149  11.821  14.619  17.483
60082W        W64150  13.515  15.007  16.370
60083W        W64151  13.164  15.878  14.940
60084W        W64152  11.100  15.104  17.156
60085W        W64153  11.199  17.723  18.177
60086W        W64154  12.721  17.113  14.909
60087W        W64155  11.153  15.896  16.602
60088W        W64156  12.046  15.787  17.839
60089W        W64157  14.505  15.646  16.338
60090W        W64158  14.269  16.689  17.197
60091W        W64159  12.577  16.022  16.224
60092W        W64160  13.123  17.361  16.593
60093W        W64161  11.623  16.795  16.825
60094W        W64162  10.982  16.323  16.396
60095W        W64163  12.018  16.295  17.588
60096W        W64164  14.289  16.078  17.842
60097W        W64165  11.905  17.522  16.287
60098W        W64166  13.026  17.211  17.421
60099W        W64167  12.246  15.851  16.646
60100W        W64168  12.538  16.635  16.289
60101W        W64169  13.535  17.408  18.137
60102W        W64170  12.614  16.728  18.147
60103W        W64171  12.595  16.444  17.625
60104W        W64172  11.004  15.835  18.147
60105W        W64173  13.836  17.370  17.746
60106W        W64174  11.417  14.952  15.744
60107W        W64175  11.944  17.210  16.743
60108W        W64176  14.407  16.993  16.033
60109W        W64177  13.820  15.393  16.600
60110W        W64178  14.105  15.346  14.695
60111W        W64179  14.570  16.147  17.001
60112W        W64180  12.537  17.854  16.754
60113W        W64181  14.311  17.320  15.192
60114W        W64182  11.440  18.106  14.946
60115W        W64183  11.833  18.152  15.622
60116W        W64184  11.630  14.906  17.048
60117W        W64185  14.253  15.924  17.323
60118W        W64186  13.658  16.346  15.782
60119W        W64187  13.624  16.034  14.809
60120W        W64188  12.832  17.178  16.949
60121W        W64189  12.638  15.508  16.148
60122W        W64190  13.238  17.595  17.142
60123W        W64191  14.109  16.386  15.564
60124W        W64192  13.011  15.044  15.580
60125W        W64193  11.668  17.738  15.263
60126W        W64194  11.039  15.237  15.862
60127W        W64195  13.825  15.844  16.336
60128W        W64196  11.283  17.461  16.251
60129W        W64197  12.624  17.811  15.121
60130W        W64198  14.016  15.837  14.585
60131W        W64199  11.039  17.595  16.749
60132W        W64200  11.830  17.167  17.229
60133W        W64201  12.203  16.527  15.848
60134W        W64202  12.225  14.932  16.941
60135W        W64203  14.454  14.694  16.238
60136W        W64204  11.673  16.566  14.706
60137W        W64205  11.328  15.599  14.885
60138W        W64206  11.390  17.555  15.679
60139W        W64207  12.521  17.038  15.927
60140W        W64208  13.853  17.897  17.641
60141W        W64209  12.779  15.539  15.325
60142W        W64210  14.162  17.937  16.097
60143W        W64211  13.839  15.790  17.695
60144W        W64212  14.552  17.446  15.829
60145W        W64213  13.179  16.738  17.313
60146W        W64214  10.945  16.289  15.519
60147W        W64215  12.056  16.704  17.092
60148W        W64216  13.260  15.968  15.470
60149W        W64217  13.137  16.458  15.574
60150W        W64218  11.480  15.878  17.048
60151W        W64219  11.465  15.754  17.970
60152W        W64220  11.355  14.671  16.129
60153W        W64221  13.123  15.018  16.690
60154W        W64222  12.771  15.203  17.853
60155W        W64223  13.126  15.352  15.031
60156W        W64224  14.309  17.745  17.785
60157W        W64225  14.295  17.127  17.946
60158W        W64226  13.725  15.294  17.542
60159W        W64227  13.525  15.232  15.812
60160W        W64228  13.918  16.366  18.216
60161W        W64229  11.658  17.942  16.202
60162W        W64230  12.316  15.659  15.188
60163W        W64231  11.885  14.943  17.852
60164W        W64232  13.937  15.427  15.533
60165W        W64233  14.304  15.909  15.478
60166W        W64234  12.047  18.126  17.949
60167W        W64235  11.973  14.662  15.184
60168W        W64236  14.294  15.196  16.219
60169W        W64237  14.444  17.445  14.664
60170W        W64238  11.351  16.648  16.366
60171W        W64239  13.268  15.235  14.596
60172W        W64240  14.402  17.567  16.316
60173W        W64241  14.441  14.761  17.066
60174W        W64242  12.886  15.973  17.620
60175W        W64243  12.979  17.312  15.323
60176W        W64244  13.379  16.606  18.063
60177W        W64245  11.665  15.486  16.435
60178W        W64246  11.219  16.686  17.209
60179W        W64247  13.078  17.879  15.915
60180W        W64248  14.272  15.476  16.787
60181W        W64249  12.909  17.823  17.554
60182W        W64250  14.252  16.882  14.759
60183W        W64251  12.687  16.365  15.820
60184W        W64252  14.539  14.876  17.561
60185W        W64253  12.688  16.711  17.155
60186W        W64254  12.905  15.597  16.600
60187W        W64255  13.757  15.895  15.438
60188W        W64256  14.044  15.628  15.080
60189W        W64257  13.853  17.668  15.469
60190W        W64258  13.687  17.271  16.265
60191W        W64259  13.583  16.350  15.243
60192W        W64260  13.016  16.560  16.229
60193W        W64261  13.897  16.348  16.296
60194W        W64262  11.272  15.363  16.720
60195W        W64263  14.050  16.415  17.547
60196W        W64264  14.401  18.033  16.693
60197W        W64265  12.331  17.477  16.095
60198W        W64266  13.338  18.010  17.419
60199W        W64267  13.332  15.340  17.183
60200W        W64268  12.539  18.048  17.244
60201W        W64269  14.236  15.002  15.710
60202W        W64270  14.027  16.321  17.011
60203W        W64271  11.010  15.642  17.049
60204W        W64272  13.870  15.437  16.067
60205W        W64273  13.166  17.287  16.062
60206W        W64274  12.422  17.878  15.675
60207W        W64275  11.537  15.058  14.933
60208W        W64276  11.669  17.832  14.591
60209W        W64277  12.043  16.298  15.342
60210W        W64278  12.697  16.927  17.655
60211W        W64279  12.527  15.285  15.645
60212W        W64280  13.883  14.882  16.073
60213W        W64281  13.603  18.164  16.401
60214W        W64282  13.015  17.812  16.741
60215W        W64283  12.411  16.849  16.702
60216W        W64284  14.181  17.572  16.828
60217W        W64285  11.875  15.075  15.597
60218W        W64286  12.397  17.372  16.557
60219W        W64287  11.880  15.303  14.622
60220W        W64288  12.681  15.912  17.016
60221W        W64289  13.529  14.778  16.886
60222W        W64290  10.949  16.621  16.771
60223W        W64291  12.653  16.439  14.929
60224W        W64292  11.921  14.754  14.699
60225W        W64293  12.659  15.835  15.750
60226W        W64294  13.629  14.811  17.449
60227W        W64295  12.217  16.823  17.558
60228W        W64296  13.021  16.605  17.775
60229W        W64297  13.638  16.635  17.668
60230W        W64298  12.922  14.775  18.173
60231W        W64299  12.144  15.391  16.566
60232W        W64300  11.570  15.347  15.964
60233W        W64301  11.356  18.059  15.640
60234W        W64302  12.688  17.389  17.765
60235W        W64303  11.723  16.874  15.124
60236W        W64304  13.403  16.259  16.345
60237W        W64305  13.683  16.058  16.744
60238W        W64306  12.888  16.732  16.678
60239W        W64307  13.358  17.106  14.810
60240W        W64308  13.030  15.127  16.138
60241W        W64309  14.509  15.405  15.406
60242W        W64310  11.003  17.994  17.437
60243W        W64311  11.420  17.220  16.969
60244W        W64312  10.987  18.066  15.201
60245W        W64313  12.886  15.336  17.007
60246W        W64314  12.249  17.359  14.856
60247W        W64315  14.154  17.741  15.042
60248W        W64316  13.129  16.394  15.056
60249W        W64317  11.972  15.585  15.573
60250W        W64318  12.804  15.495  14.625
60251W        W64319  13.388  17.060  17.803
60252W        W64320  13.741  14.966  15.420
60253W        W64321  11.071  14.814  14.868
60254W        W64322  12.357  17.133  17.158
60255W        W64323  12.156  17.049  16.250
60256W        W64324  11.898  17.001  14.648
60257W        W64325  11.139  17.242  15.416
60258W        W64326  11.643  16.312  17.858
60259W        W64327  12.347  14.872  18.044
60260W        W64328  13.056  15.014  17.400
60261W        W64329  12.251  14.782  15.681
60262W        W64330  13.310  14.859  15.186
60263W        W64331  11.255  14.791  16.763
60264W        W64332  11.303  15.754  16.133
60265W        W64333  13.992  14.862  16.539
60266W        W64334  11.414  15.360  15.353
60267W        W64335  13.985  15.048  16.969
60268W        W64336  14.381  16.251  14.654
60269W        W64337  11.673  15.009  16.473
60270W        W64338  12.787  15.581  17.413
60271W        W64339  10.935  15.271  14.891
60272W        W64340  11.721  16.660  17.452
60273W        W64341  13.079  16.058  16.631
60274W        W64342  12.946  18.137  14.927
60275W        W64343  11.092  16.644  14.624
60276W        W64344  11.827  17.055  17.750
60277W        W64345  11.348  16.222  17.381
60278W        W64346  12.339  16.327  17.175
60279W        W64347  14.107  14.686  17.437
60280W        W64348  14.505  16.296  17.428
60281W        W64349  14.493  16.496  15.114
60282W        W64350  13.356  16.828  15.213
60283W        W64351  13.830  18.128  14.908
60284W        W64352  13.007  16.118  18.050
60285W        W64353  11.337  17.085  18.090
60286W        W64354  14.543  15.007  18.042
60287W        W64355  14.261  15.935  16.663
60288W        W64356  12.569  18.065  18.140
60289W        W64357  12.424  14.694  14.867
60290W        W64358  13.963  17.293  14.810
60291W        W64359  11.732  15.386  17.696
60292W        W64360  12.166  17.380  17.558
60293W        W64361  14.292  15.371  17.356
60294W        W64362  13.503  18.030  15.324
60295W        W64363  13.742  16.649  16.691
60296W        W64364  11.992  15.065  17.358
60297W        W64365  12.461  16.134  18.115
60298W        W64366  11.964  17.313  15.309
60299W        W64367  13.719  16.811  15.573
60300W        W64368  11.487  15.437  17.297
60301W        W64369  12.816  17.499  15.761
60302W        W64370  14.566  16.059  15.942
60303W        W64371  12.788  14.692  17.661
60304W        W64372  13.568  17.397  16.740
60305W        W64373  13.871  17.741  16.448
60306W        W64374  13.090  17.543  14.876
60307W        W64375  11.100  17.435  17.718
60308W        W64376  11.843  15.427  16.956
60309W        W64377  11.813  14.775  16.066
60310W        W64378  13.434  15.617  16.758
60311W        W64379  12.232  16.788  14.958
60312W        W64380  14.230  16.730  16.457
60313W        W64381  11.557  17.488  17.880
60314W        W64382  13.944  18.170  15.677
60315W        W64383  12.043  15.190  16.122
60316W        W64384  11.812  16.683  16.212
60317W        W64385  12.125  18.094  16.962
60318W        W64386  14.192  18.190  17.994
60319W        W64387  13.351  16.378  16.927
60320W        W64388  11.200  16.176  14.842
60321W        W64389  14.334  17.834  15.539
60322W        W64390  14.171  15.158  15.158
60323W        W64391  12.310  14.677  17.561
60324W        W64392  14.016  17.479  16.019
60325W        W64393  14.045  16.035  15.924
60326W        W64394  12.162  15.708  16.140
60327W        W64395  12.407  15.970  17.464
60328W        W64396  13.518  17.123  17.327
60329W        W64397  12.168  15.577  17.439
60330W        W64398  12.147  18.043  16.055
60331W        W64399  11.464  18.002  17.689
60332W        W64400  11.576  17.363  14.819
60333W        W64401  14.093  17.121  15.629
60334W        W64402  11.697  15.913  17.515
60335W        W64403  14.470  15.843  14.996
60336W        W64404  12.215  16.900  15.467
60337W        W64405  13.314  16.282  17.548
60338W        W64406  13.205  15.910  17.092
60339W        W64407  11.765  16.282  17.121
60340W        W64408  13.975  18.170  16.950
60341W        W64409  13.766  14.804  17.944
60342W        W64410  11.430  14.954  17.531
60343W        W64411  11.769  15.977  16.584
60344W        W64412  12.138  15.791  14.706
60345W        W64413  10.941  17.550  17.251
60346W        W64414  12.526  16.259  16.694
60347W        W64415  12.349  15.284  14.799
60348W        W64416  11.484  16.100  15.580
60349W        W64417  11.255  17.952  17.017
60350W        W64418  14.050  16.178  15.125
60351W        W64419  14.145  15.094  17.811
60352W        W64420  13.581  17.303  15.774
60353W        W64421  11.179  16.227  17.951
60354W        W64422  14.145  14.691  15.247
60355W        W64423  13.665  17.166  15.258
60356W        W64424  12.567  16.224  15.343
60357W        W64425  13.754  15.028  14.866
60358W        W64426  13.819  15.635  17.052
60359W        W64427  11.528  16.228  16.259
60360W        W64428  11.822  17.167  15.908
60361W        W64429  13.585  15.787  15.873
60362W        W64430  12.608  15.166  16.569
60363W        W64431  14.570  17.077  17.080
60364W        W64432  14.488  15.064  16.641
60365W        W64433  11.027  17.894  16.017
60366W        W64434  11.536  17.081  15.553
60367W        W64435  11.451  14.698  18.106
60368W        W64436  12.570  17.551  18.208
60369W        W64437  14.325  16.519  15.998
60370W        W64438  13.679  16.696  14.878
60371W        W64439  12.974  18.217  17.090
60372W        W64440  13.831  16.939  18.127
60373W        W64441  12.646  14.649  15.407
60374W        W64442  13.359  15.518  16.266
60375W        W64443  11.045  17.105  16.598
60376W        W64444  12.298  15.067  15.239
60377W        W64445  12.102  16.551  18.088
60378W        W64446  13.096  15.532  15.802
60379W        W64447  13.301  16.942  16.924
60380W        W64448  11.455  17.547  17.359
60381W        W64449  12.046  17.530  18.082
60382W        W64450  11.897  15.327  15.096
60383W        W64451  13.414  15.469  15.421
60384W        W64452  13.372  17.577  17.658
60385W        W64453  12.057  16.169  16.257
60386W        W64454  11.712  17.867  17.122
60387W        W64455  14.457  17.984  14.723
60388W        W64456  11.320  16.656  17.719
60389W        W64457  13.315  16.918  16.407
60390W        W64458  11.751  16.567  15.649
60391W        W64459  12.122  17.574  17.044
60392W        W64460  12.500  14.993  16.085
60393W        W64461  11.111  16.977  15.015
60394W        W64462  12.630  15.928  14.885
60395W        W64463  11.276  16.477  15.904
60396W        W64464  12.566  15.119  17.368
60397W        W64465  14.238  14.828  14.795
60398W        W64466  14.331  16.574  17.894
60399W        W64467  12.985  17.831  18.046
60400W        W64468  14.543  16.925  17.568
60401W        W64469  13.951  17.723  18.179
60402W        W64470  11.690  18.179  16.657
60403W        W64471  14.549  16.801  15.531
60404W        W64472  13.079  16.068  16.044
60405W        W64473  11.905  17.664  15.771
60406W        W64474  12.404  15.405  16.996
60407W        W64475  12.104  14.774  16.465
60408W        W64476  11.167  17.596  15.013
60409W        W64477  12.983  16.960  15.731
60410W        W64478  11.858  17.755  17.610
60411W        W64479  11.335  16.578  15.306
60412W        W64480  11.220  15.121  16.305
60413W        W64481  12.768  17.086  16.362
60414W        W64482  11.020  14.940  15.382
60415W        W64483  13.684  16.146  17.309
60416W        W64484  13.561  15.532  14.881
60417W        W64485  14.078  17.204  16.529
60418W        W64486  12.739  17.688  16.360
60419W        W64487  12.151  17.792  15.271
60420W        W64488  13.433  14.695  14.701
60421W        W64489  11.233  17.955  16.442
60422W        W64490  13.430  15.713  18.077
60423W        W64491  11.413  15.243  18.076
60424W        W64492  11.144  15.843  15.409
60425W        W64493  11.835  15.832  15.134
60426W        W64494  13.598  16.159  17.951
60427W        W64495  11.941  16.440  16.660
60428W        W64496  12.546  18.157  16.283
60429W        W64497  13.760  17.619  17.220
60430W        W64498  13.344  17.768  16.331
60431W        W64499  13.363  16.748  15.925
60432W        W64500  12.825  14.973  14.996
60433W        W64501  14.506  14.601  15.718
60434W        W64502  12.194  16.236  14.881
60435W        W64503  14.360  15.573  15.871
60436W        W64504  13.052  16.743  14.748
60437W        W64505  13.988  16.943  17.496
60438W        W64506  13.642  17.644  14.963
60439W        W64507  12.257  15.319  17.869
60440W        W64508  12.077  15.903  17.110
60441W        W64509  14.169  17.398  17.387
60442W        W64510  13.269  15.348  17.764
60443W        W64511  11.113  15.819  17.541
60444W        W64512  12.873  16.296  17.267
60445W        W64513  11.230  17.054  15.924
60446W        W64514  11.377  16.351  16.814
60447W        W64515  13.694  16.637  17.164
60448W        W64516  13.466  18.017  17.975
60449W        W64517  13.362  15.756  17.528
60450W        W64518  13.639  17.810  15.933
60451W        W64519  12.641  17.530  17.256
60452W        W64520  12.126  17.885  16.525
60453W        W64521  13.931  17.056  16.944
60454W        W64522  12.981  17.128  18.081
60455W        W64523  11.586  17.081  16.420
60456W        W64524  13.932  16.840  16.065
60457W        W64525  13.573  17.906  16.816
60458W        W64526  11.551  17.635  16.686
60459W        W64527  12.572  15.687  17.896
60460W        W64528  13.023  17.853  15.407
60461W        W64529  12.331  17.108  18.045
60462W        W64530  12.457  17.346  15.422
60463W        W64531  11.678  16.086  14.681
60464W        W64532  11.017  18.172  21.580
60465W        W64533  11.393  17.065  21.103
60466W        W64534  14.098  16.795  18.873
60467W        W64535  14.228  17.880  20.900
60468W        W64536  12.146  17.871  18.426
60469W        W64537  12.229  16.023  19.409
60470W        W64538  11.744  15.871  19.573
60471W        W64539  12.735  16.686  19.007
60472W        W64540  12.410  17.778  21.362
60473W        W64541  11.059  15.339  21.325
60474W        W64542  11.821  14.619  21.127
60475W        W64543  13.515  15.007  20.014
60476W        W64544  13.164  15.878  18.584
60477W        W64545  13.734  15.312  21.675
60478W        W64546  11.100  15.104  20.800
60479W        W64547  11.199  17.723  21.821
60480W        W64548  12.721  17.113  18.553
60481W        W64549  11.153  15.896  20.246
60482W        W64550  12.046  15.787  21.483
60483W        W64551  14.505  15.646  19.982
60484W        W64552  14.269  16.689  20.841
60485W        W64553  12.577  16.022  19.868
60486W        W64554  13.123  17.361  20.237
60487W        W64555  11.623  16.795  20.469
60488W        W64556  10.982  16.323  20.040
60489W        W64557  12.018  16.295  21.232
60490W        W64558  14.289  16.078  21.486
60491W        W64559  11.905  17.522  19.931
60492W        W64560  13.026  17.211  21.065
60493W        W64561  12.246  15.851  20.290
60494W        W64562  12.538  16.635  19.933
60495W        W64563  13.535  17.408  21.781
60496W        W64564  12.614  16.728  21.791
60497W        W64565  12.595  16.444  21.269
60498W        W64566  11.004  15.835  21.791
60499W        W64567  13.836  17.370  21.390
60500W        W64568  11.417  14.952  19.388
60501W        W64569  11.944  17.210  20.387
60502W        W64570  14.407  16.993  19.677
60503W        W64571  13.820  15.393  20.244
60504W        W64572  14.105  15.346  18.339
60505W        W64573  14.570  16.147  20.645
60506W        W64574  12.537  17.854  20.398
60507W        W64575  14.311  17.320  18.836
60508W        W64576  11.440  18.106  18.590
60509W        W64577  11.833  18.152  19.266
60510W        W64578  11.630  14.906  20.692
60511W        W64579  14.253  15.924  20.967
60512W        W64580  13.658  16.346  19.426
60513W        W64581  13.624  16.034  18.453
60514W        W64582  12.832  17.178  20.593
60515W        W64583  12.638  15.508  19.792
60516W        W64584  13.238  17.595  20.786
60517W        W64585  14.109  16.386  19.208
60518W        W64586  13.011  15.044  19.224
60519W        W64587  11.668  17.738  18.907
60520W        W64588  11.039  15.237  19.506
60521W        W64589  13.825  15.844  19.980
60522W        W64590  11.283  17.461  19.895
60523W        W64591  12.624  17.811  18.765
60524W        W64592  14.016  15.837  18.229
60525W        W64593  11.039  17.595  20.393
60526W        W64594  11.830  17.167  20.873
60527W        W64595  12.203  16.527  19.492
60528W        W64596  12.225  14.932  20.585
60529W        W64597  14.454  14.694  19.882
60530W        W64598  11.673  16.566  18.350
60531W        W64599  11.328  15.599  18.529
60532W        W64600  11.390  17.555  19.323
60533W        W64601  12.521  17.038  19.571
60534W        W64602  13.853  17.897  21.285
60535W        W64603  12.779  15.539  18.969
60536W        W64604  14.162  17.937  19.741
60537W        W64605  13.839  15.790  21.339
60538W        W64606  14.552  17.446  19.473
60539W        W64607  13.179  16.738  20.957
60540W        W64608  10.945  16.289  19.163
60541W        W64609  12.056  16.704  20.736
60542W        W64610  13.260  15.968  19.114
60543W        W64611  13.137  16.458  19.218
60544W        W64612  11.480  15.878  20.692
60545W        W64613  11.465  15.754  21.614
60546W        W64614  11.355  14.671  19.773
60547W        W64615  13.123  15.018  20.334
60548W        W64616  12.771  15.203  21.497
60549W        W64617  13.126  15.352  18.675
60550W        W64618  14.309  17.745  21.429
60551W        W64619  13.276  14.826  21.468
60552W        W64620  14.295  17.127  21.590
60553W        W64621  13.725  15.294  21.186
60554W        W64622  13.525  15.232  19.456
60555W        W64623  13.918  16.366  21.860
60556W        W64624  11.658  17.942  19.846
60557W        W64625  12.316  15.659  18.832
60558W        W64626  11.885  14.943  21.496
60559W        W64627  13.937  15.427  19.177
60560W        W64628  14.304  15.909  19.122
60561W        W64629  12.047  18.126  21.593
60562W        W64630  11.973  14.662  18.828
60563W        W64631  14.294  15.196  19.863
60564W        W64632  14.444  17.445  18.308
60565W        W64633  11.351  16.648  20.010
60566W        W64634  14.402  17.567  19.960
60567W        W64635  14.441  14.761  20.710
60568W        W64636  12.886  15.973  21.264
60569W        W64637  12.979  17.312  18.967
60570W        W64638  13.379  16.606  21.707
60571W        W64639  13.053  14.583  20.016
60572W        W64640  11.665  15.486  20.079
60573W        W64641  11.219  16.686  20.853
60574W        W64642  13.078  17.879  19.559
60575W        W64643  14.272  15.476  20.431
60576W        W64644  12.909  17.823  21.198
60577W        W64645  14.252  16.882  18.403
60578W        W64646  12.687  16.365  19.464
60579W        W64647  14.539  14.876  21.205
60580W        W64648  12.688  16.711  20.799
60581W        W64649  12.905  15.597  20.244
60582W        W64650  13.757  15.895  19.082
60583W        W64651  14.044  15.628  18.724
60584W        W64652  13.853  17.668  19.113
60585W        W64653  13.687  17.271  19.909
60586W        W64654  13.583  16.350  18.887
60587W        W64655  13.016  16.560  19.873
60588W        W64656  13.897  16.348  19.940
60589W        W64657  11.272  15.363  20.364
60590W        W64658  14.050  16.415  21.191
60591W        W64659  14.401  18.033  20.337
60592W        W64660  12.331  17.477  19.739
60593W        W64661  13.338  18.010  21.063
60594W        W64662  13.332  15.340  20.827
60595W        W64663  12.539  18.048  20.888
60596W        W64664  14.236  15.002  19.354
60597W        W64665  14.027  16.321  20.655
60598W        W64666  11.010  15.642  20.693
60599W        W64667  13.870  15.437  19.711
60600W        W64668  14.281  15.588  21.488
60601W        W64669  13.166  17.287  19.706
60602W        W64670  12.422  17.878  19.319
60603W        W64671  11.537  15.058  18.577
60604W        W64672  12.641  14.712  20.387
60605W        W64673  11.669  17.832  18.235
60606W        W64674  12.043  16.298  18.986
60607W        W64675  12.697  16.927  21.299
60608W        W64676  12.527  15.285  19.289
60609W        W64677  13.883  14.882  19.717
60610W        W64678  13.603  18.164  20.045
60611W        W64679  13.015  17.812  20.385
60612W        W64680  12.411  16.849  20.346
60613W        W64681  14.181  17.572  20.472
60614W        W64682  11.875  15.075  19.241
60615W        W64683  12.397  17.372  20.201
60616W        W64684  11.880  15.303  18.266
60617W        W64685  12.681  15.912  20.660
60618W        W64686  13.529  14.778  20.530
60619W        W64687  10.949  16.621  20.415
60620W        W64688  12.653  16.439  18.573
60621W        W64689  11.921  14.754  18.343
60622W        W64690  12.659  15.835  19.394
60623W        W64691  13.629  14.811  21.093
60624W        W64692  12.217  16.823  21.202
60625W        W64693  13.021  16.605  21.419
60626W        W64694  13.638  16.635  21.312
60627W        W64695  12.922  14.775  21.817
60628W        W64696  12.144  15.391  20.210
60629W        W64697  11.570  15.347  19.608
60630W        W64698  11.356  18.059  19.284
60631W        W64699  12.688  17.389  21.409
60632W        W64700  11.723  16.874  18.768
60633W        W64701  13.403  16.259  19.989
60634W        W64702  13.683  16.058  20.388
60635W        W64703  12.888  16.732  20.322
60636W        W64704  13.358  17.106  18.454
60637W        W64705  13.030  15.127  19.782
60638W        W64706  14.509  15.405  19.050
60639W        W64707  11.003  17.994  21.081
60640W        W64708  11.420  17.220  20.613
60641W        W64709  10.987  18.066  18.845
60642W        W64710  12.886  15.336  20.651
60643W        W64711  12.249  17.359  18.500
60644W        W64712  14.154  17.741  18.686
60645W        W64713  13.129  16.394  18.700
60646W        W64714  11.972  15.585  19.217
60647W        W64715  12.804  15.495  18.269
60648W        W64716  13.388  17.060  21.447
60649W        W64717  13.741  14.966  19.064
60650W        W64718  11.071  14.814  18.512
60651W        W64719  12.357  17.133  20.802
60652W        W64720  12.156  17.049  19.894
60653W        W64721  11.898  17.001  18.292
60654W        W64722  11.139  17.242  19.060
60655W        W64723  11.643  16.312  21.502
60656W        W64724  12.347  14.872  21.688
60657W        W64725  13.056  15.014  21.044
60658W        W64726  12.251  14.782  19.325
60659W        W64727  11.255  14.791  20.407
60660W        W64728  11.303  15.754  19.777
60661W        W64729  13.992  14.862  20.183
60662W        W64730  11.414  15.360  18.997
60663W        W64731  13.985  15.048  20.613
60664W        W64732  14.381  16.251  18.298
60665W        W64733  11.673  15.009  20.117
60666W        W64734  12.787  15.581  21.057
60667W        W64735  10.935  15.271  18.535
60668W        W64736  11.721  16.660  21.096
60669W        W64737  13.079  16.058  20.275
60670W        W64738  12.946  18.137  18.571
60671W        W64739  11.092  16.644  18.268
60672W        W64740  11.827  17.055  21.394
60673W        W64741  11.348  16.222  21.025
60674W        W64742  12.339  16.327  20.819
60675W        W64743  14.107  14.686  21.081
60676W        W64744  14.505  16.296  21.072
60677W        W64745  14.493  16.496  18.758
60678W        W64746  13.356  16.828  18.857
60679W        W64747  13.830  18.128  18.552
60680W        W64748  13.007  16.118  21.694
60681W        W64749  11.337  17.085  21.734
60682W        W64750  14.543  15.007  21.686
60683W        W64751  14.261  15.935  20.307
60684W        W64752  12.569  18.065  21.784
60685W        W64753  12.424  14.694  18.511
60686W        W64754  13.963  17.293  18.454
60687W        W64755  11.732  15.386  21.340
60688W        W64756  12.166  17.380  21.202
60689W        W64757  14.292  15.371  21.000
60690W        W64758  13.503  18.030  18.968
60691W        W64759  13.742  16.649  20.335
60692W        W64760  11.992  15.065  21.002
60693W        W64761  12.461  16.134  21.759
60694W        W64762  11.964  17.313  18.953
60695W        W64763  13.719  16.811  19.217
60696W        W64764  11.487  15.437  20.941
60697W        W64765  12.816  17.499  19.405
60698W        W64766  14.566  16.059  19.586
60699W        W64767  12.788  14.692  21.305
60700W        W64768  13.568  17.397  20.384
60701W        W64769  13.871  17.741  20.092
60702W        W64770  13.090  17.543  18.520
60703W        W64771  11.100  17.435  21.362
60704W        W64772  11.843  15.427  20.600
60705W        W64773  11.813  14.775  19.710
60706W        W64774  13.434  15.617  20.402
60707W        W64775  12.232  16.788  18.602
60708W        W64776  14.230  16.730  20.101
60709W        W64777  11.557  17.488  21.524
60710W        W64778  13.944  18.170  19.321
60711W        W64779  12.043  15.190  19.766
60712W        W64780  11.812  16.683  19.856
60713W        W64781  12.125  18.094  20.606
60714W        W64782  14.192  18.190  21.638
60715W        W64783  13.351  16.378  20.571
60716W        W64784  11.200  16.176  18.486
60717W        W64785  14.334  17.834  19.183
60718W        W64786  14.171  15.158  18.802
60719W        W64787  12.310  14.677  21.205
60720W        W64788  14.016  17.479  19.663
60721W        W64789  14.045  16.035  19.568
60722W        W64790  12.162  15.708  19.784
60723W        W64791  12.407  15.970  21.108
60724W        W64792  13.518  17.123  20.971
60725W        W64793  12.168  15.577  21.083
60726W        W64794  12.147  18.043  19.699
60727W        W64795  11.464  18.002  21.333
60728W        W64796  11.576  17.363  18.463
60729W        W64797  14.093  17.121  19.273
60730W        W64798  11.697  15.913  21.159
60731W        W64799  14.470  15.843  18.640
60732W        W64800  12.215  16.900  19.111
60733W        W64801  13.314  16.282  21.192
60734W        W64802  13.205  15.910  20.736
60735W        W64803  11.765  16.282  20.765
60736W        W64804  13.975  18.170  20.594
60737W        W64805  13.766  14.804  21.588
60738W        W64806  11.430  14.954  21.175
60739W        W64807  11.769  15.977  20.228
60740W        W64808  12.138  15.791  18.350
60741W        W64809  10.941  17.550  20.895
60742W        W64810  12.526  16.259  20.338
60743W        W64811  12.349  15.284  18.443
60744W        W64812  11.484  16.100  19.224
60745W        W64813  11.255  17.952  20.661
60746W        W64814  14.050  16.178  18.769
60747W        W64815  14.145  15.094  21.455
60748W        W64816  13.581  17.303  19.418
60749W        W64817  11.179  16.227  21.595
60750W        W64818  14.145  14.691  18.891
60751W        W64819  13.665  17.166  18.902
60752W        W64820  12.567  16.224  18.987
60753W        W64821  13.754  15.028  18.510
60754W        W64822  13.819  15.635  20.696
60755W        W64823  11.528  16.228  19.903
60756W        W64824  11.822  17.167  19.552
60757W        W64825  13.585  15.787  19.517
60758W        W64826  12.608  15.166  20.213
60759W        W64827  14.570  17.077  20.724
60760W        W64828  14.488  15.064  20.285
60761W        W64829  11.027  17.894  19.661
60762W        W64830  11.536  17.081  19.197
60763W        W64831  11.451  14.698  21.750
60764W        W64832  12.570  17.551  21.852
60765W        W64833  14.325  16.519  19.642
60766W        W64834  13.679  16.696  18.522
60767W        W64835  12.974  18.217  20.734
60768W        W64836  13.831  16.939  21.771
60769W        W64837  13.359  15.518  19.910
60770W        W64838  11.045  17.105  20.242
60771W        W64839  12.298  15.067  18.883
60772W        W64840  12.102  16.551  21.732
60773W        W64841  13.096  15.532  19.446
60774W        W64842  13.301  16.942  20.568
60775W        W64843  11.455  17.547  21.003
60776W        W64844  12.046  17.530  21.726
60777W        W64845  11.897  15.327  18.740
60778W        W64846  13.414  15.469  19.065
60779W        W64847  13.372  17.577  21.302
60780W        W64848  12.057  16.169  19.901
60781W        W64849  11.712  17.867  20.766
60782W        W64850  14.457  17.984  18.367
60783W        W64851  11.320  16.656  21.363
60784W        W64852  13.315  16.918  20.051
60785W        W64853  11.751  16.567  19.293
60786W        W64854  12.122  17.574  20.688
60787W        W64855  12.500  14.993  19.729
60788W        W64856  11.111  16.977  18.659
60789W        W64857  12.630  15.928  18.529
60790W        W64858  11.276  16.477  19.548
60791W        W64859  12.566  15.119  21.012
60792W        W64860  14.238  14.828  18.439
60793W        W64861  14.331  16.574  21.538
60794W        W64862  12.985  17.831  21.690
60795W        W64863  14.543  16.925  21.212
60796W        W64864  13.951  17.723  21.823
60797W        W64865  11.690  18.179  20.301
60798W        W64866  14.549  16.801  19.175
60799W        W64867  13.079  16.068  19.688
60800W        W64868  12.846  14.680  19.578
60801W        W64869  11.905  17.664  19.415
60802W        W64870  12.404  15.405  20.640
60803W        W64871  12.104  14.774  20.109
60804W        W64872  11.167  17.596  18.657
60805W        W64873  12.983  16.960  19.375
60806W        W64874  11.858  17.755  21.254
60807W        W64875  11.335  16.578  18.950
60808W        W64876  11.220  15.121  19.949
60809W        W64877  12.768  17.086  20.006
60810W        W64878  11.020  14.940  19.026
60811W        W64879  13.684  16.146  20.953
60812W        W64880  13.561  15.532  18.525
60813W        W64881  14.078  17.204  20.173
60814W        W64882  12.739  17.688  20.004
60815W        W64883  12.151  17.792  18.915
60816W        W64884  13.433  14.695  18.345
60817W        W64885  11.233  17.955  20.086
60818W        W64886  13.430  15.713  21.721
60819W        W64887  11.413  15.243  21.720
60820W        W64888  11.144  15.843  19.053
60821W        W64889  11.835  15.832  18.778
60822W        W64890  13.598  16.159  21.595
60823W        W64891  11.941  16.440  20.304
60824W        W64892  12.546  18.157  19.927
60825W        W64893  13.760  17.619  20.864
60826W        W64894  13.344  17.768  19.975
60827W        W64895  13.363  16.748  19.569
60828W        W64896  12.825  14.973  18.640
60829W        W64897  14.506  14.601  19.362
60830W        W64898  12.194  16.236  18.525
60831W        W64899  14.360  15.573  19.515
60832W        W64900  13.052  16.743  18.392
60833W        W64901  13.988  16.943  21.140
60834W        W64902  13.642  17.644  18.607
60835W        W64903  12.257  15.319  21.513
60836W        W64904  12.077  15.903  20.754
60837W        W64905  14.169  17.398  21.031
60838W        W64906  13.269  15.348  21.408
60839W        W64907  11.113  15.819  21.185
60840W        W64908  12.873  16.296  20.911
60841W        W64909  11.230  17.054  19.568
60842W        W64910  11.377  16.351  20.458
60843W        W64911  13.694  16.637  20.808
60844W        W64912  13.466  18.017  21.619
60845W        W64913  13.362  15.756  21.172
60846W        W64914  13.639  17.810  19.577
60847W        W64915  12.641  17.530  20.900
60848W        W64916  12.126  17.885  20.169
60849W        W64917  13.931  17.056  20.588
60850W        W64918  12.981  17.128  21.725
60851W        W64919  11.586  17.081  20.064
60852W        W64920  13.932  16.840  19.709
60853W        W64921  13.573  17.906  20.460
60854W        W64922  11.551  17.635  20.330
60855W        W64923  12.572  15.687  21.540
60856W        W64924  13.023  17.853  19.051
60857W        W64925  12.331  17.108  21.689
60858W        W64926  12.457  17.346  19.066
60859W        W64927  11.678  16.086  18.325
60860W        W64928  14.098  16.795  22.518
60861W        W64929  12.146  17.871  22.071
60862W        W64930  12.229  16.023  23.054
60863W        W64931  11.744  15.871  23.218
60864W        W64932  12.735  16.686  22.652
60865W        W64933  13.164  15.878  22.229
60866W        W64934  12.721  17.113  22.198
60867W        W64935  11.417  14.952  23.033
60868W        W64936  14.105  15.346  21.984
60869W        W64937  14.311  17.320  22.481
60870W        W64938  11.440  18.106  22.235
60871W        W64939  11.833  18.152  22.911
60872W        W64940  13.658  16.346  23.071
60873W        W64941  13.624  16.034  22.098
60874W        W64942  14.109  16.386  22.853
60875W        W64943  13.011  15.044  22.869
60876W        W64944  11.668  17.738  22.552
60877W        W64945  12.624  17.811  22.410
60878W        W64946  14.016  15.837  21.874
60879W        W64947  12.203  16.527  23.137
60880W        W64948  11.673  16.566  21.995
60881W        W64949  11.328  15.599  22.174
60882W        W64950  11.390  17.555  22.968
60883W        W64951  12.521  17.038  23.216
60884W        W64952  12.779  15.539  22.614
60885W        W64953  10.945  16.289  22.808
60886W        W64954  13.260  15.968  22.759
60887W        W64955  13.137  16.458  22.863
60888W        W64956  13.126  15.352  22.320
60889W        W64957  13.525  15.232  23.101
60890W        W64958  12.316  15.659  22.477
60891W        W64959  13.937  15.427  22.822
60892W        W64960  14.304  15.909  22.767
60893W        W64961  11.973  14.662  22.473
60894W        W64962  14.444  17.445  21.953
60895W        W64963  13.268  15.235  21.885
60896W        W64964  12.979  17.312  22.612
60897W        W64965  13.078  17.879  23.204
60898W        W64966  14.252  16.882  22.048
60899W        W64967  12.687  16.365  23.109
60900W        W64968  13.757  15.895  22.727
60901W        W64969  14.044  15.628  22.369
60902W        W64970  13.853  17.668  22.758
60903W        W64971  13.583  16.350  22.532
60904W        W64972  14.236  15.002  22.999
60905W        W64973  12.422  17.878  22.964
60906W        W64974  11.537  15.058  22.222
60907W        W64975  11.669  17.832  21.880
60908W        W64976  12.043  16.298  22.631
60909W        W64977  12.527  15.285  22.934
60910W        W64978  11.875  15.075  22.886
60911W        W64979  11.880  15.303  21.911
60912W        W64980  12.653  16.439  22.218
60913W        W64981  11.921  14.754  21.988
60914W        W64982  12.659  15.835  23.039
60915W        W64983  11.570  15.347  23.253
60916W        W64984  11.356  18.059  22.929
60917W        W64985  11.723  16.874  22.413
60918W        W64986  13.358  17.106  22.099
60919W        W64987  14.509  15.405  22.695
60920W        W64988  10.987  18.066  22.490
60921W        W64989  12.249  17.359  22.145
60922W        W64990  14.154  17.741  22.331
60923W        W64991  13.129  16.394  22.345
60924W        W64992  11.972  15.585  22.862
60925W        W64993  12.804  15.495  21.914
60926W        W64994  13.741  14.966  22.709
60927W        W64995  11.071  14.814  22.157
60928W        W64996  11.898  17.001  21.937
60929W        W64997  11.139  17.242  22.705
60930W        W64998  12.251  14.782  22.970
60931W        W64999  13.310  14.859  22.475
60932W        W65000  11.414  15.360  22.642
60933W        W65001  14.381  16.251  21.943
60934W        W65002  10.935  15.271  22.180
60935W        W65003  12.946  18.137  22.216
60936W        W65004  11.092  16.644  21.913
60937W        W65005  14.493  16.496  22.403
60938W        W65006  13.356  16.828  22.502
60939W        W65007  13.830  18.128  22.197
60940W        W65008  12.424  14.694  22.156
60941W        W65009  13.963  17.293  22.099
60942W        W65010  13.503  18.030  22.613
60943W        W65011  11.964  17.313  22.598
60944W        W65012  13.719  16.811  22.862
60945W        W65013  12.816  17.499  23.050
60946W        W65014  14.566  16.059  23.231
60947W        W65015  13.090  17.543  22.165
60948W        W65016  12.232  16.788  22.247
60949W        W65017  13.944  18.170  22.966
60950W        W65018  11.200  16.176  22.131
60951W        W65019  14.334  17.834  22.828
60952W        W65020  14.171  15.158  22.447
60953W        W65021  14.045  16.035  23.213
60954W        W65022  11.576  17.363  22.108
60955W        W65023  14.093  17.121  22.918
60956W        W65024  14.470  15.843  22.285
60957W        W65025  12.215  16.900  22.756
60958W        W65026  12.138  15.791  21.995
60959W        W65027  12.349  15.284  22.088
60960W        W65028  11.484  16.100  22.869
60961W        W65029  14.050  16.178  22.414
60962W        W65030  13.581  17.303  23.063
60963W        W65031  14.145  14.691  22.536
60964W        W65032  13.665  17.166  22.547
60965W        W65033  12.567  16.224  22.632
60966W        W65034  13.754  15.028  22.155
60967W        W65035  11.822  17.167  23.197
60968W        W65036  13.585  15.787  23.162
60969W        W65037  11.027  17.894  23.306
60970W        W65038  11.536  17.081  22.842
60971W        W65039  14.325  16.519  23.287
60972W        W65040  13.679  16.696  22.167
60973W        W65041  12.646  14.649  22.696
60974W        W65042  12.298  15.067  22.528
60975W        W65043  13.096  15.532  23.091
60976W        W65044  11.897  15.327  22.385
60977W        W65045  13.414  15.469  22.710
60978W        W65046  14.457  17.984  22.012
60979W        W65047  11.111  16.977  22.304
60980W        W65048  12.630  15.928  22.174
60981W        W65049  11.276  16.477  23.193
60982W        W65050  14.238  14.828  22.084
60983W        W65051  14.549  16.801  22.820
60984W        W65052  12.846  14.680  23.223
60985W        W65053  11.905  17.664  23.060
60986W        W65054  11.167  17.596  22.302
60987W        W65055  12.983  16.960  23.020
60988W        W65056  11.335  16.578  22.595
60989W        W65057  11.020  14.940  22.671
60990W        W65058  13.561  15.532  22.170
60991W        W65059  12.151  17.792  22.560
60992W        W65060  13.433  14.695  21.990
60993W        W65061  11.144  15.843  22.698
60994W        W65062  11.835  15.832  22.423
60995W        W65063  13.363  16.748  23.214
60996W        W65064  12.825  14.973  22.285
60997W        W65065  14.506  14.601  23.007
60998W        W65066  12.194  16.236  22.170
60999W        W65067  14.360  15.573  23.160
61000W        W65068  13.052  16.743  22.037
61001W        W65069  13.642  17.644  22.252
61002W        W65070  11.230  17.054  23.213
61003W        W65071  13.639  17.810  23.222
61004W        W65072  13.023  17.853  22.696
61005W        W65073  12.457  17.346  22.711
61006W        W65074  11.678  16.086  21.970
61007W        W65075  11.017  21.816   3.359
61008W        W65076  11.393  20.709   2.882
61009W        W65077  14.098  20.439   0.652
61010W        W65078  14.228  21.524   2.679
61011W        W65079  12.146  21.515   0.205
61012W        W65080  12.229  19.667   1.188
61013W        W65081  11.744  19.515   1.352
61014W        W65082  12.735  20.330   0.786
61015W        W65083  12.410  21.422   3.141
61016W        W65084  11.059  18.983   3.104
61017W        W65085  11.821  18.263   2.906
61018W        W65086  13.515  18.651   1.793
61019W        W65087  13.164  19.522   0.363
61020W        W65088  13.734  18.956   3.454
61021W        W65089  11.100  18.748   2.579
61022W        W65090  11.199  21.367   3.600
61023W        W65091  12.721  20.757   0.332
61024W        W65092  11.153  19.540   2.025
61025W        W65093  12.046  19.431   3.262
61026W        W65094  14.505  19.290   1.761
61027W        W65095  14.269  20.333   2.620
61028W        W65096  12.577  19.666   1.647
61029W        W65097  13.123  21.005   2.016
61030W        W65098  11.623  20.439   2.248
61031W        W65099  10.982  19.967   1.819
61032W        W65100  12.018  19.939   3.011
61033W        W65101  14.289  19.722   3.265
61034W        W65102  11.905  21.166   1.710
61035W        W65103  13.026  20.855   2.844
61036W        W65104  12.246  19.495   2.069
61037W        W65105  12.538  20.279   1.712
61038W        W65106  13.535  21.052   3.560
61039W        W65107  12.614  20.372   3.570
61040W        W65108  12.595  20.088   3.048
61041W        W65109  11.004  19.479   3.570
61042W        W65110  13.836  21.014   3.169
61043W        W65111  11.417  18.596   1.167
61044W        W65112  11.944  20.854   2.166
61045W        W65113  14.407  20.637   1.456
61046W        W65114  13.820  19.037   2.023
61047W        W65115  14.105  18.990   0.118
61048W        W65116  14.570  19.791   2.424
61049W        W65117  12.537  21.498   2.177
61050W        W65118  14.311  20.964   0.615
61051W        W65119  11.440  21.750   0.369
61052W        W65120  11.833  21.796   1.045
61053W        W65121  11.630  18.550   2.471
61054W        W65122  14.253  19.568   2.746
61055W        W65123  13.658  19.990   1.205
61056W        W65124  13.624  19.678   0.232
61057W        W65125  12.832  20.822   2.372
61058W        W65126  12.638  19.152   1.571
61059W        W65127  13.238  21.239   2.565
61060W        W65128  14.109  20.030   0.987
61061W        W65129  13.011  18.688   1.003
61062W        W65130  11.668  21.382   0.686
61063W        W65131  11.039  18.881   1.285
61064W        W65132  13.825  19.488   1.759
61065W        W65133  11.283  21.105   1.674
61066W        W65134  12.624  21.455   0.544
61067W        W65135  14.016  19.481   0.008
61068W        W65136  11.039  21.239   2.172
61069W        W65137  11.830  20.811   2.652
61070W        W65138  12.203  20.171   1.271
61071W        W65139  12.225  18.576   2.364
61072W        W65140  14.454  18.338   1.661
61073W        W65141  11.673  20.210   0.129
61074W        W65142  11.328  19.243   0.308
61075W        W65143  11.390  21.199   1.102
61076W        W65144  12.521  20.682   1.350
61077W        W65145  13.853  21.541   3.064
61078W        W65146  12.779  19.183   0.748
61079W        W65147  14.162  21.581   1.520
61080W        W65148  13.839  19.434   3.118
61081W        W65149  14.552  21.090   1.252
61082W        W65150  13.179  20.382   2.736
61083W        W65151  10.945  19.933   0.942
61084W        W65152  12.056  20.348   2.515
61085W        W65153  13.260  19.612   0.893
61086W        W65154  13.137  20.102   0.997
61087W        W65155  11.480  19.522   2.471
61088W        W65156  11.465  19.398   3.393
61089W        W65157  11.355  18.315   1.552
61090W        W65158  13.123  18.662   2.113
61091W        W65159  12.771  18.847   3.276
61092W        W65160  13.126  18.996   0.454
61093W        W65161  14.309  21.389   3.208
61094W        W65162  13.276  18.470   3.247
61095W        W65163  14.295  20.771   3.369
61096W        W65164  13.725  18.938   2.965
61097W        W65165  13.525  18.876   1.235
61098W        W65166  13.918  20.010   3.639
61099W        W65167  11.658  21.586   1.625
61100W        W65168  12.316  19.303   0.611
61101W        W65169  11.885  18.587   3.275
61102W        W65170  13.937  19.071   0.956
61103W        W65171  14.304  19.553   0.901
61104W        W65172  12.047  21.770   3.372
61105W        W65173  11.973  18.306   0.607
61106W        W65174  14.294  18.840   1.642
61107W        W65175  14.444  21.089   0.087
61108W        W65176  11.351  20.292   1.789
61109W        W65177  13.268  18.879   0.019
61110W        W65178  14.402  21.211   1.739
61111W        W65179  14.441  18.405   2.489
61112W        W65180  12.886  19.617   3.043
61113W        W65181  12.979  20.956   0.746
61114W        W65182  13.379  20.250   3.486
61115W        W65183  13.053  18.227   1.795
61116W        W65184  11.665  19.130   1.858
61117W        W65185  11.219  20.330   2.632
61118W        W65186  13.078  21.523   1.338
61119W        W65187  14.272  19.120   2.210
61120W        W65188  12.909  21.467   2.977
61121W        W65189  14.252  20.526   0.182
61122W        W65190  12.687  20.009   1.243
61123W        W65191  14.539  18.520   2.984
61124W        W65192  12.688  20.355   2.578
61125W        W65193  12.905  19.241   2.023
61126W        W65194  13.757  19.539   0.861
61127W        W65195  14.044  19.272   0.503
61128W        W65196  13.853  21.312   0.892
61129W        W65197  13.687  20.915   1.688
61130W        W65198  13.583  19.994   0.666
61131W        W65199  13.016  20.204   1.652
61132W        W65200  13.897  19.992   1.719
61133W        W65201  11.272  19.007   2.143
61134W        W65202  14.050  20.059   2.970
61135W        W65203  14.401  21.677   2.116
61136W        W65204  12.331  21.121   1.518
61137W        W65205  13.338  21.654   2.842
61138W        W65206  13.332  18.984   2.606
61139W        W65207  12.539  21.692   2.667
61140W        W65208  14.236  18.646   1.133
61141W        W65209  14.027  19.965   2.434
61142W        W65210  11.010  19.286   2.472
61143W        W65211  13.870  19.081   1.490
61144W        W65212  14.281  19.232   3.267
61145W        W65213  13.166  20.931   1.485
61146W        W65214  12.422  21.522   1.098
61147W        W65215  11.537  18.702   0.356
61148W        W65216  12.641  18.356   2.166
61149W        W65217  11.669  21.476   0.014
61150W        W65218  12.043  19.942   0.765
61151W        W65219  12.697  20.571   3.078
61152W        W65220  12.527  18.929   1.068
61153W        W65221  13.883  18.526   1.496
61154W        W65222  13.603  21.808   1.824
61155W        W65223  13.015  21.456   2.164
61156W        W65224  12.411  20.493   2.125
61157W        W65225  14.181  21.216   2.251
61158W        W65226  11.875  18.719   1.020
61159W        W65227  12.397  21.016   1.980
61160W        W65228  11.880  18.947   0.045
61161W        W65229  12.681  19.556   2.439
61162W        W65230  13.529  18.422   2.309
61163W        W65231  10.949  20.265   2.194
61164W        W65232  12.653  20.083   0.352
61165W        W65233  11.921  18.398   0.122
61166W        W65234  12.659  19.479   1.173
61167W        W65235  13.629  18.455   2.872
61168W        W65236  12.217  20.467   2.981
61169W        W65237  13.021  20.249   3.198
61170W        W65238  13.638  20.279   3.091
61171W        W65239  12.922  18.419   3.596
61172W        W65240  12.144  19.035   1.989
61173W        W65241  11.570  18.991   1.387
61174W        W65242  11.356  21.703   1.063
61175W        W65243  12.688  21.033   3.188
61176W        W65244  11.723  20.518   0.547
61177W        W65245  13.403  19.903   1.768
61178W        W65246  13.683  19.702   2.167
61179W        W65247  12.888  20.376   2.101
61180W        W65248  13.358  20.750   0.233
61181W        W65249  13.030  18.771   1.561
61182W        W65250  14.509  19.049   0.829
61183W        W65251  11.003  21.638   2.860
61184W        W65252  11.420  20.864   2.392
61185W        W65253  10.987  21.710   0.624
61186W        W65254  12.886  18.980   2.430
61187W        W65255  12.249  21.003   0.279
61188W        W65256  14.154  21.385   0.465
61189W        W65257  13.129  20.038   0.479
61190W        W65258  11.972  19.229   0.996
61191W        W65259  12.804  19.139   0.048
61192W        W65260  13.388  20.704   3.226
61193W        W65261  13.741  18.610   0.843
61194W        W65262  11.071  18.458   0.291
61195W        W65263  12.357  20.777   2.581
61196W        W65264  12.156  20.693   1.673
61197W        W65265  11.898  20.645   0.071
61198W        W65266  11.139  20.886   0.839
61199W        W65267  11.643  19.956   3.281
61200W        W65268  12.347  18.516   3.467
61201W        W65269  13.056  18.658   2.823
61202W        W65270  12.251  18.426   1.104
61203W        W65271  13.310  18.503   0.609
61204W        W65272  11.255  18.435   2.186
61205W        W65273  11.303  19.398   1.556
61206W        W65274  13.992  18.506   1.962
61207W        W65275  11.414  19.004   0.776
61208W        W65276  13.985  18.692   2.392
61209W        W65277  14.381  19.895   0.077
61210W        W65278  11.673  18.653   1.896
61211W        W65279  12.787  19.225   2.836
61212W        W65280  10.935  18.915   0.314
61213W        W65281  11.721  20.304   2.875
61214W        W65282  13.079  19.702   2.054
61215W        W65283  12.946  21.781   0.350
61216W        W65284  11.092  20.288   0.047
61217W        W65285  11.827  20.699   3.173
61218W        W65286  11.348  19.866   2.804
61219W        W65287  12.339  19.971   2.598
61220W        W65288  14.107  18.330   2.860
61221W        W65289  14.505  19.940   2.851
61222W        W65290  14.493  20.140   0.537
61223W        W65291  13.356  20.472   0.636
61224W        W65292  13.830  21.772   0.331
61225W        W65293  13.007  19.762   3.473
61226W        W65294  11.337  20.729   3.513
61227W        W65295  14.543  18.651   3.465
61228W        W65296  14.261  19.579   2.086
61229W        W65297  12.569  21.709   3.563
61230W        W65298  12.424  18.338   0.290
61231W        W65299  13.963  20.937   0.233
61232W        W65300  11.732  19.030   3.119
61233W        W65301  12.166  21.024   2.981
61234W        W65302  14.292  19.015   2.779
61235W        W65303  13.503  21.674   0.747
61236W        W65304  13.742  20.293   2.114
61237W        W65305  11.992  18.709   2.781
61238W        W65306  12.461  19.778   3.538
61239W        W65307  11.964  20.957   0.732
61240W        W65308  13.719  20.455   0.996
61241W        W65309  11.487  19.081   2.720
61242W        W65310  12.816  21.143   1.184
61243W        W65311  14.566  19.703   1.365
61244W        W65312  12.788  18.336   3.084
61245W        W65313  13.568  21.041   2.163
61246W        W65314  13.871  21.385   1.871
61247W        W65315  13.090  21.187   0.299
61248W        W65316  11.100  21.079   3.141
61249W        W65317  11.843  19.071   2.379
61250W        W65318  11.813  18.419   1.489
61251W        W65319  13.434  19.261   2.181
61252W        W65320  12.232  20.432   0.381
61253W        W65321  14.230  20.374   1.880
61254W        W65322  11.557  21.132   3.303
61255W        W65323  13.944  21.814   1.100
61256W        W65324  12.043  18.834   1.545
61257W        W65325  11.812  20.327   1.635
61258W        W65326  12.125  21.738   2.385
61259W        W65327  14.192  21.834   3.417
61260W        W65328  13.351  20.022   2.350
61261W        W65329  11.200  19.820   0.265
61262W        W65330  14.334  21.478   0.962
61263W        W65331  14.171  18.802   0.581
61264W        W65332  12.310  18.321   2.984
61265W        W65333  14.016  21.123   1.442
61266W        W65334  14.045  19.679   1.347
61267W        W65335  12.162  19.352   1.563
61268W        W65336  12.407  19.614   2.887
61269W        W65337  13.518  20.767   2.750
61270W        W65338  12.168  19.221   2.862
61271W        W65339  12.147  21.687   1.478
61272W        W65340  11.464  21.646   3.112
61273W        W65341  11.576  21.007   0.242
61274W        W65342  14.093  20.765   1.052
61275W        W65343  11.697  19.557   2.938
61276W        W65344  14.470  19.487   0.419
61277W        W65345  12.215  20.544   0.890
61278W        W65346  13.314  19.926   2.971
61279W        W65347  13.205  19.554   2.515
61280W        W65348  11.765  19.926   2.544
61281W        W65349  13.975  21.814   2.373
61282W        W65350  13.766  18.448   3.367
61283W        W65351  11.430  18.598   2.954
61284W        W65352  11.769  19.621   2.007
61285W        W65353  12.138  19.435   0.129
61286W        W65354  10.941  21.194   2.674
61287W        W65355  12.526  19.903   2.117
61288W        W65356  12.349  18.928   0.222
61289W        W65357  11.484  19.744   1.003
61290W        W65358  11.255  21.596   2.440
61291W        W65359  14.050  19.822   0.548
61292W        W65360  14.145  18.738   3.234
61293W        W65361  13.581  20.947   1.197
61294W        W65362  11.179  19.871   3.374
61295W        W65363  14.145  18.335   0.670
61296W        W65364  13.665  20.810   0.681
61297W        W65365  12.567  19.868   0.766
61298W        W65366  13.754  18.672   0.289
61299W        W65367  13.819  19.279   2.475
61300W        W65368  11.528  19.872   1.682
61301W        W65369  11.822  20.811   1.331
61302W        W65370  13.585  19.431   1.296
61303W        W65371  12.608  18.810   1.992
61304W        W65372  14.570  20.721   2.503
61305W        W65373  14.488  18.708   2.064
61306W        W65374  11.027  21.538   1.440
61307W        W65375  11.536  20.725   0.976
61308W        W65376  11.451  18.342   3.529
61309W        W65377  12.570  21.195   3.631
61310W        W65378  14.325  20.163   1.421
61311W        W65379  13.679  20.340   0.301
61312W        W65380  12.974  21.861   2.513
61313W        W65381  13.831  20.583   3.550
61314W        W65382  12.646  18.293   0.830
61315W        W65383  13.359  19.162   1.689
61316W        W65384  11.045  20.749   2.021
61317W        W65385  12.298  18.711   0.662
61318W        W65386  12.102  20.195   3.511
61319W        W65387  13.096  19.176   1.225
61320W        W65388  13.301  20.586   2.347
61321W        W65389  11.455  21.191   2.782
61322W        W65390  12.046  21.174   3.505
61323W        W65391  11.897  18.971   0.519
61324W        W65392  13.414  19.113   0.844
61325W        W65393  13.372  21.221   3.081
61326W        W65394  12.057  19.813   1.680
61327W        W65395  11.712  21.511   2.545
61328W        W65396  14.457  21.628   0.146
61329W        W65397  11.320  20.300   3.142
61330W        W65398  13.315  20.562   1.830
61331W        W65399  11.751  20.211   1.072
61332W        W65400  12.122  21.218   2.467
61333W        W65401  12.500  18.637   1.508
61334W        W65402  11.111  20.621   0.438
61335W        W65403  12.630  19.572   0.308
61336W        W65404  11.276  20.121   1.327
61337W        W65405  12.566  18.763   2.791
61338W        W65406  14.238  18.472   0.218
61339W        W65407  14.331  20.218   3.317
61340W        W65408  12.985  21.475   3.469
61341W        W65409  14.543  20.569   2.991
61342W        W65410  13.951  21.367   3.602
61343W        W65411  11.690  21.823   2.080
61344W        W65412  14.549  20.445   0.954
61345W        W65413  13.079  19.712   1.467
61346W        W65414  12.846  18.324   1.357
61347W        W65415  11.905  21.308   1.194
61348W        W65416  12.404  19.049   2.419
61349W        W65417  12.104  18.418   1.888
61350W        W65418  11.167  21.240   0.436
61351W        W65419  12.983  20.604   1.154
61352W        W65420  11.858  21.399   3.033
61353W        W65421  11.335  20.222   0.729
61354W        W65422  11.220  18.765   1.728
61355W        W65423  12.768  20.730   1.785
61356W        W65424  11.020  18.584   0.805
61357W        W65425  13.684  19.790   2.732
61358W        W65426  13.561  19.176   0.304
61359W        W65427  14.078  20.848   1.952
61360W        W65428  12.739  21.332   1.783
61361W        W65429  12.151  21.436   0.694
61362W        W65430  13.433  18.339   0.124
61363W        W65431  11.233  21.599   1.865
61364W        W65432  13.430  19.357   3.500
61365W        W65433  11.413  18.887   3.499
61366W        W65434  11.144  19.487   0.832
61367W        W65435  11.835  19.476   0.557
61368W        W65436  13.598  19.803   3.374
61369W        W65437  11.941  20.084   2.083
61370W        W65438  13.415  18.370   1.203
61371W        W65439  12.546  21.801   1.706
61372W        W65440  13.760  21.263   2.643
61373W        W65441  13.344  21.412   1.754
61374W        W65442  13.363  20.392   1.348
61375W        W65443  12.825  18.617   0.419
61376W        W65444  14.506  18.245   1.141
61377W        W65445  12.194  19.880   0.304
61378W        W65446  14.360  19.217   1.294
61379W        W65447  13.052  20.387   0.171
61380W        W65448  13.988  20.587   2.919
61381W        W65449  13.642  21.288   0.386
61382W        W65450  12.257  18.963   3.292
61383W        W65451  12.077  19.547   2.533
61384W        W65452  14.169  21.042   2.810
61385W        W65453  13.269  18.992   3.187
61386W        W65454  11.113  19.463   2.964
61387W        W65455  12.873  19.940   2.690
61388W        W65456  11.230  20.698   1.347
61389W        W65457  11.377  19.995   2.237
61390W        W65458  13.694  20.281   2.587
61391W        W65459  13.466  21.661   3.398
61392W        W65460  13.362  19.400   2.951
61393W        W65461  13.639  21.454   1.356
61394W        W65462  12.641  21.174   2.679
61395W        W65463  12.126  21.529   1.948
61396W        W65464  13.931  20.700   2.367
61397W        W65465  12.981  20.772   3.504
61398W        W65466  11.586  20.725   1.843
61399W        W65467  13.932  20.484   1.488
61400W        W65468  13.573  21.550   2.239
61401W        W65469  11.551  21.279   2.109
61402W        W65470  12.572  19.331   3.319
61403W        W65471  13.023  21.497   0.830
61404W        W65472  12.331  20.752   3.468
61405W        W65473  12.457  20.990   0.845
61406W        W65474  11.678  19.730   0.104
61407W        W65475  11.017  21.816   7.003
61408W        W65476  11.393  20.709   6.526
61409W        W65477  14.098  20.439   4.296
61410W        W65478  14.228  21.524   6.323
61411W        W65479  12.146  21.515   3.849
61412W        W65480  12.229  19.667   4.832
61413W        W65481  11.744  19.515   4.996
61414W        W65482  12.735  20.330   4.430
61415W        W65483  12.410  21.422   6.785
61416W        W65484  11.059  18.983   6.748
61417W        W65485  11.821  18.263   6.550
61418W        W65486  13.515  18.651   5.437
61419W        W65487  13.164  19.522   4.007
61420W        W65488  13.734  18.956   7.098
61421W        W65489  11.100  18.748   6.223
61422W        W65490  11.199  21.367   7.244
61423W        W65491  12.721  20.757   3.976
61424W        W65492  11.153  19.540   5.669
61425W        W65493  12.046  19.431   6.906
61426W        W65494  14.505  19.290   5.405
61427W        W65495  14.269  20.333   6.264
61428W        W65496  12.577  19.666   5.291
61429W        W65497  13.123  21.005   5.660
61430W        W65498  11.623  20.439   5.892
61431W        W65499  10.982  19.967   5.463
61432W        W65500  12.018  19.939   6.655
61433W        W65501  14.289  19.722   6.909
61434W        W65502  11.905  21.166   5.354
61435W        W65503  13.026  20.855   6.488
61436W        W65504  12.246  19.495   5.713
61437W        W65505  12.538  20.279   5.356
61438W        W65506  13.535  21.052   7.204
61439W        W65507  12.614  20.372   7.214
61440W        W65508  12.595  20.088   6.692
61441W        W65509  11.004  19.479   7.214
61442W        W65510  13.836  21.014   6.813
61443W        W65511  11.417  18.596   4.811
61444W        W65512  11.944  20.854   5.810
61445W        W65513  14.407  20.637   5.100
61446W        W65514  13.820  19.037   5.667
61447W        W65515  14.105  18.990   3.762
61448W        W65516  14.570  19.791   6.068
61449W        W65517  12.537  21.498   5.821
61450W        W65518  14.311  20.964   4.259
61451W        W65519  11.440  21.750   4.013
61452W        W65520  11.833  21.796   4.689
61453W        W65521  11.630  18.550   6.115
61454W        W65522  14.253  19.568   6.390
61455W        W65523  13.658  19.990   4.849
61456W        W65524  13.624  19.678   3.876
61457W        W65525  12.832  20.822   6.016
61458W        W65526  12.638  19.152   5.215
61459W        W65527  13.238  21.239   6.209
61460W        W65528  14.109  20.030   4.631
61461W        W65529  13.011  18.688   4.647
61462W        W65530  11.668  21.382   4.330
61463W        W65531  11.039  18.881   4.929
61464W        W65532  13.825  19.488   5.403
61465W        W65533  11.283  21.105   5.318
61466W        W65534  12.624  21.455   4.188
61467W        W65535  14.016  19.481   3.652
61468W        W65536  11.039  21.239   5.816
61469W        W65537  11.830  20.811   6.296
61470W        W65538  12.203  20.171   4.915
61471W        W65539  12.225  18.576   6.008
61472W        W65540  14.454  18.338   5.305
61473W        W65541  11.673  20.210   3.773
61474W        W65542  11.328  19.243   3.952
61475W        W65543  11.390  21.199   4.746
61476W        W65544  12.521  20.682   4.994
61477W        W65545  13.853  21.541   6.708
61478W        W65546  12.779  19.183   4.392
61479W        W65547  14.162  21.581   5.164
61480W        W65548  13.839  19.434   6.762
61481W        W65549  14.552  21.090   4.896
61482W        W65550  13.179  20.382   6.380
61483W        W65551  10.945  19.933   4.586
61484W        W65552  12.056  20.348   6.159
61485W        W65553  13.260  19.612   4.537
61486W        W65554  13.137  20.102   4.641
61487W        W65555  11.480  19.522   6.115
61488W        W65556  11.465  19.398   7.037
61489W        W65557  11.355  18.315   5.196
61490W        W65558  13.123  18.662   5.757
61491W        W65559  12.771  18.847   6.920
61492W        W65560  13.126  18.996   4.098
61493W        W65561  14.309  21.389   6.852
61494W        W65562  13.276  18.470   6.891
61495W        W65563  14.295  20.771   7.013
61496W        W65564  13.725  18.938   6.609
61497W        W65565  13.525  18.876   4.879
61498W        W65566  13.918  20.010   7.283
61499W        W65567  11.658  21.586   5.269
61500W        W65568  12.316  19.303   4.255
61501W        W65569  11.885  18.587   6.919
61502W        W65570  13.937  19.071   4.600
61503W        W65571  14.304  19.553   4.545
61504W        W65572  12.047  21.770   7.016
61505W        W65573  11.973  18.306   4.251
61506W        W65574  14.294  18.840   5.286
61507W        W65575  14.444  21.089   3.731
61508W        W65576  11.351  20.292   5.433
61509W        W65577  13.268  18.879   3.663
61510W        W65578  14.402  21.211   5.383
61511W        W65579  14.441  18.405   6.133
61512W        W65580  12.886  19.617   6.687
61513W        W65581  12.979  20.956   4.390
61514W        W65582  13.379  20.250   7.130
61515W        W65583  13.053  18.227   5.439
61516W        W65584  11.665  19.130   5.502
61517W        W65585  11.219  20.330   6.276
61518W        W65586  13.078  21.523   4.982
61519W        W65587  14.272  19.120   5.854
61520W        W65588  12.909  21.467   6.621
61521W        W65589  14.252  20.526   3.826
61522W        W65590  12.687  20.009   4.887
61523W        W65591  14.539  18.520   6.628
61524W        W65592  12.688  20.355   6.222
61525W        W65593  12.905  19.241   5.667
61526W        W65594  13.757  19.539   4.505
61527W        W65595  14.044  19.272   4.147
61528W        W65596  13.853  21.312   4.536
61529W        W65597  13.687  20.915   5.332
61530W        W65598  13.583  19.994   4.310
61531W        W65599  13.016  20.204   5.296
61532W        W65600  13.897  19.992   5.363
61533W        W65601  11.272  19.007   5.787
61534W        W65602  14.050  20.059   6.614
61535W        W65603  14.401  21.677   5.760
61536W        W65604  12.331  21.121   5.162
61537W        W65605  13.338  21.654   6.486
61538W        W65606  13.332  18.984   6.250
61539W        W65607  12.539  21.692   6.311
61540W        W65608  14.236  18.646   4.777
61541W        W65609  14.027  19.965   6.078
61542W        W65610  11.010  19.286   6.116
61543W        W65611  13.870  19.081   5.134
61544W        W65612  14.281  19.232   6.911
61545W        W65613  13.166  20.931   5.129
61546W        W65614  12.422  21.522   4.742
61547W        W65615  11.537  18.702   4.000
61548W        W65616  12.641  18.356   5.810
61549W        W65617  11.669  21.476   3.658
61550W        W65618  12.043  19.942   4.409
61551W        W65619  12.697  20.571   6.722
61552W        W65620  12.527  18.929   4.712
61553W        W65621  13.883  18.526   5.140
61554W        W65622  13.603  21.808   5.468
61555W        W65623  13.015  21.456   5.808
61556W        W65624  12.411  20.493   5.769
61557W        W65625  14.181  21.216   5.895
61558W        W65626  11.875  18.719   4.664
61559W        W65627  12.397  21.016   5.624
61560W        W65628  11.880  18.947   3.689
61561W        W65629  12.681  19.556   6.083
61562W        W65630  13.529  18.422   5.953
61563W        W65631  10.949  20.265   5.838
61564W        W65632  12.653  20.083   3.996
61565W        W65633  11.921  18.398   3.766
61566W        W65634  12.659  19.479   4.817
61567W        W65635  13.629  18.455   6.516
61568W        W65636  12.217  20.467   6.625
61569W        W65637  13.021  20.249   6.842
61570W        W65638  13.638  20.279   6.735
61571W        W65639  12.922  18.419   7.240
61572W        W65640  12.144  19.035   5.633
61573W        W65641  11.570  18.991   5.031
61574W        W65642  11.356  21.703   4.707
61575W        W65643  12.688  21.033   6.832
61576W        W65644  11.723  20.518   4.191
61577W        W65645  13.403  19.903   5.412
61578W        W65646  13.683  19.702   5.811
61579W        W65647  12.888  20.376   5.745
61580W        W65648  13.358  20.750   3.877
61581W        W65649  13.030  18.771   5.205
61582W        W65650  14.509  19.049   4.473
61583W        W65651  11.003  21.638   6.504
61584W        W65652  11.420  20.864   6.036
61585W        W65653  10.987  21.710   4.268
61586W        W65654  12.886  18.980   6.074
61587W        W65655  12.249  21.003   3.923
61588W        W65656  14.154  21.385   4.109
61589W        W65657  13.129  20.038   4.123
61590W        W65658  11.972  19.229   4.640
61591W        W65659  12.804  19.139   3.692
61592W        W65660  13.388  20.704   6.870
61593W        W65661  13.741  18.610   4.487
61594W        W65662  11.071  18.458   3.935
61595W        W65663  12.357  20.777   6.225
61596W        W65664  12.156  20.693   5.317
61597W        W65665  11.898  20.645   3.715
61598W        W65666  11.139  20.886   4.483
61599W        W65667  11.643  19.956   6.925
61600W        W65668  12.347  18.516   7.111
61601W        W65669  13.056  18.658   6.467
61602W        W65670  12.251  18.426   4.748
61603W        W65671  13.310  18.503   4.253
61604W        W65672  11.255  18.435   5.830
61605W        W65673  11.303  19.398   5.200
61606W        W65674  13.992  18.506   5.606
61607W        W65675  11.414  19.004   4.420
61608W        W65676  13.985  18.692   6.036
61609W        W65677  14.381  19.895   3.721
61610W        W65678  11.673  18.653   5.540
61611W        W65679  12.787  19.225   6.480
61612W        W65680  10.935  18.915   3.958
61613W        W65681  11.721  20.304   6.519
61614W        W65682  13.079  19.702   5.698
61615W        W65683  12.946  21.781   3.994
61616W        W65684  11.092  20.288   3.691
61617W        W65685  11.827  20.699   6.817
61618W        W65686  11.348  19.866   6.448
61619W        W65687  12.339  19.971   6.242
61620W        W65688  14.107  18.330   6.504
61621W        W65689  14.505  19.940   6.495
61622W        W65690  14.493  20.140   4.181
61623W        W65691  13.356  20.472   4.280
61624W        W65692  13.830  21.772   3.975
61625W        W65693  13.007  19.762   7.117
61626W        W65694  11.337  20.729   7.157
61627W        W65695  14.261  19.579   5.730
61628W        W65696  12.569  21.709   7.207
61629W        W65697  12.424  18.338   3.934
61630W        W65698  13.963  20.937   3.877
61631W        W65699  11.732  19.030   6.763
61632W        W65700  12.166  21.024   6.625
61633W        W65701  14.292  19.015   6.423
61634W        W65702  13.503  21.674   4.391
61635W        W65703  13.742  20.293   5.758
61636W        W65704  11.992  18.709   6.425
61637W        W65705  12.461  19.778   7.182
61638W        W65706  11.964  20.957   4.376
61639W        W65707  13.719  20.455   4.640
61640W        W65708  11.487  19.081   6.364
61641W        W65709  12.816  21.143   4.828
61642W        W65710  14.566  19.703   5.009
61643W        W65711  12.788  18.336   6.728
61644W        W65712  13.568  21.041   5.807
61645W        W65713  13.871  21.385   5.515
61646W        W65714  13.090  21.187   3.943
61647W        W65715  11.100  21.079   6.785
61648W        W65716  11.843  19.071   6.023
61649W        W65717  11.813  18.419   5.133
61650W        W65718  13.434  19.261   5.825
61651W        W65719  12.232  20.432   4.025
61652W        W65720  14.230  20.374   5.524
61653W        W65721  11.557  21.132   6.947
61654W        W65722  13.944  21.814   4.744
61655W        W65723  12.043  18.834   5.189
61656W        W65724  11.812  20.327   5.279
61657W        W65725  12.125  21.738   6.029
61658W        W65726  14.192  21.834   7.061
61659W        W65727  13.351  20.022   5.994
61660W        W65728  11.200  19.820   3.909
61661W        W65729  14.334  21.478   4.606
61662W        W65730  14.171  18.802   4.225
61663W        W65731  12.310  18.321   6.628
61664W        W65732  14.016  21.123   5.086
61665W        W65733  14.045  19.679   4.991
61666W        W65734  12.162  19.352   5.207
61667W        W65735  12.407  19.614   6.531
61668W        W65736  13.518  20.767   6.394
61669W        W65737  12.168  19.221   6.506
61670W        W65738  12.147  21.687   5.122
61671W        W65739  11.464  21.646   6.756
61672W        W65740  11.576  21.007   3.886
61673W        W65741  14.093  20.765   4.696
61674W        W65742  11.697  19.557   6.582
61675W        W65743  14.470  19.487   4.063
61676W        W65744  12.215  20.544   4.534
61677W        W65745  13.314  19.926   6.615
61678W        W65746  13.205  19.554   6.159
61679W        W65747  11.765  19.926   6.188
61680W        W65748  13.975  21.814   6.017
61681W        W65749  13.766  18.448   7.011
61682W        W65750  11.430  18.598   6.598
61683W        W65751  11.769  19.621   5.651
61684W        W65752  12.138  19.435   3.773
61685W        W65753  10.941  21.194   6.318
61686W        W65754  12.526  19.903   5.761
61687W        W65755  12.349  18.928   3.866
61688W        W65756  11.484  19.744   4.647
61689W        W65757  11.255  21.596   6.084
61690W        W65758  14.050  19.822   4.192
61691W        W65759  14.145  18.738   6.878
61692W        W65760  13.581  20.947   4.841
61693W        W65761  11.179  19.871   7.018
61694W        W65762  14.145  18.335   4.314
61695W        W65763  13.665  20.810   4.325
61696W        W65764  12.567  19.868   4.410
61697W        W65765  13.754  18.672   3.933
61698W        W65766  13.819  19.279   6.119
61699W        W65767  11.528  19.872   5.326
61700W        W65768  11.822  20.811   4.975
61701W        W65769  13.585  19.431   4.940
61702W        W65770  12.608  18.810   5.636
61703W        W65771  14.570  20.721   6.147
61704W        W65772  14.488  18.708   5.708
61705W        W65773  11.027  21.538   5.084
61706W        W65774  11.536  20.725   4.620
61707W        W65775  11.451  18.342   7.173
61708W        W65776  12.570  21.195   7.275
61709W        W65777  14.325  20.163   5.065
61710W        W65778  13.679  20.340   3.945
61711W        W65779  12.974  21.861   6.157
61712W        W65780  13.831  20.583   7.194
61713W        W65781  12.646  18.293   4.474
61714W        W65782  13.359  19.162   5.333
61715W        W65783  11.045  20.749   5.665
61716W        W65784  12.298  18.711   4.306
61717W        W65785  12.102  20.195   7.155
61718W        W65786  13.096  19.176   4.869
61719W        W65787  13.301  20.586   5.991
61720W        W65788  11.455  21.191   6.426
61721W        W65789  12.046  21.174   7.149
61722W        W65790  11.897  18.971   4.163
61723W        W65791  13.414  19.113   4.488
61724W        W65792  13.372  21.221   6.725
61725W        W65793  12.057  19.813   5.324
61726W        W65794  11.712  21.511   6.189
61727W        W65795  14.457  21.628   3.790
61728W        W65796  11.320  20.300   6.786
61729W        W65797  13.315  20.562   5.474
61730W        W65798  11.751  20.211   4.716
61731W        W65799  12.122  21.218   6.111
61732W        W65800  12.500  18.637   5.152
61733W        W65801  11.111  20.621   4.082
61734W        W65802  12.630  19.572   3.952
61735W        W65803  11.276  20.121   4.971
61736W        W65804  12.566  18.763   6.435
61737W        W65805  14.238  18.472   3.862
61738W        W65806  14.331  20.218   6.961
61739W        W65807  12.985  21.475   7.113
61740W        W65808  14.543  20.569   6.635
61741W        W65809  13.951  21.367   7.246
61742W        W65810  11.690  21.823   5.724
61743W        W65811  14.549  20.445   4.598
61744W        W65812  13.079  19.712   5.111
61745W        W65813  12.846  18.324   5.001
61746W        W65814  11.905  21.308   4.838
61747W        W65815  12.404  19.049   6.063
61748W        W65816  12.104  18.418   5.532
61749W        W65817  11.167  21.240   4.080
61750W        W65818  12.983  20.604   4.798
61751W        W65819  11.858  21.399   6.677
61752W        W65820  11.335  20.222   4.373
61753W        W65821  11.220  18.765   5.372
61754W        W65822  12.768  20.730   5.429
61755W        W65823  11.020  18.584   4.449
61756W        W65824  13.684  19.790   6.376
61757W        W65825  13.561  19.176   3.948
61758W        W65826  14.078  20.848   5.596
61759W        W65827  12.739  21.332   5.427
61760W        W65828  12.151  21.436   4.338
61761W        W65829  13.433  18.339   3.768
61762W        W65830  11.233  21.599   5.509
61763W        W65831  13.430  19.357   7.144
61764W        W65832  11.413  18.887   7.143
61765W        W65833  11.144  19.487   4.476
61766W        W65834  11.835  19.476   4.201
61767W        W65835  13.598  19.803   7.018
61768W        W65836  11.941  20.084   5.727
61769W        W65837  13.415  18.370   4.847
61770W        W65838  12.546  21.801   5.350
61771W        W65839  13.760  21.263   6.287
61772W        W65840  13.344  21.412   5.398
61773W        W65841  13.363  20.392   4.992
61774W        W65842  12.825  18.617   4.063
61775W        W65843  14.506  18.245   4.785
61776W        W65844  12.194  19.880   3.948
61777W        W65845  14.360  19.217   4.938
61778W        W65846  13.052  20.387   3.815
61779W        W65847  13.988  20.587   6.563
61780W        W65848  13.642  21.288   4.030
61781W        W65849  12.257  18.963   6.936
61782W        W65850  12.077  19.547   6.177
61783W        W65851  14.169  21.042   6.454
61784W        W65852  13.269  18.992   6.831
61785W        W65853  11.113  19.463   6.608
61786W        W65854  12.873  19.940   6.334
61787W        W65855  11.230  20.698   4.991
61788W        W65856  11.377  19.995   5.881
61789W        W65857  13.694  20.281   6.231
61790W        W65858  13.466  21.661   7.042
61791W        W65859  13.362  19.400   6.595
61792W        W65860  13.639  21.454   5.000
61793W        W65861  12.641  21.174   6.323
61794W        W65862  12.126  21.529   5.592
61795W        W65863  13.931  20.700   6.011
61796W        W65864  12.981  20.772   7.148
61797W        W65865  11.586  20.725   5.487
61798W        W65866  13.932  20.484   5.132
61799W        W65867  13.573  21.550   5.883
61800W        W65868  11.551  21.279   5.753
61801W        W65869  12.572  19.331   6.963
61802W        W65870  13.023  21.497   4.474
61803W        W65871  12.331  20.752   7.112
61804W        W65872  12.457  20.990   4.489
61805W        W65873  11.678  19.730   3.748
61806W        W65874  11.017  21.816  10.648
61807W        W65875  11.393  20.709  10.171
61808W        W65876  14.098  20.439   7.941
61809W        W65877  14.228  21.524   9.968
61810W        W65878  12.146  21.515   7.494
61811W        W65879  12.229  19.667   8.477
61812W        W65880  11.744  19.515   8.641
61813W        W65881  12.735  20.330   8.075
61814W        W65882  12.410  21.422  10.430
61815W        W65883  11.059  18.983  10.393
61816W        W65884  11.821  18.263  10.195
61817W        W65885  13.515  18.651   9.082
61818W        W65886  13.164  19.522   7.652
61819W        W65887  13.734  18.956  10.743
61820W        W65888  11.100  18.748   9.868
61821W        W65889  11.199  21.367  10.889
61822W        W65890  12.721  20.757   7.621
61823W        W65891  11.153  19.540   9.314
61824W        W65892  12.046  19.431  10.551
61825W        W65893  14.505  19.290   9.050
61826W        W65894  14.269  20.333   9.909
61827W        W65895  12.577  19.666   8.936
61828W        W65896  13.123  21.005   9.305
61829W        W65897  11.623  20.439   9.537
61830W        W65898  10.982  19.967   9.108
61831W        W65899  12.018  19.939  10.300
61832W        W65900  14.289  19.722  10.554
61833W        W65901  11.905  21.166   8.999
61834W        W65902  13.026  20.855  10.133
61835W        W65903  12.246  19.495   9.358
61836W        W65904  12.538  20.279   9.001
61837W        W65905  13.535  21.052  10.849
61838W        W65906  12.614  20.372  10.859
61839W        W65907  12.595  20.088  10.337
61840W        W65908  11.004  19.479  10.859
61841W        W65909  13.836  21.014  10.458
61842W        W65910  11.417  18.596   8.456
61843W        W65911  11.944  20.854   9.455
61844W        W65912  14.407  20.637   8.745
61845W        W65913  13.820  19.037   9.312
61846W        W65914  14.105  18.990   7.407
61847W        W65915  14.570  19.791   9.713
61848W        W65916  12.537  21.498   9.466
61849W        W65917  14.311  20.964   7.904
61850W        W65918  11.440  21.750   7.658
61851W        W65919  11.833  21.796   8.334
61852W        W65920  11.630  18.550   9.760
61853W        W65921  14.253  19.568  10.035
61854W        W65922  13.658  19.990   8.494
61855W        W65923  13.624  19.678   7.521
61856W        W65924  12.832  20.822   9.661
61857W        W65925  12.638  19.152   8.860
61858W        W65926  13.238  21.239   9.854
61859W        W65927  14.109  20.030   8.276
61860W        W65928  13.011  18.688   8.292
61861W        W65929  11.668  21.382   7.975
61862W        W65930  11.039  18.881   8.574
61863W        W65931  13.825  19.488   9.048
61864W        W65932  11.283  21.105   8.963
61865W        W65933  12.624  21.455   7.833
61866W        W65934  14.016  19.481   7.297
61867W        W65935  11.039  21.239   9.461
61868W        W65936  11.830  20.811   9.941
61869W        W65937  12.203  20.171   8.560
61870W        W65938  12.225  18.576   9.653
61871W        W65939  14.454  18.338   8.950
61872W        W65940  11.673  20.210   7.418
61873W        W65941  11.328  19.243   7.597
61874W        W65942  11.390  21.199   8.391
61875W        W65943  12.521  20.682   8.639
61876W        W65944  13.853  21.541  10.353
61877W        W65945  12.779  19.183   8.037
61878W        W65946  14.162  21.581   8.809
61879W        W65947  13.839  19.434  10.407
61880W        W65948  14.552  21.090   8.541
61881W        W65949  13.179  20.382  10.025
61882W        W65950  10.945  19.933   8.231
61883W        W65951  12.056  20.348   9.804
61884W        W65952  13.260  19.612   8.182
61885W        W65953  13.137  20.102   8.286
61886W        W65954  11.480  19.522   9.760
61887W        W65955  11.465  19.398  10.682
61888W        W65956  11.355  18.315   8.841
61889W        W65957  13.123  18.662   9.402
61890W        W65958  12.771  18.847  10.565
61891W        W65959  13.126  18.996   7.743
61892W        W65960  14.309  21.389  10.497
61893W        W65961  13.276  18.470  10.536
61894W        W65962  14.295  20.771  10.658
61895W        W65963  13.725  18.938  10.254
61896W        W65964  13.525  18.876   8.524
61897W        W65965  13.918  20.010  10.928
61898W        W65966  11.658  21.586   8.914
61899W        W65967  12.316  19.303   7.900
61900W        W65968  11.885  18.587  10.564
61901W        W65969  13.937  19.071   8.245
61902W        W65970  14.304  19.553   8.190
61903W        W65971  12.047  21.770  10.661
61904W        W65972  11.973  18.306   7.896
61905W        W65973  14.294  18.840   8.931
61906W        W65974  14.444  21.089   7.376
61907W        W65975  11.351  20.292   9.078
61908W        W65976  13.268  18.879   7.308
61909W        W65977  14.402  21.211   9.028
61910W        W65978  14.441  18.405   9.778
61911W        W65979  12.886  19.617  10.332
61912W        W65980  12.979  20.956   8.035
61913W        W65981  13.379  20.250  10.775
61914W        W65982  13.053  18.227   9.084
61915W        W65983  11.665  19.130   9.147
61916W        W65984  11.219  20.330   9.921
61917W        W65985  13.078  21.523   8.627
61918W        W65986  14.272  19.120   9.499
61919W        W65987  12.909  21.467  10.266
61920W        W65988  14.252  20.526   7.471
61921W        W65989  12.687  20.009   8.532
61922W        W65990  14.539  18.520  10.273
61923W        W65991  12.688  20.355   9.867
61924W        W65992  12.905  19.241   9.312
61925W        W65993  13.757  19.539   8.150
61926W        W65994  14.044  19.272   7.792
61927W        W65995  13.853  21.312   8.181
61928W        W65996  13.687  20.915   8.977
61929W        W65997  13.583  19.994   7.955
61930W        W65998  13.016  20.204   8.941
61931W        W65999  13.897  19.992   9.008
61932W        W66000  11.272  19.007   9.432
61933W        W66001  14.050  20.059  10.259
61934W        W66002  14.401  21.677   9.405
61935W        W66003  12.331  21.121   8.807
61936W        W66004  13.338  21.654  10.131
61937W        W66005  13.332  18.984   9.895
61938W        W66006  12.539  21.692   9.956
61939W        W66007  14.236  18.646   8.422
61940W        W66008  14.027  19.965   9.723
61941W        W66009  11.010  19.286   9.761
61942W        W66010  13.870  19.081   8.779
61943W        W66011  14.281  19.232  10.556
61944W        W66012  13.166  20.931   8.774
61945W        W66013  12.422  21.522   8.387
61946W        W66014  11.537  18.702   7.645
61947W        W66015  12.641  18.356   9.455
61948W        W66016  11.669  21.476   7.303
61949W        W66017  12.043  19.942   8.054
61950W        W66018  12.697  20.571  10.367
61951W        W66019  12.527  18.929   8.357
61952W        W66020  13.883  18.526   8.785
61953W        W66021  13.603  21.808   9.113
61954W        W66022  13.015  21.456   9.453
61955W        W66023  12.411  20.493   9.414
61956W        W66024  14.181  21.216   9.540
61957W        W66025  11.875  18.719   8.309
61958W        W66026  12.397  21.016   9.269
61959W        W66027  11.880  18.947   7.334
61960W        W66028  12.681  19.556   9.728
61961W        W66029  13.529  18.422   9.598
61962W        W66030  10.949  20.265   9.483
61963W        W66031  12.653  20.083   7.641
61964W        W66032  11.921  18.398   7.411
61965W        W66033  12.659  19.479   8.462
61966W        W66034  13.629  18.455  10.161
61967W        W66035  12.217  20.467  10.270
61968W        W66036  13.021  20.249  10.487
61969W        W66037  13.638  20.279  10.380
61970W        W66038  12.922  18.419  10.885
61971W        W66039  12.144  19.035   9.278
61972W        W66040  11.570  18.991   8.676
61973W        W66041  11.356  21.703   8.352
61974W        W66042  12.688  21.033  10.477
61975W        W66043  11.723  20.518   7.836
61976W        W66044  13.403  19.903   9.057
61977W        W66045  13.683  19.702   9.456
61978W        W66046  12.888  20.376   9.390
61979W        W66047  13.358  20.750   7.522
61980W        W66048  13.030  18.771   8.850
61981W        W66049  14.509  19.049   8.118
61982W        W66050  11.003  21.638  10.149
61983W        W66051  11.420  20.864   9.681
61984W        W66052  10.987  21.710   7.913
61985W        W66053  12.886  18.980   9.719
61986W        W66054  12.249  21.003   7.568
61987W        W66055  14.154  21.385   7.754
61988W        W66056  13.129  20.038   7.768
61989W        W66057  11.972  19.229   8.285
61990W        W66058  12.804  19.139   7.337
61991W        W66059  13.388  20.704  10.515
61992W        W66060  13.741  18.610   8.132
61993W        W66061  11.071  18.458   7.580
61994W        W66062  12.357  20.777   9.870
61995W        W66063  12.156  20.693   8.962
61996W        W66064  11.898  20.645   7.360
61997W        W66065  11.139  20.886   8.128
61998W        W66066  11.643  19.956  10.570
61999W        W66067  12.347  18.516  10.756
62000W        W66068  13.056  18.658  10.112
62001W        W66069  12.251  18.426   8.393
62002W        W66070  13.310  18.503   7.898
62003W        W66071  11.255  18.435   9.475
62004W        W66072  11.303  19.398   8.845
62005W        W66073  13.992  18.506   9.251
62006W        W66074  11.414  19.004   8.065
62007W        W66075  13.985  18.692   9.681
62008W        W66076  14.381  19.895   7.366
62009W        W66077  11.673  18.653   9.185
62010W        W66078  12.787  19.225  10.125
62011W        W66079  10.935  18.915   7.603
62012W        W66080  11.721  20.304  10.164
62013W        W66081  13.079  19.702   9.343
62014W        W66082  12.946  21.781   7.639
62015W        W66083  11.092  20.288   7.336
62016W        W66084  11.827  20.699  10.462
62017W        W66085  11.348  19.866  10.093
62018W        W66086  12.339  19.971   9.887
62019W        W66087  14.107  18.330  10.149
62020W        W66088  14.505  19.940  10.140
62021W        W66089  14.493  20.140   7.826
62022W        W66090  13.356  20.472   7.925
62023W        W66091  13.830  21.772   7.620
62024W        W66092  13.007  19.762  10.762
62025W        W66093  11.337  20.729  10.802
62026W        W66094  14.543  18.651  10.754
62027W        W66095  14.261  19.579   9.375
62028W        W66096  12.569  21.709  10.852
62029W        W66097  12.424  18.338   7.579
62030W        W66098  13.963  20.937   7.522
62031W        W66099  11.732  19.030  10.408
62032W        W66100  12.166  21.024  10.270
62033W        W66101  14.292  19.015  10.068
62034W        W66102  13.503  21.674   8.036
62035W        W66103  13.742  20.293   9.403
62036W        W66104  11.992  18.709  10.070
62037W        W66105  12.461  19.778  10.827
62038W        W66106  11.964  20.957   8.021
62039W        W66107  13.719  20.455   8.285
62040W        W66108  11.487  19.081  10.009
62041W        W66109  12.816  21.143   8.473
62042W        W66110  14.566  19.703   8.654
62043W        W66111  12.788  18.336  10.373
62044W        W66112  13.568  21.041   9.452
62045W        W66113  13.871  21.385   9.160
62046W        W66114  13.090  21.187   7.588
62047W        W66115  11.100  21.079  10.430
62048W        W66116  11.843  19.071   9.668
62049W        W66117  11.813  18.419   8.778
62050W        W66118  13.434  19.261   9.470
62051W        W66119  12.232  20.432   7.670
62052W        W66120  14.230  20.374   9.169
62053W        W66121  11.557  21.132  10.592
62054W        W66122  13.944  21.814   8.389
62055W        W66123  12.043  18.834   8.834
62056W        W66124  11.812  20.327   8.924
62057W        W66125  12.125  21.738   9.674
62058W        W66126  14.192  21.834  10.706
62059W        W66127  13.351  20.022   9.639
62060W        W66128  11.200  19.820   7.554
62061W        W66129  14.334  21.478   8.251
62062W        W66130  14.171  18.802   7.870
62063W        W66131  12.310  18.321  10.273
62064W        W66132  14.016  21.123   8.731
62065W        W66133  14.045  19.679   8.636
62066W        W66134  12.162  19.352   8.852
62067W        W66135  12.407  19.614  10.176
62068W        W66136  13.518  20.767  10.039
62069W        W66137  12.168  19.221  10.151
62070W        W66138  12.147  21.687   8.767
62071W        W66139  11.464  21.646  10.401
62072W        W66140  11.576  21.007   7.531
62073W        W66141  14.093  20.765   8.341
62074W        W66142  11.697  19.557  10.227
62075W        W66143  14.470  19.487   7.708
62076W        W66144  12.215  20.544   8.179
62077W        W66145  13.314  19.926  10.260
62078W        W66146  13.205  19.554   9.804
62079W        W66147  11.765  19.926   9.833
62080W        W66148  13.975  21.814   9.662
62081W        W66149  13.766  18.448  10.656
62082W        W66150  11.430  18.598  10.243
62083W        W66151  11.769  19.621   9.296
62084W        W66152  12.138  19.435   7.418
62085W        W66153  10.941  21.194   9.963
62086W        W66154  12.526  19.903   9.406
62087W        W66155  12.349  18.928   7.511
62088W        W66156  11.484  19.744   8.292
62089W        W66157  11.255  21.596   9.729
62090W        W66158  14.050  19.822   7.837
62091W        W66159  14.145  18.738  10.523
62092W        W66160  13.581  20.947   8.486
62093W        W66161  11.179  19.871  10.663
62094W        W66162  14.145  18.335   7.959
62095W        W66163  13.665  20.810   7.970
62096W        W66164  12.567  19.868   8.055
62097W        W66165  13.754  18.672   7.578
62098W        W66166  13.819  19.279   9.764
62099W        W66167  11.528  19.872   8.971
62100W        W66168  11.822  20.811   8.620
62101W        W66169  13.585  19.431   8.585
62102W        W66170  12.608  18.810   9.281
62103W        W66171  14.570  20.721   9.792
62104W        W66172  14.488  18.708   9.353
62105W        W66173  11.027  21.538   8.729
62106W        W66174  11.536  20.725   8.265
62107W        W66175  11.451  18.342  10.818
62108W        W66176  12.570  21.195  10.920
62109W        W66177  14.325  20.163   8.710
62110W        W66178  13.679  20.340   7.590
62111W        W66179  12.974  21.861   9.802
62112W        W66180  13.831  20.583  10.839
62113W        W66181  12.646  18.293   8.119
62114W        W66182  13.359  19.162   8.978
62115W        W66183  11.045  20.749   9.310
62116W        W66184  12.298  18.711   7.951
62117W        W66185  12.102  20.195  10.800
62118W        W66186  13.096  19.176   8.514
62119W        W66187  13.301  20.586   9.636
62120W        W66188  11.455  21.191  10.071
62121W        W66189  12.046  21.174  10.794
62122W        W66190  11.897  18.971   7.808
62123W        W66191  13.414  19.113   8.133
62124W        W66192  13.372  21.221  10.370
62125W        W66193  12.057  19.813   8.969
62126W        W66194  11.712  21.511   9.834
62127W        W66195  14.457  21.628   7.435
62128W        W66196  11.320  20.300  10.431
62129W        W66197  13.315  20.562   9.119
62130W        W66198  11.751  20.211   8.361
62131W        W66199  12.122  21.218   9.756
62132W        W66200  12.500  18.637   8.797
62133W        W66201  11.111  20.621   7.727
62134W        W66202  12.630  19.572   7.597
62135W        W66203  11.276  20.121   8.616
62136W        W66204  12.566  18.763  10.080
62137W        W66205  14.238  18.472   7.507
62138W        W66206  14.331  20.218  10.606
62139W        W66207  12.985  21.475  10.758
62140W        W66208  14.543  20.569  10.280
62141W        W66209  13.951  21.367  10.891
62142W        W66210  11.690  21.823   9.369
62143W        W66211  14.549  20.445   8.243
62144W        W66212  13.079  19.712   8.756
62145W        W66213  12.846  18.324   8.646
62146W        W66214  11.905  21.308   8.483
62147W        W66215  12.404  19.049   9.708
62148W        W66216  12.104  18.418   9.177
62149W        W66217  11.167  21.240   7.725
62150W        W66218  12.983  20.604   8.443
62151W        W66219  11.858  21.399  10.322
62152W        W66220  11.335  20.222   8.018
62153W        W66221  11.220  18.765   9.017
62154W        W66222  12.768  20.730   9.074
62155W        W66223  11.020  18.584   8.094
62156W        W66224  13.684  19.790  10.021
62157W        W66225  13.561  19.176   7.593
62158W        W66226  14.078  20.848   9.241
62159W        W66227  12.739  21.332   9.072
62160W        W66228  12.151  21.436   7.983
62161W        W66229  13.433  18.339   7.413
62162W        W66230  11.233  21.599   9.154
62163W        W66231  13.430  19.357  10.789
62164W        W66232  11.413  18.887  10.788
62165W        W66233  11.144  19.487   8.121
62166W        W66234  11.835  19.476   7.846
62167W        W66235  13.598  19.803  10.663
62168W        W66236  11.941  20.084   9.372
62169W        W66237  13.415  18.370   8.492
62170W        W66238  12.546  21.801   8.995
62171W        W66239  13.760  21.263   9.932
62172W        W66240  13.344  21.412   9.043
62173W        W66241  13.363  20.392   8.637
62174W        W66242  12.825  18.617   7.708
62175W        W66243  14.506  18.245   8.430
62176W        W66244  12.194  19.880   7.593
62177W        W66245  14.360  19.217   8.583
62178W        W66246  13.052  20.387   7.460
62179W        W66247  13.988  20.587  10.208
62180W        W66248  13.642  21.288   7.675
62181W        W66249  12.257  18.963  10.581
62182W        W66250  12.077  19.547   9.822
62183W        W66251  14.169  21.042  10.099
62184W        W66252  13.269  18.992  10.476
62185W        W66253  11.113  19.463  10.253
62186W        W66254  12.873  19.940   9.979
62187W        W66255  11.230  20.698   8.636
62188W        W66256  11.377  19.995   9.526
62189W        W66257  13.694  20.281   9.876
62190W        W66258  13.466  21.661  10.687
62191W        W66259  13.362  19.400  10.240
62192W        W66260  13.639  21.454   8.645
62193W        W66261  12.641  21.174   9.968
62194W        W66262  12.126  21.529   9.237
62195W        W66263  13.931  20.700   9.656
62196W        W66264  12.981  20.772  10.793
62197W        W66265  11.586  20.725   9.132
62198W        W66266  13.932  20.484   8.777
62199W        W66267  13.573  21.550   9.528
62200W        W66268  11.551  21.279   9.398
62201W        W66269  12.572  19.331  10.608
62202W        W66270  13.023  21.497   8.119
62203W        W66271  12.331  20.752  10.757
62204W        W66272  12.457  20.990   8.134
62205W        W66273  11.678  19.730   7.393
62206W        W66274  11.017  21.816  14.292
62207W        W66275  11.393  20.709  13.815
62208W        W66276  14.098  20.439  11.585
62209W        W66277  14.228  21.524  13.612
62210W        W66278  12.146  21.515  11.138
62211W        W66279  12.229  19.667  12.121
62212W        W66280  11.744  19.515  12.285
62213W        W66281  12.735  20.330  11.719
62214W        W66282  12.410  21.422  14.074
62215W        W66283  11.059  18.983  14.037
62216W        W66284  11.821  18.263  13.839
62217W        W66285  13.515  18.651  12.726
62218W        W66286  13.164  19.522  11.296
62219W        W66287  13.734  18.956  14.387
62220W        W66288  11.100  18.748  13.512
62221W        W66289  11.199  21.367  14.533
62222W        W66290  12.721  20.757  11.265
62223W        W66291  11.153  19.540  12.958
62224W        W66292  12.046  19.431  14.195
62225W        W66293  14.505  19.290  12.694
62226W        W66294  14.269  20.333  13.553
62227W        W66295  12.577  19.666  12.580
62228W        W66296  13.123  21.005  12.949
62229W        W66297  11.623  20.439  13.181
62230W        W66298  10.982  19.967  12.752
62231W        W66299  12.018  19.939  13.944
62232W        W66300  14.289  19.722  14.198
62233W        W66301  11.905  21.166  12.643
62234W        W66302  13.026  20.855  13.777
62235W        W66303  12.246  19.495  13.002
62236W        W66304  12.538  20.279  12.645
62237W        W66305  13.535  21.052  14.493
62238W        W66306  12.614  20.372  14.503
62239W        W66307  12.595  20.088  13.981
62240W        W66308  11.004  19.479  14.503
62241W        W66309  13.836  21.014  14.102
62242W        W66310  11.417  18.596  12.100
62243W        W66311  11.944  20.854  13.099
62244W        W66312  14.407  20.637  12.389
62245W        W66313  13.820  19.037  12.956
62246W        W66314  14.105  18.990  11.051
62247W        W66315  14.570  19.791  13.357
62248W        W66316  12.537  21.498  13.110
62249W        W66317  14.311  20.964  11.548
62250W        W66318  11.440  21.750  11.302
62251W        W66319  11.833  21.796  11.978
62252W        W66320  11.630  18.550  13.404
62253W        W66321  14.253  19.568  13.679
62254W        W66322  13.658  19.990  12.138
62255W        W66323  13.624  19.678  11.165
62256W        W66324  12.832  20.822  13.305
62257W        W66325  12.638  19.152  12.504
62258W        W66326  13.238  21.239  13.498
62259W        W66327  14.109  20.030  11.920
62260W        W66328  13.011  18.688  11.936
62261W        W66329  11.668  21.382  11.619
62262W        W66330  11.039  18.881  12.218
62263W        W66331  13.825  19.488  12.692
62264W        W66332  11.283  21.105  12.607
62265W        W66333  12.624  21.455  11.477
62266W        W66334  14.016  19.481  10.941
62267W        W66335  11.039  21.239  13.105
62268W        W66336  11.830  20.811  13.585
62269W        W66337  12.203  20.171  12.204
62270W        W66338  12.225  18.576  13.297
62271W        W66339  14.454  18.338  12.594
62272W        W66340  11.673  20.210  11.062
62273W        W66341  11.328  19.243  11.241
62274W        W66342  11.390  21.199  12.035
62275W        W66343  12.521  20.682  12.283
62276W        W66344  13.853  21.541  13.997
62277W        W66345  12.779  19.183  11.681
62278W        W66346  14.162  21.581  12.453
62279W        W66347  13.839  19.434  14.051
62280W        W66348  14.552  21.090  12.185
62281W        W66349  13.179  20.382  13.669
62282W        W66350  10.945  19.933  11.875
62283W        W66351  12.056  20.348  13.448
62284W        W66352  13.260  19.612  11.826
62285W        W66353  13.137  20.102  11.930
62286W        W66354  11.480  19.522  13.404
62287W        W66355  11.465  19.398  14.326
62288W        W66356  11.355  18.315  12.485
62289W        W66357  13.123  18.662  13.046
62290W        W66358  12.771  18.847  14.209
62291W        W66359  13.126  18.996  11.387
62292W        W66360  14.309  21.389  14.141
62293W        W66361  13.276  18.470  14.180
62294W        W66362  14.295  20.771  14.302
62295W        W66363  13.725  18.938  13.898
62296W        W66364  13.525  18.876  12.168
62297W        W66365  13.918  20.010  14.572
62298W        W66366  11.658  21.586  12.558
62299W        W66367  12.316  19.303  11.544
62300W        W66368  11.885  18.587  14.208
62301W        W66369  13.937  19.071  11.889
62302W        W66370  14.304  19.553  11.834
62303W        W66371  12.047  21.770  14.305
62304W        W66372  11.973  18.306  11.540
62305W        W66373  14.294  18.840  12.575
62306W        W66374  14.444  21.089  11.020
62307W        W66375  11.351  20.292  12.722
62308W        W66376  13.268  18.879  10.952
62309W        W66377  14.402  21.211  12.672
62310W        W66378  14.441  18.405  13.422
62311W        W66379  12.886  19.617  13.976
62312W        W66380  12.979  20.956  11.679
62313W        W66381  13.379  20.250  14.419
62314W        W66382  13.053  18.227  12.728
62315W        W66383  11.665  19.130  12.791
62316W        W66384  11.219  20.330  13.565
62317W        W66385  13.078  21.523  12.271
62318W        W66386  14.272  19.120  13.143
62319W        W66387  12.909  21.467  13.910
62320W        W66388  14.252  20.526  11.115
62321W        W66389  12.687  20.009  12.176
62322W        W66390  14.539  18.520  13.917
62323W        W66391  12.688  20.355  13.511
62324W        W66392  12.905  19.241  12.956
62325W        W66393  13.757  19.539  11.794
62326W        W66394  14.044  19.272  11.436
62327W        W66395  13.853  21.312  11.825
62328W        W66396  13.687  20.915  12.621
62329W        W66397  13.583  19.994  11.599
62330W        W66398  13.016  20.204  12.585
62331W        W66399  13.897  19.992  12.652
62332W        W66400  11.272  19.007  13.076
62333W        W66401  14.050  20.059  13.903
62334W        W66402  14.401  21.677  13.049
62335W        W66403  12.331  21.121  12.451
62336W        W66404  13.338  21.654  13.775
62337W        W66405  13.332  18.984  13.539
62338W        W66406  12.539  21.692  13.600
62339W        W66407  14.236  18.646  12.066
62340W        W66408  14.027  19.965  13.367
62341W        W66409  11.010  19.286  13.405
62342W        W66410  13.870  19.081  12.423
62343W        W66411  14.281  19.232  14.200
62344W        W66412  13.166  20.931  12.418
62345W        W66413  12.422  21.522  12.031
62346W        W66414  11.537  18.702  11.289
62347W        W66415  12.641  18.356  13.099
62348W        W66416  11.669  21.476  10.947
62349W        W66417  12.043  19.942  11.698
62350W        W66418  12.697  20.571  14.011
62351W        W66419  12.527  18.929  12.001
62352W        W66420  13.883  18.526  12.429
62353W        W66421  13.603  21.808  12.757
62354W        W66422  13.015  21.456  13.097
62355W        W66423  12.411  20.493  13.058
62356W        W66424  14.181  21.216  13.184
62357W        W66425  11.875  18.719  11.953
62358W        W66426  12.397  21.016  12.913
62359W        W66427  11.880  18.947  10.978
62360W        W66428  12.681  19.556  13.372
62361W        W66429  13.529  18.422  13.242
62362W        W66430  10.949  20.265  13.127
62363W        W66431  12.653  20.083  11.285
62364W        W66432  11.921  18.398  11.055
62365W        W66433  12.659  19.479  12.106
62366W        W66434  13.629  18.455  13.805
62367W        W66435  12.217  20.467  13.914
62368W        W66436  13.021  20.249  14.131
62369W        W66437  13.638  20.279  14.024
62370W        W66438  12.922  18.419  14.529
62371W        W66439  12.144  19.035  12.922
62372W        W66440  11.570  18.991  12.320
62373W        W66441  11.356  21.703  11.996
62374W        W66442  12.688  21.033  14.121
62375W        W66443  11.723  20.518  11.480
62376W        W66444  13.403  19.903  12.701
62377W        W66445  13.683  19.702  13.100
62378W        W66446  12.888  20.376  13.034
62379W        W66447  13.358  20.750  11.166
62380W        W66448  13.030  18.771  12.494
62381W        W66449  14.509  19.049  11.762
62382W        W66450  11.003  21.638  13.793
62383W        W66451  11.420  20.864  13.325
62384W        W66452  10.987  21.710  11.557
62385W        W66453  12.886  18.980  13.363
62386W        W66454  12.249  21.003  11.212
62387W        W66455  14.154  21.385  11.398
62388W        W66456  13.129  20.038  11.412
62389W        W66457  11.972  19.229  11.929
62390W        W66458  12.804  19.139  10.981
62391W        W66459  13.388  20.704  14.159
62392W        W66460  13.741  18.610  11.776
62393W        W66461  11.071  18.458  11.224
62394W        W66462  12.357  20.777  13.514
62395W        W66463  12.156  20.693  12.606
62396W        W66464  11.898  20.645  11.004
62397W        W66465  11.139  20.886  11.772
62398W        W66466  11.643  19.956  14.214
62399W        W66467  12.347  18.516  14.400
62400W        W66468  13.056  18.658  13.756
62401W        W66469  12.251  18.426  12.037
62402W        W66470  13.310  18.503  11.542
62403W        W66471  11.255  18.435  13.119
62404W        W66472  11.303  19.398  12.489
62405W        W66473  13.992  18.506  12.895
62406W        W66474  11.414  19.004  11.709
62407W        W66475  13.985  18.692  13.325
62408W        W66476  14.381  19.895  11.010
62409W        W66477  11.673  18.653  12.829
62410W        W66478  12.787  19.225  13.769
62411W        W66479  10.935  18.915  11.247
62412W        W66480  11.721  20.304  13.808
62413W        W66481  13.079  19.702  12.987
62414W        W66482  12.946  21.781  11.283
62415W        W66483  11.092  20.288  10.980
62416W        W66484  11.827  20.699  14.106
62417W        W66485  11.348  19.866  13.737
62418W        W66486  12.339  19.971  13.531
62419W        W66487  14.107  18.330  13.793
62420W        W66488  14.505  19.940  13.784
62421W        W66489  14.493  20.140  11.470
62422W        W66490  13.356  20.472  11.569
62423W        W66491  13.830  21.772  11.264
62424W        W66492  13.007  19.762  14.406
62425W        W66493  11.337  20.729  14.446
62426W        W66494  14.543  18.651  14.398
62427W        W66495  14.261  19.579  13.019
62428W        W66496  12.569  21.709  14.496
62429W        W66497  12.424  18.338  11.223
62430W        W66498  13.963  20.937  11.166
62431W        W66499  11.732  19.030  14.052
62432W        W66500  12.166  21.024  13.914
62433W        W66501  14.292  19.015  13.712
62434W        W66502  13.503  21.674  11.680
62435W        W66503  13.742  20.293  13.047
62436W        W66504  11.992  18.709  13.714
62437W        W66505  12.461  19.778  14.471
62438W        W66506  11.964  20.957  11.665
62439W        W66507  13.719  20.455  11.929
62440W        W66508  11.487  19.081  13.653
62441W        W66509  12.816  21.143  12.117
62442W        W66510  14.566  19.703  12.298
62443W        W66511  12.788  18.336  14.017
62444W        W66512  13.568  21.041  13.096
62445W        W66513  13.871  21.385  12.804
62446W        W66514  13.090  21.187  11.232
62447W        W66515  11.100  21.079  14.074
62448W        W66516  11.843  19.071  13.312
62449W        W66517  11.813  18.419  12.422
62450W        W66518  13.434  19.261  13.114
62451W        W66519  12.232  20.432  11.314
62452W        W66520  14.230  20.374  12.813
62453W        W66521  11.557  21.132  14.236
62454W        W66522  13.944  21.814  12.033
62455W        W66523  12.043  18.834  12.478
62456W        W66524  11.812  20.327  12.568
62457W        W66525  12.125  21.738  13.318
62458W        W66526  14.192  21.834  14.350
62459W        W66527  13.351  20.022  13.283
62460W        W66528  11.200  19.820  11.198
62461W        W66529  14.334  21.478  11.895
62462W        W66530  14.171  18.802  11.514
62463W        W66531  12.310  18.321  13.917
62464W        W66532  14.016  21.123  12.375
62465W        W66533  14.045  19.679  12.280
62466W        W66534  12.162  19.352  12.496
62467W        W66535  12.407  19.614  13.820
62468W        W66536  13.518  20.767  13.683
62469W        W66537  12.168  19.221  13.795
62470W        W66538  12.147  21.687  12.411
62471W        W66539  11.464  21.646  14.045
62472W        W66540  11.576  21.007  11.175
62473W        W66541  14.093  20.765  11.985
62474W        W66542  11.697  19.557  13.871
62475W        W66543  14.470  19.487  11.352
62476W        W66544  12.215  20.544  11.823
62477W        W66545  13.314  19.926  13.904
62478W        W66546  13.205  19.554  13.448
62479W        W66547  11.765  19.926  13.477
62480W        W66548  13.975  21.814  13.306
62481W        W66549  13.766  18.448  14.300
62482W        W66550  11.430  18.598  13.887
62483W        W66551  11.769  19.621  12.940
62484W        W66552  12.138  19.435  11.062
62485W        W66553  10.941  21.194  13.607
62486W        W66554  12.526  19.903  13.050
62487W        W66555  12.349  18.928  11.155
62488W        W66556  11.484  19.744  11.936
62489W        W66557  11.255  21.596  13.373
62490W        W66558  14.050  19.822  11.481
62491W        W66559  14.145  18.738  14.167
62492W        W66560  13.581  20.947  12.130
62493W        W66561  11.179  19.871  14.307
62494W        W66562  14.145  18.335  11.603
62495W        W66563  13.665  20.810  11.614
62496W        W66564  12.567  19.868  11.699
62497W        W66565  13.754  18.672  11.222
62498W        W66566  13.819  19.279  13.408
62499W        W66567  11.528  19.872  12.615
62500W        W66568  11.822  20.811  12.264
62501W        W66569  13.585  19.431  12.229
62502W        W66570  12.608  18.810  12.925
62503W        W66571  14.570  20.721  13.436
62504W        W66572  14.488  18.708  12.997
62505W        W66573  11.027  21.538  12.373
62506W        W66574  11.536  20.725  11.909
62507W        W66575  11.451  18.342  14.462
62508W        W66576  12.570  21.195  14.564
62509W        W66577  14.325  20.163  12.354
62510W        W66578  13.679  20.340  11.234
62511W        W66579  12.974  21.861  13.446
62512W        W66580  13.831  20.583  14.483
62513W        W66581  12.646  18.293  11.763
62514W        W66582  13.359  19.162  12.622
62515W        W66583  11.045  20.749  12.954
62516W        W66584  12.298  18.711  11.595
62517W        W66585  12.102  20.195  14.444
62518W        W66586  13.096  19.176  12.158
62519W        W66587  13.301  20.586  13.280
62520W        W66588  11.455  21.191  13.715
62521W        W66589  12.046  21.174  14.438
62522W        W66590  11.897  18.971  11.452
62523W        W66591  13.414  19.113  11.777
62524W        W66592  13.372  21.221  14.014
62525W        W66593  12.057  19.813  12.613
62526W        W66594  11.712  21.511  13.478
62527W        W66595  14.457  21.628  11.079
62528W        W66596  11.320  20.300  14.075
62529W        W66597  13.315  20.562  12.763
62530W        W66598  11.751  20.211  12.005
62531W        W66599  12.122  21.218  13.400
62532W        W66600  12.500  18.637  12.441
62533W        W66601  11.111  20.621  11.371
62534W        W66602  12.630  19.572  11.241
62535W        W66603  11.276  20.121  12.260
62536W        W66604  12.566  18.763  13.724
62537W        W66605  14.238  18.472  11.151
62538W        W66606  14.331  20.218  14.250
62539W        W66607  12.985  21.475  14.402
62540W        W66608  14.543  20.569  13.924
62541W        W66609  13.951  21.367  14.535
62542W        W66610  11.690  21.823  13.013
62543W        W66611  14.549  20.445  11.887
62544W        W66612  13.079  19.712  12.400
62545W        W66613  12.846  18.324  12.290
62546W        W66614  11.905  21.308  12.127
62547W        W66615  12.404  19.049  13.352
62548W        W66616  12.104  18.418  12.821
62549W        W66617  11.167  21.240  11.369
62550W        W66618  12.983  20.604  12.087
62551W        W66619  11.858  21.399  13.966
62552W        W66620  11.335  20.222  11.662
62553W        W66621  11.220  18.765  12.661
62554W        W66622  12.768  20.730  12.718
62555W        W66623  11.020  18.584  11.738
62556W        W66624  13.684  19.790  13.665
62557W        W66625  13.561  19.176  11.237
62558W        W66626  14.078  20.848  12.885
62559W        W66627  12.739  21.332  12.716
62560W        W66628  12.151  21.436  11.627
62561W        W66629  13.433  18.339  11.057
62562W        W66630  11.233  21.599  12.798
62563W        W66631  13.430  19.357  14.433
62564W        W66632  11.413  18.887  14.432
62565W        W66633  11.144  19.487  11.765
62566W        W66634  11.835  19.476  11.490
62567W        W66635  13.598  19.803  14.307
62568W        W66636  11.941  20.084  13.016
62569W        W66637  13.415  18.370  12.136
62570W        W66638  12.546  21.801  12.639
62571W        W66639  13.760  21.263  13.576
62572W        W66640  13.344  21.412  12.687
62573W        W66641  13.363  20.392  12.281
62574W        W66642  12.825  18.617  11.352
62575W        W66643  14.506  18.245  12.074
62576W        W66644  12.194  19.880  11.237
62577W        W66645  14.360  19.217  12.227
62578W        W66646  13.052  20.387  11.104
62579W        W66647  13.988  20.587  13.852
62580W        W66648  13.642  21.288  11.319
62581W        W66649  12.257  18.963  14.225
62582W        W66650  12.077  19.547  13.466
62583W        W66651  14.169  21.042  13.743
62584W        W66652  13.269  18.992  14.120
62585W        W66653  11.113  19.463  13.897
62586W        W66654  12.873  19.940  13.623
62587W        W66655  11.230  20.698  12.280
62588W        W66656  11.377  19.995  13.170
62589W        W66657  13.694  20.281  13.520
62590W        W66658  13.466  21.661  14.331
62591W        W66659  13.362  19.400  13.884
62592W        W66660  13.639  21.454  12.289
62593W        W66661  12.641  21.174  13.612
62594W        W66662  12.126  21.529  12.881
62595W        W66663  13.931  20.700  13.300
62596W        W66664  12.981  20.772  14.437
62597W        W66665  11.586  20.725  12.776
62598W        W66666  13.932  20.484  12.421
62599W        W66667  13.573  21.550  13.172
62600W        W66668  11.551  21.279  13.042
62601W        W66669  12.572  19.331  14.252
62602W        W66670  13.023  21.497  11.763
62603W        W66671  12.331  20.752  14.401
62604W        W66672  12.457  20.990  11.778
62605W        W66673  11.678  19.730  11.037
62606W        W66674  11.017  21.816  17.936
62607W        W66675  11.393  20.709  17.459
62608W        W66676  14.098  20.439  15.229
62609W        W66677  14.228  21.524  17.256
62610W        W66678  12.146  21.515  14.782
62611W        W66679  12.229  19.667  15.765
62612W        W66680  11.744  19.515  15.929
62613W        W66681  12.735  20.330  15.363
62614W        W66682  12.410  21.422  17.718
62615W        W66683  11.059  18.983  17.681
62616W        W66684  11.821  18.263  17.483
62617W        W66685  13.515  18.651  16.370
62618W        W66686  13.164  19.522  14.940
62619W        W66687  13.734  18.956  18.031
62620W        W66688  11.100  18.748  17.156
62621W        W66689  11.199  21.367  18.177
62622W        W66690  12.721  20.757  14.909
62623W        W66691  11.153  19.540  16.602
62624W        W66692  12.046  19.431  17.839
62625W        W66693  14.505  19.290  16.338
62626W        W66694  14.269  20.333  17.197
62627W        W66695  12.577  19.666  16.224
62628W        W66696  13.123  21.005  16.593
62629W        W66697  11.623  20.439  16.825
62630W        W66698  10.982  19.967  16.396
62631W        W66699  12.018  19.939  17.588
62632W        W66700  14.289  19.722  17.842
62633W        W66701  11.905  21.166  16.287
62634W        W66702  13.026  20.855  17.421
62635W        W66703  12.246  19.495  16.646
62636W        W66704  12.538  20.279  16.289
62637W        W66705  13.535  21.052  18.137
62638W        W66706  12.614  20.372  18.147
62639W        W66707  12.595  20.088  17.625
62640W        W66708  11.004  19.479  18.147
62641W        W66709  13.836  21.014  17.746
62642W        W66710  11.417  18.596  15.744
62643W        W66711  11.944  20.854  16.743
62644W        W66712  14.407  20.637  16.033
62645W        W66713  13.820  19.037  16.600
62646W        W66714  14.105  18.990  14.695
62647W        W66715  14.570  19.791  17.001
62648W        W66716  12.537  21.498  16.754
62649W        W66717  14.311  20.964  15.192
62650W        W66718  11.440  21.750  14.946
62651W        W66719  11.833  21.796  15.622
62652W        W66720  11.630  18.550  17.048
62653W        W66721  14.253  19.568  17.323
62654W        W66722  13.658  19.990  15.782
62655W        W66723  13.624  19.678  14.809
62656W        W66724  12.832  20.822  16.949
62657W        W66725  12.638  19.152  16.148
62658W        W66726  13.238  21.239  17.142
62659W        W66727  14.109  20.030  15.564
62660W        W66728  13.011  18.688  15.580
62661W        W66729  11.668  21.382  15.263
62662W        W66730  11.039  18.881  15.862
62663W        W66731  13.825  19.488  16.336
62664W        W66732  11.283  21.105  16.251
62665W        W66733  12.624  21.455  15.121
62666W        W66734  14.016  19.481  14.585
62667W        W66735  11.039  21.239  16.749
62668W        W66736  11.830  20.811  17.229
62669W        W66737  12.203  20.171  15.848
62670W        W66738  12.225  18.576  16.941
62671W        W66739  14.454  18.338  16.238
62672W        W66740  11.673  20.210  14.706
62673W        W66741  11.328  19.243  14.885
62674W        W66742  11.390  21.199  15.679
62675W        W66743  12.521  20.682  15.927
62676W        W66744  13.853  21.541  17.641
62677W        W66745  12.779  19.183  15.325
62678W        W66746  14.162  21.581  16.097
62679W        W66747  13.839  19.434  17.695
62680W        W66748  14.552  21.090  15.829
62681W        W66749  13.179  20.382  17.313
62682W        W66750  10.945  19.933  15.519
62683W        W66751  12.056  20.348  17.092
62684W        W66752  13.260  19.612  15.470
62685W        W66753  13.137  20.102  15.574
62686W        W66754  11.480  19.522  17.048
62687W        W66755  11.465  19.398  17.970
62688W        W66756  11.355  18.315  16.129
62689W        W66757  13.123  18.662  16.690
62690W        W66758  12.771  18.847  17.853
62691W        W66759  13.126  18.996  15.031
62692W        W66760  14.309  21.389  17.785
62693W        W66761  13.276  18.470  17.824
62694W        W66762  14.295  20.771  17.946
62695W        W66763  13.725  18.938  17.542
62696W        W66764  13.525  18.876  15.812
62697W        W66765  13.918  20.010  18.216
62698W        W66766  11.658  21.586  16.202
62699W        W66767  12.316  19.303  15.188
62700W        W66768  11.885  18.587  17.852
62701W        W66769  13.937  19.071  15.533
62702W        W66770  14.304  19.553  15.478
62703W        W66771  12.047  21.770  17.949
62704W        W66772  11.973  18.306  15.184
62705W        W66773  14.294  18.840  16.219
62706W        W66774  14.444  21.089  14.664
62707W        W66775  11.351  20.292  16.366
62708W        W66776  13.268  18.879  14.596
62709W        W66777  14.402  21.211  16.316
62710W        W66778  14.441  18.405  17.066
62711W        W66779  12.886  19.617  17.620
62712W        W66780  12.979  20.956  15.323
62713W        W66781  13.379  20.250  18.063
62714W        W66782  13.053  18.227  16.372
62715W        W66783  11.665  19.130  16.435
62716W        W66784  11.219  20.330  17.209
62717W        W66785  13.078  21.523  15.915
62718W        W66786  14.272  19.120  16.787
62719W        W66787  12.909  21.467  17.554
62720W        W66788  14.252  20.526  14.759
62721W        W66789  12.687  20.009  15.820
62722W        W66790  14.539  18.520  17.561
62723W        W66791  12.688  20.355  17.155
62724W        W66792  12.905  19.241  16.600
62725W        W66793  13.757  19.539  15.438
62726W        W66794  14.044  19.272  15.080
62727W        W66795  13.853  21.312  15.469
62728W        W66796  13.687  20.915  16.265
62729W        W66797  13.583  19.994  15.243
62730W        W66798  13.016  20.204  16.229
62731W        W66799  13.897  19.992  16.296
62732W        W66800  11.272  19.007  16.720
62733W        W66801  14.050  20.059  17.547
62734W        W66802  14.401  21.677  16.693
62735W        W66803  12.331  21.121  16.095
62736W        W66804  13.338  21.654  17.419
62737W        W66805  13.332  18.984  17.183
62738W        W66806  12.539  21.692  17.244
62739W        W66807  14.236  18.646  15.710
62740W        W66808  14.027  19.965  17.011
62741W        W66809  11.010  19.286  17.049
62742W        W66810  13.870  19.081  16.067
62743W        W66811  14.281  19.232  17.844
62744W        W66812  13.166  20.931  16.062
62745W        W66813  12.422  21.522  15.675
62746W        W66814  11.537  18.702  14.933
62747W        W66815  12.641  18.356  16.743
62748W        W66816  11.669  21.476  14.591
62749W        W66817  12.043  19.942  15.342
62750W        W66818  12.697  20.571  17.655
62751W        W66819  12.527  18.929  15.645
62752W        W66820  13.883  18.526  16.073
62753W        W66821  13.603  21.808  16.401
62754W        W66822  13.015  21.456  16.741
62755W        W66823  12.411  20.493  16.702
62756W        W66824  14.181  21.216  16.828
62757W        W66825  11.875  18.719  15.597
62758W        W66826  12.397  21.016  16.557
62759W        W66827  11.880  18.947  14.622
62760W        W66828  12.681  19.556  17.016
62761W        W66829  13.529  18.422  16.886
62762W        W66830  10.949  20.265  16.771
62763W        W66831  12.653  20.083  14.929
62764W        W66832  11.921  18.398  14.699
62765W        W66833  12.659  19.479  15.750
62766W        W66834  13.629  18.455  17.449
62767W        W66835  12.217  20.467  17.558
62768W        W66836  13.021  20.249  17.775
62769W        W66837  13.638  20.279  17.668
62770W        W66838  12.922  18.419  18.173
62771W        W66839  12.144  19.035  16.566
62772W        W66840  11.570  18.991  15.964
62773W        W66841  11.356  21.703  15.640
62774W        W66842  12.688  21.033  17.765
62775W        W66843  11.723  20.518  15.124
62776W        W66844  13.403  19.903  16.345
62777W        W66845  13.683  19.702  16.744
62778W        W66846  12.888  20.376  16.678
62779W        W66847  13.358  20.750  14.810
62780W        W66848  13.030  18.771  16.138
62781W        W66849  14.509  19.049  15.406
62782W        W66850  11.003  21.638  17.437
62783W        W66851  11.420  20.864  16.969
62784W        W66852  10.987  21.710  15.201
62785W        W66853  12.886  18.980  17.007
62786W        W66854  12.249  21.003  14.856
62787W        W66855  14.154  21.385  15.042
62788W        W66856  13.129  20.038  15.056
62789W        W66857  11.972  19.229  15.573
62790W        W66858  12.804  19.139  14.625
62791W        W66859  13.388  20.704  17.803
62792W        W66860  13.741  18.610  15.420
62793W        W66861  11.071  18.458  14.868
62794W        W66862  12.357  20.777  17.158
62795W        W66863  12.156  20.693  16.250
62796W        W66864  11.898  20.645  14.648
62797W        W66865  11.139  20.886  15.416
62798W        W66866  11.643  19.956  17.858
62799W        W66867  12.347  18.516  18.044
62800W        W66868  13.056  18.658  17.400
62801W        W66869  12.251  18.426  15.681
62802W        W66870  13.310  18.503  15.186
62803W        W66871  11.255  18.435  16.763
62804W        W66872  11.303  19.398  16.133
62805W        W66873  13.992  18.506  16.539
62806W        W66874  11.414  19.004  15.353
62807W        W66875  13.985  18.692  16.969
62808W        W66876  14.381  19.895  14.654
62809W        W66877  11.673  18.653  16.473
62810W        W66878  12.787  19.225  17.413
62811W        W66879  10.935  18.915  14.891
62812W        W66880  11.721  20.304  17.452
62813W        W66881  13.079  19.702  16.631
62814W        W66882  12.946  21.781  14.927
62815W        W66883  11.092  20.288  14.624
62816W        W66884  11.827  20.699  17.750
62817W        W66885  11.348  19.866  17.381
62818W        W66886  12.339  19.971  17.175
62819W        W66887  14.107  18.330  17.437
62820W        W66888  14.505  19.940  17.428
62821W        W66889  14.493  20.140  15.114
62822W        W66890  13.356  20.472  15.213
62823W        W66891  13.830  21.772  14.908
62824W        W66892  13.007  19.762  18.050
62825W        W66893  11.337  20.729  18.090
62826W        W66894  14.543  18.651  18.042
62827W        W66895  14.261  19.579  16.663
62828W        W66896  12.569  21.709  18.140
62829W        W66897  12.424  18.338  14.867
62830W        W66898  13.963  20.937  14.810
62831W        W66899  11.732  19.030  17.696
62832W        W66900  12.166  21.024  17.558
62833W        W66901  14.292  19.015  17.356
62834W        W66902  13.503  21.674  15.324
62835W        W66903  13.742  20.293  16.691
62836W        W66904  11.992  18.709  17.358
62837W        W66905  12.461  19.778  18.115
62838W        W66906  11.964  20.957  15.309
62839W        W66907  13.719  20.455  15.573
62840W        W66908  11.487  19.081  17.297
62841W        W66909  12.816  21.143  15.761
62842W        W66910  14.566  19.703  15.942
62843W        W66911  12.788  18.336  17.661
62844W        W66912  13.568  21.041  16.740
62845W        W66913  13.871  21.385  16.448
62846W        W66914  13.090  21.187  14.876
62847W        W66915  11.100  21.079  17.718
62848W        W66916  11.843  19.071  16.956
62849W        W66917  11.813  18.419  16.066
62850W        W66918  13.434  19.261  16.758
62851W        W66919  12.232  20.432  14.958
62852W        W66920  14.230  20.374  16.457
62853W        W66921  11.557  21.132  17.880
62854W        W66922  13.944  21.814  15.677
62855W        W66923  12.043  18.834  16.122
62856W        W66924  11.812  20.327  16.212
62857W        W66925  12.125  21.738  16.962
62858W        W66926  14.192  21.834  17.994
62859W        W66927  13.351  20.022  16.927
62860W        W66928  11.200  19.820  14.842
62861W        W66929  14.334  21.478  15.539
62862W        W66930  14.171  18.802  15.158
62863W        W66931  12.310  18.321  17.561
62864W        W66932  14.016  21.123  16.019
62865W        W66933  14.045  19.679  15.924
62866W        W66934  12.162  19.352  16.140
62867W        W66935  12.407  19.614  17.464
62868W        W66936  13.518  20.767  17.327
62869W        W66937  12.168  19.221  17.439
62870W        W66938  12.147  21.687  16.055
62871W        W66939  11.464  21.646  17.689
62872W        W66940  11.576  21.007  14.819
62873W        W66941  14.093  20.765  15.629
62874W        W66942  11.697  19.557  17.515
62875W        W66943  14.470  19.487  14.996
62876W        W66944  12.215  20.544  15.467
62877W        W66945  13.314  19.926  17.548
62878W        W66946  13.205  19.554  17.092
62879W        W66947  11.765  19.926  17.121
62880W        W66948  13.975  21.814  16.950
62881W        W66949  13.766  18.448  17.944
62882W        W66950  11.430  18.598  17.531
62883W        W66951  11.769  19.621  16.584
62884W        W66952  12.138  19.435  14.706
62885W        W66953  10.941  21.194  17.251
62886W        W66954  12.526  19.903  16.694
62887W        W66955  12.349  18.928  14.799
62888W        W66956  11.484  19.744  15.580
62889W        W66957  11.255  21.596  17.017
62890W        W66958  14.050  19.822  15.125
62891W        W66959  14.145  18.738  17.811
62892W        W66960  13.581  20.947  15.774
62893W        W66961  11.179  19.871  17.951
62894W        W66962  14.145  18.335  15.247
62895W        W66963  13.665  20.810  15.258
62896W        W66964  12.567  19.868  15.343
62897W        W66965  13.754  18.672  14.866
62898W        W66966  13.819  19.279  17.052
62899W        W66967  11.528  19.872  16.259
62900W        W66968  11.822  20.811  15.908
62901W        W66969  13.585  19.431  15.873
62902W        W66970  12.608  18.810  16.569
62903W        W66971  14.570  20.721  17.080
62904W        W66972  14.488  18.708  16.641
62905W        W66973  11.027  21.538  16.017
62906W        W66974  11.536  20.725  15.553
62907W        W66975  11.451  18.342  18.106
62908W        W66976  12.570  21.195  18.208
62909W        W66977  14.325  20.163  15.998
62910W        W66978  13.679  20.340  14.878
62911W        W66979  12.974  21.861  17.090
62912W        W66980  13.831  20.583  18.127
62913W        W66981  12.646  18.293  15.407
62914W        W66982  13.359  19.162  16.266
62915W        W66983  11.045  20.749  16.598
62916W        W66984  12.298  18.711  15.239
62917W        W66985  12.102  20.195  18.088
62918W        W66986  13.096  19.176  15.802
62919W        W66987  13.301  20.586  16.924
62920W        W66988  11.455  21.191  17.359
62921W        W66989  12.046  21.174  18.082
62922W        W66990  11.897  18.971  15.096
62923W        W66991  13.414  19.113  15.421
62924W        W66992  13.372  21.221  17.658
62925W        W66993  12.057  19.813  16.257
62926W        W66994  11.712  21.511  17.122
62927W        W66995  14.457  21.628  14.723
62928W        W66996  11.320  20.300  17.719
62929W        W66997  13.315  20.562  16.407
62930W        W66998  11.751  20.211  15.649
62931W        W66999  12.122  21.218  17.044
62932W        W67000  12.500  18.637  16.085
62933W        W67001  11.111  20.621  15.015
62934W        W67002  12.630  19.572  14.885
62935W        W67003  11.276  20.121  15.904
62936W        W67004  12.566  18.763  17.368
62937W        W67005  14.238  18.472  14.795
62938W        W67006  14.331  20.218  17.894
62939W        W67007  12.985  21.475  18.046
62940W        W67008  14.543  20.569  17.568
62941W        W67009  13.951  21.367  18.179
62942W        W67010  11.690  21.823  16.657
62943W        W67011  14.549  20.445  15.531
62944W        W67012  13.079  19.712  16.044
62945W        W67013  12.846  18.324  15.934
62946W        W67014  11.905  21.308  15.771
62947W        W67015  12.404  19.049  16.996
62948W        W67016  12.104  18.418  16.465
62949W        W67017  11.167  21.240  15.013
62950W        W67018  12.983  20.604  15.731
62951W        W67019  11.858  21.399  17.610
62952W        W67020  11.335  20.222  15.306
62953W        W67021  11.220  18.765  16.305
62954W        W67022  12.768  20.730  16.362
62955W        W67023  11.020  18.584  15.382
62956W        W67024  13.684  19.790  17.309
62957W        W67025  13.561  19.176  14.881
62958W        W67026  14.078  20.848  16.529
62959W        W67027  12.739  21.332  16.360
62960W        W67028  12.151  21.436  15.271
62961W        W67029  13.433  18.339  14.701
62962W        W67030  11.233  21.599  16.442
62963W        W67031  13.430  19.357  18.077
62964W        W67032  11.413  18.887  18.076
62965W        W67033  11.144  19.487  15.409
62966W        W67034  11.835  19.476  15.134
62967W        W67035  13.598  19.803  17.951
62968W        W67036  11.941  20.084  16.660
62969W        W67037  13.415  18.370  15.780
62970W        W67038  12.546  21.801  16.283
62971W        W67039  13.760  21.263  17.220
62972W        W67040  13.344  21.412  16.331
62973W        W67041  13.363  20.392  15.925
62974W        W67042  12.825  18.617  14.996
62975W        W67043  14.506  18.245  15.718
62976W        W67044  12.194  19.880  14.881
62977W        W67045  14.360  19.217  15.871
62978W        W67046  13.052  20.387  14.748
62979W        W67047  13.988  20.587  17.496
62980W        W67048  13.642  21.288  14.963
62981W        W67049  12.257  18.963  17.869
62982W        W67050  12.077  19.547  17.110
62983W        W67051  14.169  21.042  17.387
62984W        W67052  13.269  18.992  17.764
62985W        W67053  11.113  19.463  17.541
62986W        W67054  12.873  19.940  17.267
62987W        W67055  11.230  20.698  15.924
62988W        W67056  11.377  19.995  16.814
62989W        W67057  13.694  20.281  17.164
62990W        W67058  13.466  21.661  17.975
62991W        W67059  13.362  19.400  17.528
62992W        W67060  13.639  21.454  15.933
62993W        W67061  12.641  21.174  17.256
62994W        W67062  12.126  21.529  16.525
62995W        W67063  13.931  20.700  16.944
62996W        W67064  12.981  20.772  18.081
62997W        W67065  11.586  20.725  16.420
62998W        W67066  13.932  20.484  16.065
62999W        W67067  13.573  21.550  16.816
63000W        W67068  11.551  21.279  16.686
63001W        W67069  12.572  19.331  17.896
63002W        W67070  13.023  21.497  15.407
63003W        W67071  12.331  20.752  18.045
63004W        W67072  12.457  20.990  15.422
63005W        W67073  11.678  19.730  14.681
63006W        W67074  11.017  21.816  21.580
63007W        W67075  11.393  20.709  21.103
63008W        W67076  14.098  20.439  18.873
63009W        W67077  14.228  21.524  20.900
63010W        W67078  12.146  21.515  18.426
63011W        W67079  12.229  19.667  19.409
63012W        W67080  11.744  19.515  19.573
63013W        W67081  12.735  20.330  19.007
63014W        W67082  12.410  21.422  21.362
63015W        W67083  11.059  18.983  21.325
63016W        W67084  11.821  18.263  21.127
63017W        W67085  13.515  18.651  20.014
63018W        W67086  13.164  19.522  18.584
63019W        W67087  13.734  18.956  21.675
63020W        W67088  11.100  18.748  20.800
63021W        W67089  11.199  21.367  21.821
63022W        W67090  12.721  20.757  18.553
63023W        W67091  11.153  19.540  20.246
63024W        W67092  12.046  19.431  21.483
63025W        W67093  14.505  19.290  19.982
63026W        W67094  14.269  20.333  20.841
63027W        W67095  12.577  19.666  19.868
63028W        W67096  13.123  21.005  20.237
63029W        W67097  11.623  20.439  20.469
63030W        W67098  10.982  19.967  20.040
63031W        W67099  12.018  19.939  21.232
63032W        W67100  14.289  19.722  21.486
63033W        W67101  11.905  21.166  19.931
63034W        W67102  13.026  20.855  21.065
63035W        W67103  12.246  19.495  20.290
63036W        W67104  12.538  20.279  19.933
63037W        W67105  13.535  21.052  21.781
63038W        W67106  12.614  20.372  21.791
63039W        W67107  12.595  20.088  21.269
63040W        W67108  11.004  19.479  21.791
63041W        W67109  13.836  21.014  21.390
63042W        W67110  11.417  18.596  19.388
63043W        W67111  11.944  20.854  20.387
63044W        W67112  14.407  20.637  19.677
63045W        W67113  13.820  19.037  20.244
63046W        W67114  14.105  18.990  18.339
63047W        W67115  14.570  19.791  20.645
63048W        W67116  12.537  21.498  20.398
63049W        W67117  14.311  20.964  18.836
63050W        W67118  11.440  21.750  18.590
63051W        W67119  11.833  21.796  19.266
63052W        W67120  11.630  18.550  20.692
63053W        W67121  14.253  19.568  20.967
63054W        W67122  13.658  19.990  19.426
63055W        W67123  13.624  19.678  18.453
63056W        W67124  12.832  20.822  20.593
63057W        W67125  12.638  19.152  19.792
63058W        W67126  13.238  21.239  20.786
63059W        W67127  14.109  20.030  19.208
63060W        W67128  13.011  18.688  19.224
63061W        W67129  11.668  21.382  18.907
63062W        W67130  11.039  18.881  19.506
63063W        W67131  13.825  19.488  19.980
63064W        W67132  11.283  21.105  19.895
63065W        W67133  12.624  21.455  18.765
63066W        W67134  14.016  19.481  18.229
63067W        W67135  11.039  21.239  20.393
63068W        W67136  11.830  20.811  20.873
63069W        W67137  12.203  20.171  19.492
63070W        W67138  12.225  18.576  20.585
63071W        W67139  14.454  18.338  19.882
63072W        W67140  11.673  20.210  18.350
63073W        W67141  11.328  19.243  18.529
63074W        W67142  11.390  21.199  19.323
63075W        W67143  12.521  20.682  19.571
63076W        W67144  13.853  21.541  21.285
63077W        W67145  12.779  19.183  18.969
63078W        W67146  14.162  21.581  19.741
63079W        W67147  13.839  19.434  21.339
63080W        W67148  14.552  21.090  19.473
63081W        W67149  13.179  20.382  20.957
63082W        W67150  10.945  19.933  19.163
63083W        W67151  12.056  20.348  20.736
63084W        W67152  13.260  19.612  19.114
63085W        W67153  13.137  20.102  19.218
63086W        W67154  11.480  19.522  20.692
63087W        W67155  11.465  19.398  21.614
63088W        W67156  11.355  18.315  19.773
63089W        W67157  13.123  18.662  20.334
63090W        W67158  12.771  18.847  21.497
63091W        W67159  13.126  18.996  18.675
63092W        W67160  14.309  21.389  21.429
63093W        W67161  13.276  18.470  21.468
63094W        W67162  14.295  20.771  21.590
63095W        W67163  13.725  18.938  21.186
63096W        W67164  13.525  18.876  19.456
63097W        W67165  13.918  20.010  21.860
63098W        W67166  11.658  21.586  19.846
63099W        W67167  12.316  19.303  18.832
63100W        W67168  11.885  18.587  21.496
63101W        W67169  13.937  19.071  19.177
63102W        W67170  14.304  19.553  19.122
63103W        W67171  12.047  21.770  21.593
63104W        W67172  11.973  18.306  18.828
63105W        W67173  14.294  18.840  19.863
63106W        W67174  14.444  21.089  18.308
63107W        W67175  11.351  20.292  20.010
63108W        W67176  13.268  18.879  18.240
63109W        W67177  14.402  21.211  19.960
63110W        W67178  14.441  18.405  20.710
63111W        W67179  12.886  19.617  21.264
63112W        W67180  12.979  20.956  18.967
63113W        W67181  13.379  20.250  21.707
63114W        W67182  13.053  18.227  20.016
63115W        W67183  11.665  19.130  20.079
63116W        W67184  11.219  20.330  20.853
63117W        W67185  13.078  21.523  19.559
63118W        W67186  14.272  19.120  20.431
63119W        W67187  12.909  21.467  21.198
63120W        W67188  14.252  20.526  18.403
63121W        W67189  12.687  20.009  19.464
63122W        W67190  14.539  18.520  21.205
63123W        W67191  12.688  20.355  20.799
63124W        W67192  12.905  19.241  20.244
63125W        W67193  13.757  19.539  19.082
63126W        W67194  14.044  19.272  18.724
63127W        W67195  13.853  21.312  19.113
63128W        W67196  13.687  20.915  19.909
63129W        W67197  13.583  19.994  18.887
63130W        W67198  13.016  20.204  19.873
63131W        W67199  13.897  19.992  19.940
63132W        W67200  11.272  19.007  20.364
63133W        W67201  14.050  20.059  21.191
63134W        W67202  14.401  21.677  20.337
63135W        W67203  12.331  21.121  19.739
63136W        W67204  13.338  21.654  21.063
63137W        W67205  13.332  18.984  20.827
63138W        W67206  12.539  21.692  20.888
63139W        W67207  14.236  18.646  19.354
63140W        W67208  14.027  19.965  20.655
63141W        W67209  11.010  19.286  20.693
63142W        W67210  13.870  19.081  19.711
63143W        W67211  14.281  19.232  21.488
63144W        W67212  13.166  20.931  19.706
63145W        W67213  12.422  21.522  19.319
63146W        W67214  11.537  18.702  18.577
63147W        W67215  12.641  18.356  20.387
63148W        W67216  11.669  21.476  18.235
63149W        W67217  12.043  19.942  18.986
63150W        W67218  12.697  20.571  21.299
63151W        W67219  12.527  18.929  19.289
63152W        W67220  13.883  18.526  19.717
63153W        W67221  13.603  21.808  20.045
63154W        W67222  13.015  21.456  20.385
63155W        W67223  12.411  20.493  20.346
63156W        W67224  14.181  21.216  20.472
63157W        W67225  11.875  18.719  19.241
63158W        W67226  12.397  21.016  20.201
63159W        W67227  11.880  18.947  18.266
63160W        W67228  12.681  19.556  20.660
63161W        W67229  13.529  18.422  20.530
63162W        W67230  10.949  20.265  20.415
63163W        W67231  12.653  20.083  18.573
63164W        W67232  11.921  18.398  18.343
63165W        W67233  12.659  19.479  19.394
63166W        W67234  13.629  18.455  21.093
63167W        W67235  12.217  20.467  21.202
63168W        W67236  13.021  20.249  21.419
63169W        W67237  13.638  20.279  21.312
63170W        W67238  12.922  18.419  21.817
63171W        W67239  12.144  19.035  20.210
63172W        W67240  11.570  18.991  19.608
63173W        W67241  11.356  21.703  19.284
63174W        W67242  12.688  21.033  21.409
63175W        W67243  11.723  20.518  18.768
63176W        W67244  13.403  19.903  19.989
63177W        W67245  13.683  19.702  20.388
63178W        W67246  12.888  20.376  20.322
63179W        W67247  13.358  20.750  18.454
63180W        W67248  13.030  18.771  19.782
63181W        W67249  14.509  19.049  19.050
63182W        W67250  11.003  21.638  21.081
63183W        W67251  11.420  20.864  20.613
63184W        W67252  10.987  21.710  18.845
63185W        W67253  12.886  18.980  20.651
63186W        W67254  12.249  21.003  18.500
63187W        W67255  14.154  21.385  18.686
63188W        W67256  13.129  20.038  18.700
63189W        W67257  11.972  19.229  19.217
63190W        W67258  12.804  19.139  18.269
63191W        W67259  13.388  20.704  21.447
63192W        W67260  13.741  18.610  19.064
63193W        W67261  11.071  18.458  18.512
63194W        W67262  12.357  20.777  20.802
63195W        W67263  12.156  20.693  19.894
63196W        W67264  11.898  20.645  18.292
63197W        W67265  11.139  20.886  19.060
63198W        W67266  11.643  19.956  21.502
63199W        W67267  12.347  18.516  21.688
63200W        W67268  13.056  18.658  21.044
63201W        W67269  12.251  18.426  19.325
63202W        W67270  13.310  18.503  18.830
63203W        W67271  11.255  18.435  20.407
63204W        W67272  11.303  19.398  19.777
63205W        W67273  13.992  18.506  20.183
63206W        W67274  11.414  19.004  18.997
63207W        W67275  13.985  18.692  20.613
63208W        W67276  14.381  19.895  18.298
63209W        W67277  11.673  18.653  20.117
63210W        W67278  12.787  19.225  21.057
63211W        W67279  10.935  18.915  18.535
63212W        W67280  11.721  20.304  21.096
63213W        W67281  13.079  19.702  20.275
63214W        W67282  12.946  21.781  18.571
63215W        W67283  11.092  20.288  18.268
63216W        W67284  11.827  20.699  21.394
63217W        W67285  11.348  19.866  21.025
63218W        W67286  12.339  19.971  20.819
63219W        W67287  14.107  18.330  21.081
63220W        W67288  14.505  19.940  21.072
63221W        W67289  14.493  20.140  18.758
63222W        W67290  13.356  20.472  18.857
63223W        W67291  13.830  21.772  18.552
63224W        W67292  13.007  19.762  21.694
63225W        W67293  11.337  20.729  21.734
63226W        W67294  14.543  18.651  21.686
63227W        W67295  14.261  19.579  20.307
63228W        W67296  12.569  21.709  21.784
63229W        W67297  12.424  18.338  18.511
63230W        W67298  13.963  20.937  18.454
63231W        W67299  11.732  19.030  21.340
63232W        W67300  12.166  21.024  21.202
63233W        W67301  14.292  19.015  21.000
63234W        W67302  13.503  21.674  18.968
63235W        W67303  13.742  20.293  20.335
63236W        W67304  11.992  18.709  21.002
63237W        W67305  12.461  19.778  21.759
63238W        W67306  11.964  20.957  18.953
63239W        W67307  13.719  20.455  19.217
63240W        W67308  11.487  19.081  20.941
63241W        W67309  12.816  21.143  19.405
63242W        W67310  14.566  19.703  19.586
63243W        W67311  12.788  18.336  21.305
63244W        W67312  13.568  21.041  20.384
63245W        W67313  13.871  21.385  20.092
63246W        W67314  13.090  21.187  18.520
63247W        W67315  11.100  21.079  21.362
63248W        W67316  11.843  19.071  20.600
63249W        W67317  11.813  18.419  19.710
63250W        W67318  13.434  19.261  20.402
63251W        W67319  12.232  20.432  18.602
63252W        W67320  14.230  20.374  20.101
63253W        W67321  11.557  21.132  21.524
63254W        W67322  13.944  21.814  19.321
63255W        W67323  12.043  18.834  19.766
63256W        W67324  11.812  20.327  19.856
63257W        W67325  12.125  21.738  20.606
63258W        W67326  14.192  21.834  21.638
63259W        W67327  13.351  20.022  20.571
63260W        W67328  11.200  19.820  18.486
63261W        W67329  14.334  21.478  19.183
63262W        W67330  14.171  18.802  18.802
63263W        W67331  12.310  18.321  21.205
63264W        W67332  14.016  21.123  19.663
63265W        W67333  14.045  19.679  19.568
63266W        W67334  12.162  19.352  19.784
63267W        W67335  12.407  19.614  21.108
63268W        W67336  13.518  20.767  20.971
63269W        W67337  12.168  19.221  21.083
63270W        W67338  12.147  21.687  19.699
63271W        W67339  11.464  21.646  21.333
63272W        W67340  11.576  21.007  18.463
63273W        W67341  14.093  20.765  19.273
63274W        W67342  11.697  19.557  21.159
63275W        W67343  14.470  19.487  18.640
63276W        W67344  12.215  20.544  19.111
63277W        W67345  13.314  19.926  21.192
63278W        W67346  13.205  19.554  20.736
63279W        W67347  11.765  19.926  20.765
63280W        W67348  13.975  21.814  20.594
63281W        W67349  13.766  18.448  21.588
63282W        W67350  11.430  18.598  21.175
63283W        W67351  11.769  19.621  20.228
63284W        W67352  12.138  19.435  18.350
63285W        W67353  10.941  21.194  20.895
63286W        W67354  12.526  19.903  20.338
63287W        W67355  12.349  18.928  18.443
63288W        W67356  11.484  19.744  19.224
63289W        W67357  11.255  21.596  20.661
63290W        W67358  14.050  19.822  18.769
63291W        W67359  14.145  18.738  21.455
63292W        W67360  13.581  20.947  19.418
63293W        W67361  11.179  19.871  21.595
63294W        W67362  14.145  18.335  18.891
63295W        W67363  13.665  20.810  18.902
63296W        W67364  12.567  19.868  18.987
63297W        W67365  13.754  18.672  18.510
63298W        W67366  13.819  19.279  20.696
63299W        W67367  11.528  19.872  19.903
63300W        W67368  11.822  20.811  19.552
63301W        W67369  13.585  19.431  19.517
63302W        W67370  12.608  18.810  20.213
63303W        W67371  14.570  20.721  20.724
63304W        W67372  14.488  18.708  20.285
63305W        W67373  11.027  21.538  19.661
63306W        W67374  11.536  20.725  19.197
63307W        W67375  11.451  18.342  21.750
63308W        W67376  12.570  21.195  21.852
63309W        W67377  14.325  20.163  19.642
63310W        W67378  13.679  20.340  18.522
63311W        W67379  12.974  21.861  20.734
63312W        W67380  13.831  20.583  21.771
63313W        W67381  12.646  18.293  19.051
63314W        W67382  13.359  19.162  19.910
63315W        W67383  11.045  20.749  20.242
63316W        W67384  12.298  18.711  18.883
63317W        W67385  12.102  20.195  21.732
63318W        W67386  13.096  19.176  19.446
63319W        W67387  13.301  20.586  20.568
63320W        W67388  11.455  21.191  21.003
63321W        W67389  12.046  21.174  21.726
63322W        W67390  11.897  18.971  18.740
63323W        W67391  13.414  19.113  19.065
63324W        W67392  13.372  21.221  21.302
63325W        W67393  12.057  19.813  19.901
63326W        W67394  11.712  21.511  20.766
63327W        W67395  14.457  21.628  18.367
63328W        W67396  11.320  20.300  21.363
63329W        W67397  13.315  20.562  20.051
63330W        W67398  11.751  20.211  19.293
63331W        W67399  12.122  21.218  20.688
63332W        W67400  12.500  18.637  19.729
63333W        W67401  11.111  20.621  18.659
63334W        W67402  12.630  19.572  18.529
63335W        W67403  11.276  20.121  19.548
63336W        W67404  12.566  18.763  21.012
63337W        W67405  14.238  18.472  18.439
63338W        W67406  14.331  20.218  21.538
63339W        W67407  12.985  21.475  21.690
63340W        W67408  14.543  20.569  21.212
63341W        W67409  13.951  21.367  21.823
63342W        W67410  11.690  21.823  20.301
63343W        W67411  14.549  20.445  19.175
63344W        W67412  13.079  19.712  19.688
63345W        W67413  12.846  18.324  19.578
63346W        W67414  11.905  21.308  19.415
63347W        W67415  12.404  19.049  20.640
63348W        W67416  12.104  18.418  20.109
63349W        W67417  11.167  21.240  18.657
63350W        W67418  12.983  20.604  19.375
63351W        W67419  11.858  21.399  21.254
63352W        W67420  11.335  20.222  18.950
63353W        W67421  11.220  18.765  19.949
63354W        W67422  12.768  20.730  20.006
63355W        W67423  11.020  18.584  19.026
63356W        W67424  13.684  19.790  20.953
63357W        W67425  13.561  19.176  18.525
63358W        W67426  14.078  20.848  20.173
63359W        W67427  12.739  21.332  20.004
63360W        W67428  12.151  21.436  18.915
63361W        W67429  13.433  18.339  18.345
63362W        W67430  11.233  21.599  20.086
63363W        W67431  13.430  19.357  21.721
63364W        W67432  11.413  18.887  21.720
63365W        W67433  11.144  19.487  19.053
63366W        W67434  11.835  19.476  18.778
63367W        W67435  13.598  19.803  21.595
63368W        W67436  11.941  20.084  20.304
63369W        W67437  13.415  18.370  19.424
63370W        W67438  12.546  21.801  19.927
63371W        W67439  13.760  21.263  20.864
63372W        W67440  13.344  21.412  19.975
63373W        W67441  13.363  20.392  19.569
63374W        W67442  12.825  18.617  18.640
63375W        W67443  14.506  18.245  19.362
63376W        W67444  12.194  19.880  18.525
63377W        W67445  14.360  19.217  19.515
63378W        W67446  13.052  20.387  18.392
63379W        W67447  13.988  20.587  21.140
63380W        W67448  13.642  21.288  18.607
63381W        W67449  12.257  18.963  21.513
63382W        W67450  12.077  19.547  20.754
63383W        W67451  14.169  21.042  21.031
63384W        W67452  13.269  18.992  21.408
63385W        W67453  11.113  19.463  21.185
63386W        W67454  12.873  19.940  20.911
63387W        W67455  11.230  20.698  19.568
63388W        W67456  11.377  19.995  20.458
63389W        W67457  13.694  20.281  20.808
63390W        W67458  13.466  21.661  21.619
63391W        W67459  13.362  19.400  21.172
63392W        W67460  13.639  21.454  19.577
63393W        W67461  12.641  21.174  20.900
63394W        W67462  12.126  21.529  20.169
63395W        W67463  13.931  20.700  20.588
63396W        W67464  12.981  20.772  21.725
63397W        W67465  11.586  20.725  20.064
63398W        W67466  13.932  20.484  19.709
63399W        W67467  13.573  21.550  20.460
63400W        W67468  11.551  21.279  20.330
63401W        W67469  12.572  19.331  21.540
63402W        W67470  13.023  21.497  19.051
63403W        W67471  12.331  20.752  21.689
63404W        W67472  12.457  20.990  19.066
63405W        W67473  11.678  19.730  18.325
63406W        W67474  14.098  20.439  22.518
63407W        W67475  12.146  21.515  22.071
63408W        W67476  12.229  19.667  23.054
63409W        W67477  11.744  19.515  23.218
63410W        W67478  12.735  20.330  22.652
63411W        W67479  13.164  19.522  22.229
63412W        W67480  12.721  20.757  22.198
63413W        W67481  11.417  18.596  23.033
63414W        W67482  14.105  18.990  21.984
63415W        W67483  14.311  20.964  22.481
63416W        W67484  11.440  21.750  22.235
63417W        W67485  11.833  21.796  22.911
63418W        W67486  13.658  19.990  23.071
63419W        W67487  13.624  19.678  22.098
63420W        W67488  14.109  20.030  22.853
63421W        W67489  13.011  18.688  22.869
63422W        W67490  11.668  21.382  22.552
63423W        W67491  12.624  21.455  22.410
63424W        W67492  14.016  19.481  21.874
63425W        W67493  12.203  20.171  23.137
63426W        W67494  11.673  20.210  21.995
63427W        W67495  11.328  19.243  22.174
63428W        W67496  11.390  21.199  22.968
63429W        W67497  12.521  20.682  23.216
63430W        W67498  12.779  19.183  22.614
63431W        W67499  10.945  19.933  22.808
63432W        W67500  13.260  19.612  22.759
63433W        W67501  13.137  20.102  22.863
63434W        W67502  13.126  18.996  22.320
63435W        W67503  13.525  18.876  23.101
63436W        W67504  12.316  19.303  22.477
63437W        W67505  13.937  19.071  22.822
63438W        W67506  14.304  19.553  22.767
63439W        W67507  11.973  18.306  22.473
63440W        W67508  14.444  21.089  21.953
63441W        W67509  13.268  18.879  21.885
63442W        W67510  12.979  20.956  22.612
63443W        W67511  13.078  21.523  23.204
63444W        W67512  14.252  20.526  22.048
63445W        W67513  12.687  20.009  23.109
63446W        W67514  13.757  19.539  22.727
63447W        W67515  14.044  19.272  22.369
63448W        W67516  13.853  21.312  22.758
63449W        W67517  13.583  19.994  22.532
63450W        W67518  14.236  18.646  22.999
63451W        W67519  12.422  21.522  22.964
63452W        W67520  11.537  18.702  22.222
63453W        W67521  11.669  21.476  21.880
63454W        W67522  12.043  19.942  22.631
63455W        W67523  12.527  18.929  22.934
63456W        W67524  11.875  18.719  22.886
63457W        W67525  11.880  18.947  21.911
63458W        W67526  12.653  20.083  22.218
63459W        W67527  11.921  18.398  21.988
63460W        W67528  12.659  19.479  23.039
63461W        W67529  11.570  18.991  23.253
63462W        W67530  11.356  21.703  22.929
63463W        W67531  11.723  20.518  22.413
63464W        W67532  13.358  20.750  22.099
63465W        W67533  14.509  19.049  22.695
63466W        W67534  10.987  21.710  22.490
63467W        W67535  12.249  21.003  22.145
63468W        W67536  14.154  21.385  22.331
63469W        W67537  13.129  20.038  22.345
63470W        W67538  11.972  19.229  22.862
63471W        W67539  12.804  19.139  21.914
63472W        W67540  13.741  18.610  22.709
63473W        W67541  11.071  18.458  22.157
63474W        W67542  11.898  20.645  21.937
63475W        W67543  11.139  20.886  22.705
63476W        W67544  12.251  18.426  22.970
63477W        W67545  13.310  18.503  22.475
63478W        W67546  11.414  19.004  22.642
63479W        W67547  14.381  19.895  21.943
63480W        W67548  10.935  18.915  22.180
63481W        W67549  12.946  21.781  22.216
63482W        W67550  11.092  20.288  21.913
63483W        W67551  14.493  20.140  22.403
63484W        W67552  13.356  20.472  22.502
63485W        W67553  13.830  21.772  22.197
63486W        W67554  12.424  18.338  22.156
63487W        W67555  13.963  20.937  22.099
63488W        W67556  13.503  21.674  22.613
63489W        W67557  11.964  20.957  22.598
63490W        W67558  13.719  20.455  22.862
63491W        W67559  12.816  21.143  23.050
63492W        W67560  14.566  19.703  23.231
63493W        W67561  13.090  21.187  22.165
63494W        W67562  12.232  20.432  22.247
63495W        W67563  13.944  21.814  22.966
63496W        W67564  11.200  19.820  22.131
63497W        W67565  14.334  21.478  22.828
63498W        W67566  14.171  18.802  22.447
63499W        W67567  14.045  19.679  23.213
63500W        W67568  11.576  21.007  22.108
63501W        W67569  14.093  20.765  22.918
63502W        W67570  14.470  19.487  22.285
63503W        W67571  12.215  20.544  22.756
63504W        W67572  12.138  19.435  21.995
63505W        W67573  12.349  18.928  22.088
63506W        W67574  11.484  19.744  22.869
63507W        W67575  14.050  19.822  22.414
63508W        W67576  13.581  20.947  23.063
63509W        W67577  14.145  18.335  22.536
63510W        W67578  13.665  20.810  22.547
63511W        W67579  12.567  19.868  22.632
63512W        W67580  13.754  18.672  22.155
63513W        W67581  11.822  20.811  23.197
63514W        W67582  13.585  19.431  23.162
63515W        W67583  11.027  21.538  23.306
63516W        W67584  11.536  20.725  22.842
63517W        W67585  14.325  20.163  23.287
63518W        W67586  13.679  20.340  22.167
63519W        W67587  12.646  18.293  22.696
63520W        W67588  12.298  18.711  22.528
63521W        W67589  13.096  19.176  23.091
63522W        W67590  11.897  18.971  22.385
63523W        W67591  13.414  19.113  22.710
63524W        W67592  14.457  21.628  22.012
63525W        W67593  11.111  20.621  22.304
63526W        W67594  12.630  19.572  22.174
63527W        W67595  11.276  20.121  23.193
63528W        W67596  14.238  18.472  22.084
63529W        W67597  14.549  20.445  22.820
63530W        W67598  12.846  18.324  23.223
63531W        W67599  11.905  21.308  23.060
63532W        W67600  11.167  21.240  22.302
63533W        W67601  12.983  20.604  23.020
63534W        W67602  11.335  20.222  22.595
63535W        W67603  11.020  18.584  22.671
63536W        W67604  13.561  19.176  22.170
63537W        W67605  12.151  21.436  22.560
63538W        W67606  13.433  18.339  21.990
63539W        W67607  11.144  19.487  22.698
63540W        W67608  11.835  19.476  22.423
63541W        W67609  13.363  20.392  23.214
63542W        W67610  12.825  18.617  22.285
63543W        W67611  14.506  18.245  23.007
63544W        W67612  12.194  19.880  22.170
63545W        W67613  14.360  19.217  23.160
63546W        W67614  13.052  20.387  22.037
63547W        W67615  13.642  21.288  22.252
63548W        W67616  11.230  20.698  23.213
63549W        W67617  13.639  21.454  23.222
63550W        W67618  13.023  21.497  22.696
63551W        W67619  12.457  20.990  22.711
63552W        W67620  11.678  19.730  21.970
63553W        W67621  11.059  22.628   3.104
63554W        W67622  11.821  21.908   2.906
63555W        W67623  13.515  22.296   1.793
63556W        W67624  13.164  23.167   0.363
63557W        W67625  13.734  22.601   3.454
63558W        W67626  11.100  22.393   2.579
63559W        W67627  12.046  23.076   3.262
63560W        W67628  14.505  22.935   1.761
63561W        W67629  12.246  23.140   2.069
63562W        W67630  11.004  23.124   3.570
63563W        W67631  11.417  22.241   1.167
63564W        W67632  13.820  22.682   2.023
63565W        W67633  14.105  22.635   0.118
63566W        W67634  11.630  22.195   2.471
63567W        W67635  14.253  23.213   2.746
63568W        W67636  12.638  22.797   1.571
63569W        W67637  13.011  22.333   1.003
63570W        W67638  11.039  22.526   1.285
63571W        W67639  13.825  23.133   1.759
63572W        W67640  14.016  23.126   0.008
63573W        W67641  12.225  22.221   2.364
63574W        W67642  14.454  21.983   1.661
63575W        W67643  11.328  22.888   0.308
63576W        W67644  12.779  22.828   0.748
63577W        W67645  13.839  23.079   3.118
63578W        W67646  13.260  23.257   0.893
63579W        W67647  11.480  23.167   2.471
63580W        W67648  11.355  21.960   1.552
63581W        W67649  13.123  22.307   2.113
63582W        W67650  12.771  22.492   3.276
63583W        W67651  13.126  22.641   0.454
63584W        W67652  13.276  22.115   3.247
63585W        W67653  13.725  22.583   2.965
63586W        W67654  13.525  22.521   1.235
63587W        W67655  12.316  22.948   0.611
63588W        W67656  11.885  22.232   3.275
63589W        W67657  13.937  22.716   0.956
63590W        W67658  14.304  23.198   0.901
63591W        W67659  11.973  21.951   0.607
63592W        W67660  14.294  22.485   1.642
63593W        W67661  13.268  22.524   0.019
63594W        W67662  14.441  22.050   2.489
63595W        W67663  13.053  21.872   1.795
63596W        W67664  11.665  22.775   1.858
63597W        W67665  14.272  22.765   2.210
63598W        W67666  14.539  22.165   2.984
63599W        W67667  12.905  22.886   2.023
63600W        W67668  14.044  22.917   0.503
63601W        W67669  11.272  22.652   2.143
63602W        W67670  13.332  22.629   2.606
63603W        W67671  14.236  22.291   1.133
63604W        W67672  11.010  22.931   2.472
63605W        W67673  13.870  22.726   1.490
63606W        W67674  14.281  22.877   3.267
63607W        W67675  11.537  22.347   0.356
63608W        W67676  12.641  22.001   2.166
63609W        W67677  12.527  22.574   1.068
63610W        W67678  13.883  22.171   1.496
63611W        W67679  11.875  22.364   1.020
63612W        W67680  11.880  22.592   0.045
63613W        W67681  12.681  23.201   2.439
63614W        W67682  13.529  22.067   2.309
63615W        W67683  11.921  22.043   0.122
63616W        W67684  12.659  23.124   1.173
63617W        W67685  13.629  22.100   2.872
63618W        W67686  12.922  22.064   3.596
63619W        W67687  12.144  22.680   1.989
63620W        W67688  11.570  22.636   1.387
63621W        W67689  13.030  22.416   1.561
63622W        W67690  14.509  22.694   0.829
63623W        W67691  12.886  22.625   2.430
63624W        W67692  11.972  22.874   0.996
63625W        W67693  12.804  22.784   0.048
63626W        W67694  13.741  22.255   0.843
63627W        W67695  11.071  22.103   0.291
63628W        W67696  12.347  22.161   3.467
63629W        W67697  13.056  22.303   2.823
63630W        W67698  12.251  22.071   1.104
63631W        W67699  13.310  22.148   0.609
63632W        W67700  11.255  22.080   2.186
63633W        W67701  13.992  22.151   1.962
63634W        W67702  11.414  22.649   0.776
63635W        W67703  13.985  22.337   2.392
63636W        W67704  11.673  22.298   1.896
63637W        W67705  12.787  22.870   2.836
63638W        W67706  10.935  22.560   0.314
63639W        W67707  14.107  21.975   2.860
63640W        W67708  14.543  22.296   3.465
63641W        W67709  14.261  23.224   2.086
63642W        W67710  12.424  21.983   0.290
63643W        W67711  11.732  22.675   3.119
63644W        W67712  14.292  22.660   2.779
63645W        W67713  11.992  22.354   2.781
63646W        W67714  11.487  22.726   2.720
63647W        W67715  12.788  21.981   3.084
63648W        W67716  11.843  22.716   2.379
63649W        W67717  11.813  22.064   1.489
63650W        W67718  13.434  22.906   2.181
63651W        W67719  12.043  22.479   1.545
63652W        W67720  14.171  22.447   0.581
63653W        W67721  12.310  21.966   2.984
63654W        W67722  12.162  22.997   1.563
63655W        W67723  12.168  22.866   2.862
63656W        W67724  14.470  23.132   0.419
63657W        W67725  13.205  23.199   2.515
63658W        W67726  13.766  22.093   3.367
63659W        W67727  11.430  22.243   2.954
63660W        W67728  11.769  23.266   2.007
63661W        W67729  12.138  23.080   0.129
63662W        W67730  12.349  22.573   0.222
63663W        W67731  14.145  22.383   3.234
63664W        W67732  14.145  21.980   0.670
63665W        W67733  13.754  22.317   0.289
63666W        W67734  13.819  22.924   2.475
63667W        W67735  12.608  22.455   1.992
63668W        W67736  14.488  22.353   2.064
63669W        W67737  11.451  21.987   3.529
63670W        W67738  12.646  21.938   0.830
63671W        W67739  13.359  22.807   1.689
63672W        W67740  12.298  22.356   0.662
63673W        W67741  13.096  22.821   1.225
63674W        W67742  11.897  22.616   0.519
63675W        W67743  13.414  22.758   0.844
63676W        W67744  12.500  22.282   1.508
63677W        W67745  12.630  23.217   0.308
63678W        W67746  12.566  22.408   2.791
63679W        W67747  14.238  22.117   0.218
63680W        W67748  12.846  21.969   1.357
63681W        W67749  12.404  22.694   2.419
63682W        W67750  12.104  22.063   1.888
63683W        W67751  11.220  22.410   1.728
63684W        W67752  11.020  22.229   0.805
63685W        W67753  13.561  22.821   0.304
63686W        W67754  13.433  21.984   0.124
63687W        W67755  13.430  23.002   3.500
63688W        W67756  11.413  22.532   3.499
63689W        W67757  11.144  23.132   0.832
63690W        W67758  13.415  22.015   1.203
63691W        W67759  12.825  22.262   0.419
63692W        W67760  14.506  21.890   1.141
63693W        W67761  14.360  22.862   1.294
63694W        W67762  12.257  22.608   3.292
63695W        W67763  12.077  23.192   2.533
63696W        W67764  13.269  22.637   3.187
63697W        W67765  11.113  23.108   2.964
63698W        W67766  13.362  23.045   2.951
63699W        W67767  12.572  22.976   3.319
63700W        W67768  11.059  22.628   6.748
63701W        W67769  11.821  21.908   6.550
63702W        W67770  13.515  22.296   5.437
63703W        W67771  13.164  23.167   4.007
63704W        W67772  13.734  22.601   7.098
63705W        W67773  11.100  22.393   6.223
63706W        W67774  12.046  23.076   6.906
63707W        W67775  14.505  22.935   5.405
63708W        W67776  12.246  23.140   5.713
63709W        W67777  11.004  23.124   7.214
63710W        W67778  11.417  22.241   4.811
63711W        W67779  13.820  22.682   5.667
63712W        W67780  14.105  22.635   3.762
63713W        W67781  11.630  22.195   6.115
63714W        W67782  14.253  23.213   6.390
63715W        W67783  12.638  22.797   5.215
63716W        W67784  13.011  22.333   4.647
63717W        W67785  11.039  22.526   4.929
63718W        W67786  13.825  23.133   5.403
63719W        W67787  14.016  23.126   3.652
63720W        W67788  12.225  22.221   6.008
63721W        W67789  14.454  21.983   5.305
63722W        W67790  11.328  22.888   3.952
63723W        W67791  12.779  22.828   4.392
63724W        W67792  13.839  23.079   6.762
63725W        W67793  13.260  23.257   4.537
63726W        W67794  11.480  23.167   6.115
63727W        W67795  11.355  21.960   5.196
63728W        W67796  13.123  22.307   5.757
63729W        W67797  12.771  22.492   6.920
63730W        W67798  13.126  22.641   4.098
63731W        W67799  13.276  22.115   6.891
63732W        W67800  13.725  22.583   6.609
63733W        W67801  13.525  22.521   4.879
63734W        W67802  12.316  22.948   4.255
63735W        W67803  11.885  22.232   6.919
63736W        W67804  13.937  22.716   4.600
63737W        W67805  14.304  23.198   4.545
63738W        W67806  11.973  21.951   4.251
63739W        W67807  14.294  22.485   5.286
63740W        W67808  13.268  22.524   3.663
63741W        W67809  14.441  22.050   6.133
63742W        W67810  13.053  21.872   5.439
63743W        W67811  11.665  22.775   5.502
63744W        W67812  14.272  22.765   5.854
63745W        W67813  14.539  22.165   6.628
63746W        W67814  12.905  22.886   5.667
63747W        W67815  14.044  22.917   4.147
63748W        W67816  11.272  22.652   5.787
63749W        W67817  13.332  22.629   6.250
63750W        W67818  14.236  22.291   4.777
63751W        W67819  11.010  22.931   6.116
63752W        W67820  13.870  22.726   5.134
63753W        W67821  14.281  22.877   6.911
63754W        W67822  11.537  22.347   4.000
63755W        W67823  12.641  22.001   5.810
63756W        W67824  12.527  22.574   4.712
63757W        W67825  13.883  22.171   5.140
63758W        W67826  11.875  22.364   4.664
63759W        W67827  11.880  22.592   3.689
63760W        W67828  12.681  23.201   6.083
63761W        W67829  13.529  22.067   5.953
63762W        W67830  11.921  22.043   3.766
63763W        W67831  12.659  23.124   4.817
63764W        W67832  13.629  22.100   6.516
63765W        W67833  12.922  22.064   7.240
63766W        W67834  12.144  22.680   5.633
63767W        W67835  11.570  22.636   5.031
63768W        W67836  13.030  22.416   5.205
63769W        W67837  14.509  22.694   4.473
63770W        W67838  12.886  22.625   6.074
63771W        W67839  11.972  22.874   4.640
63772W        W67840  12.804  22.784   3.692
63773W        W67841  13.741  22.255   4.487
63774W        W67842  11.071  22.103   3.935
63775W        W67843  12.347  22.161   7.111
63776W        W67844  13.056  22.303   6.467
63777W        W67845  12.251  22.071   4.748
63778W        W67846  13.310  22.148   4.253
63779W        W67847  11.255  22.080   5.830
63780W        W67848  13.992  22.151   5.606
63781W        W67849  11.414  22.649   4.420
63782W        W67850  13.985  22.337   6.036
63783W        W67851  11.673  22.298   5.540
63784W        W67852  12.787  22.870   6.480
63785W        W67853  10.935  22.560   3.958
63786W        W67854  14.107  21.975   6.504
63787W        W67855  14.543  22.296   7.109
63788W        W67856  14.261  23.224   5.730
63789W        W67857  12.424  21.983   3.934
63790W        W67858  11.732  22.675   6.763
63791W        W67859  14.292  22.660   6.423
63792W        W67860  11.992  22.354   6.425
63793W        W67861  11.487  22.726   6.364
63794W        W67862  12.788  21.981   6.728
63795W        W67863  11.843  22.716   6.023
63796W        W67864  11.813  22.064   5.133
63797W        W67865  13.434  22.906   5.825
63798W        W67866  12.043  22.479   5.189
63799W        W67867  14.171  22.447   4.225
63800W        W67868  12.310  21.966   6.628
63801W        W67869  12.162  22.997   5.207
63802W        W67870  12.168  22.866   6.506
63803W        W67871  14.470  23.132   4.063
63804W        W67872  13.205  23.199   6.159
63805W        W67873  13.766  22.093   7.011
63806W        W67874  11.430  22.243   6.598
63807W        W67875  11.769  23.266   5.651
63808W        W67876  12.138  23.080   3.773
63809W        W67877  12.349  22.573   3.866
63810W        W67878  14.145  22.383   6.878
63811W        W67879  14.145  21.980   4.314
63812W        W67880  13.754  22.317   3.933
63813W        W67881  13.819  22.924   6.119
63814W        W67882  12.608  22.455   5.636
63815W        W67883  14.488  22.353   5.708
63816W        W67884  11.451  21.987   7.173
63817W        W67885  12.646  21.938   4.474
63818W        W67886  13.359  22.807   5.333
63819W        W67887  12.298  22.356   4.306
63820W        W67888  13.096  22.821   4.869
63821W        W67889  11.897  22.616   4.163
63822W        W67890  13.414  22.758   4.488
63823W        W67891  12.500  22.282   5.152
63824W        W67892  12.630  23.217   3.952
63825W        W67893  12.566  22.408   6.435
63826W        W67894  14.238  22.117   3.862
63827W        W67895  12.846  21.969   5.001
63828W        W67896  12.404  22.694   6.063
63829W        W67897  12.104  22.063   5.532
63830W        W67898  11.220  22.410   5.372
63831W        W67899  11.020  22.229   4.449
63832W        W67900  13.561  22.821   3.948
63833W        W67901  13.433  21.984   3.768
63834W        W67902  13.430  23.002   7.144
63835W        W67903  11.413  22.532   7.143
63836W        W67904  11.144  23.132   4.476
63837W        W67905  13.415  22.015   4.847
63838W        W67906  12.825  22.262   4.063
63839W        W67907  14.506  21.890   4.785
63840W        W67908  14.360  22.862   4.938
63841W        W67909  12.257  22.608   6.936
63842W        W67910  12.077  23.192   6.177
63843W        W67911  13.269  22.637   6.831
63844W        W67912  11.113  23.108   6.608
63845W        W67913  13.362  23.045   6.595
63846W        W67914  12.572  22.976   6.963
63847W        W67915  11.059  22.628  10.393
63848W        W67916  11.821  21.908  10.195
63849W        W67917  13.515  22.296   9.082
63850W        W67918  13.164  23.167   7.652
63851W        W67919  13.734  22.601  10.743
63852W        W67920  11.100  22.393   9.868
63853W        W67921  12.046  23.076  10.551
63854W        W67922  14.505  22.935   9.050
63855W        W67923  12.246  23.140   9.358
63856W        W67924  11.004  23.124  10.859
63857W        W67925  11.417  22.241   8.456
63858W        W67926  13.820  22.682   9.312
63859W        W67927  14.105  22.635   7.407
63860W        W67928  11.630  22.195   9.760
63861W        W67929  14.253  23.213  10.035
63862W        W67930  12.638  22.797   8.860
63863W        W67931  13.011  22.333   8.292
63864W        W67932  11.039  22.526   8.574
63865W        W67933  13.825  23.133   9.048
63866W        W67934  14.016  23.126   7.297
63867W        W67935  12.225  22.221   9.653
63868W        W67936  14.454  21.983   8.950
63869W        W67937  11.328  22.888   7.597
63870W        W67938  12.779  22.828   8.037
63871W        W67939  13.839  23.079  10.407
63872W        W67940  13.260  23.257   8.182
63873W        W67941  11.480  23.167   9.760
63874W        W67942  11.355  21.960   8.841
63875W        W67943  13.123  22.307   9.402
63876W        W67944  12.771  22.492  10.565
63877W        W67945  13.126  22.641   7.743
63878W        W67946  13.276  22.115  10.536
63879W        W67947  13.725  22.583  10.254
63880W        W67948  13.525  22.521   8.524
63881W        W67949  12.316  22.948   7.900
63882W        W67950  11.885  22.232  10.564
63883W        W67951  13.937  22.716   8.245
63884W        W67952  14.304  23.198   8.190
63885W        W67953  11.973  21.951   7.896
63886W        W67954  14.294  22.485   8.931
63887W        W67955  13.268  22.524   7.308
63888W        W67956  14.441  22.050   9.778
63889W        W67957  13.053  21.872   9.084
63890W        W67958  11.665  22.775   9.147
63891W        W67959  14.272  22.765   9.499
63892W        W67960  14.539  22.165  10.273
63893W        W67961  12.905  22.886   9.312
63894W        W67962  14.044  22.917   7.792
63895W        W67963  11.272  22.652   9.432
63896W        W67964  13.332  22.629   9.895
63897W        W67965  14.236  22.291   8.422
63898W        W67966  11.010  22.931   9.761
63899W        W67967  13.870  22.726   8.779
63900W        W67968  14.281  22.877  10.556
63901W        W67969  11.537  22.347   7.645
63902W        W67970  12.641  22.001   9.455
63903W        W67971  12.527  22.574   8.357
63904W        W67972  13.883  22.171   8.785
63905W        W67973  11.875  22.364   8.309
63906W        W67974  11.880  22.592   7.334
63907W        W67975  12.681  23.201   9.728
63908W        W67976  13.529  22.067   9.598
63909W        W67977  11.921  22.043   7.411
63910W        W67978  12.659  23.124   8.462
63911W        W67979  13.629  22.100  10.161
63912W        W67980  12.922  22.064  10.885
63913W        W67981  12.144  22.680   9.278
63914W        W67982  11.570  22.636   8.676
63915W        W67983  13.030  22.416   8.850
63916W        W67984  14.509  22.694   8.118
63917W        W67985  12.886  22.625   9.719
63918W        W67986  11.972  22.874   8.285
63919W        W67987  12.804  22.784   7.337
63920W        W67988  13.741  22.255   8.132
63921W        W67989  11.071  22.103   7.580
63922W        W67990  12.347  22.161  10.756
63923W        W67991  13.056  22.303  10.112
63924W        W67992  12.251  22.071   8.393
63925W        W67993  13.310  22.148   7.898
63926W        W67994  11.255  22.080   9.475
63927W        W67995  13.992  22.151   9.251
63928W        W67996  11.414  22.649   8.065
63929W        W67997  13.985  22.337   9.681
63930W        W67998  11.673  22.298   9.185
63931W        W67999  12.787  22.870  10.125
63932W        W68000  10.935  22.560   7.603
63933W        W68001  14.107  21.975  10.149
63934W        W68002  14.543  22.296  10.754
63935W        W68003  14.261  23.224   9.375
63936W        W68004  12.424  21.983   7.579
63937W        W68005  11.732  22.675  10.408
63938W        W68006  14.292  22.660  10.068
63939W        W68007  11.992  22.354  10.070
63940W        W68008  11.487  22.726  10.009
63941W        W68009  12.788  21.981  10.373
63942W        W68010  11.843  22.716   9.668
63943W        W68011  11.813  22.064   8.778
63944W        W68012  13.434  22.906   9.470
63945W        W68013  12.043  22.479   8.834
63946W        W68014  14.171  22.447   7.870
63947W        W68015  12.310  21.966  10.273
63948W        W68016  12.162  22.997   8.852
63949W        W68017  12.168  22.866  10.151
63950W        W68018  14.470  23.132   7.708
63951W        W68019  13.205  23.199   9.804
63952W        W68020  13.766  22.093  10.656
63953W        W68021  11.430  22.243  10.243
63954W        W68022  11.769  23.266   9.296
63955W        W68023  12.138  23.080   7.418
63956W        W68024  12.349  22.573   7.511
63957W        W68025  14.145  22.383  10.523
63958W        W68026  14.145  21.980   7.959
63959W        W68027  13.754  22.317   7.578
63960W        W68028  13.819  22.924   9.764
63961W        W68029  12.608  22.455   9.281
63962W        W68030  14.488  22.353   9.353
63963W        W68031  11.451  21.987  10.818
63964W        W68032  12.646  21.938   8.119
63965W        W68033  13.359  22.807   8.978
63966W        W68034  12.298  22.356   7.951
63967W        W68035  13.096  22.821   8.514
63968W        W68036  11.897  22.616   7.808
63969W        W68037  13.414  22.758   8.133
63970W        W68038  12.500  22.282   8.797
63971W        W68039  12.630  23.217   7.597
63972W        W68040  12.566  22.408  10.080
63973W        W68041  14.238  22.117   7.507
63974W        W68042  12.846  21.969   8.646
63975W        W68043  12.404  22.694   9.708
63976W        W68044  12.104  22.063   9.177
63977W        W68045  11.220  22.410   9.017
63978W        W68046  11.020  22.229   8.094
63979W        W68047  13.561  22.821   7.593
63980W        W68048  13.433  21.984   7.413
63981W        W68049  13.430  23.002  10.789
63982W        W68050  11.413  22.532  10.788
63983W        W68051  11.144  23.132   8.121
63984W        W68052  13.415  22.015   8.492
63985W        W68053  12.825  22.262   7.708
63986W        W68054  14.506  21.890   8.430
63987W        W68055  14.360  22.862   8.583
63988W        W68056  12.257  22.608  10.581
63989W        W68057  12.077  23.192   9.822
63990W        W68058  13.269  22.637  10.476
63991W        W68059  11.113  23.108  10.253
63992W        W68060  13.362  23.045  10.240
63993W        W68061  12.572  22.976  10.608
63994W        W68062  11.059  22.628  14.037
63995W        W68063  11.821  21.908  13.839
63996W        W68064  13.515  22.296  12.726
63997W        W68065  13.164  23.167  11.296
63998W        W68066  13.734  22.601  14.387
63999W        W68067  11.100  22.393  13.512
64000W        W68068  12.046  23.076  14.195
64001W        W68069  14.505  22.935  12.694
64002W        W68070  12.246  23.140  13.002
64003W        W68071  11.004  23.124  14.503
64004W        W68072  11.417  22.241  12.100
64005W        W68073  13.820  22.682  12.956
64006W        W68074  14.105  22.635  11.051
64007W        W68075  11.630  22.195  13.404
64008W        W68076  14.253  23.213  13.679
64009W        W68077  12.638  22.797  12.504
64010W        W68078  13.011  22.333  11.936
64011W        W68079  11.039  22.526  12.218
64012W        W68080  13.825  23.133  12.692
64013W        W68081  14.016  23.126  10.941
64014W        W68082  12.225  22.221  13.297
64015W        W68083  14.454  21.983  12.594
64016W        W68084  11.328  22.888  11.241
64017W        W68085  12.779  22.828  11.681
64018W        W68086  13.839  23.079  14.051
64019W        W68087  13.260  23.257  11.826
64020W        W68088  11.480  23.167  13.404
64021W        W68089  11.355  21.960  12.485
64022W        W68090  13.123  22.307  13.046
64023W        W68091  12.771  22.492  14.209
64024W        W68092  13.126  22.641  11.387
64025W        W68093  13.276  22.115  14.180
64026W        W68094  13.725  22.583  13.898
64027W        W68095  13.525  22.521  12.168
64028W        W68096  12.316  22.948  11.544
64029W        W68097  11.885  22.232  14.208
64030W        W68098  13.937  22.716  11.889
64031W        W68099  14.304  23.198  11.834
64032W        W68100  11.973  21.951  11.540
64033W        W68101  14.294  22.485  12.575
64034W        W68102  13.268  22.524  10.952
64035W        W68103  14.441  22.050  13.422
64036W        W68104  13.053  21.872  12.728
64037W        W68105  11.665  22.775  12.791
64038W        W68106  14.272  22.765  13.143
64039W        W68107  14.539  22.165  13.917
64040W        W68108  12.905  22.886  12.956
64041W        W68109  14.044  22.917  11.436
64042W        W68110  11.272  22.652  13.076
64043W        W68111  13.332  22.629  13.539
64044W        W68112  14.236  22.291  12.066
64045W        W68113  11.010  22.931  13.405
64046W        W68114  13.870  22.726  12.423
64047W        W68115  14.281  22.877  14.200
64048W        W68116  11.537  22.347  11.289
64049W        W68117  12.641  22.001  13.099
64050W        W68118  12.527  22.574  12.001
64051W        W68119  13.883  22.171  12.429
64052W        W68120  11.875  22.364  11.953
64053W        W68121  11.880  22.592  10.978
64054W        W68122  12.681  23.201  13.372
64055W        W68123  13.529  22.067  13.242
64056W        W68124  11.921  22.043  11.055
64057W        W68125  12.659  23.124  12.106
64058W        W68126  13.629  22.100  13.805
64059W        W68127  12.922  22.064  14.529
64060W        W68128  12.144  22.680  12.922
64061W        W68129  11.570  22.636  12.320
64062W        W68130  13.030  22.416  12.494
64063W        W68131  14.509  22.694  11.762
64064W        W68132  12.886  22.625  13.363
64065W        W68133  11.972  22.874  11.929
64066W        W68134  12.804  22.784  10.981
64067W        W68135  13.741  22.255  11.776
64068W        W68136  11.071  22.103  11.224
64069W        W68137  12.347  22.161  14.400
64070W        W68138  13.056  22.303  13.756
64071W        W68139  12.251  22.071  12.037
64072W        W68140  13.310  22.148  11.542
64073W        W68141  11.255  22.080  13.119
64074W        W68142  13.992  22.151  12.895
64075W        W68143  11.414  22.649  11.709
64076W        W68144  13.985  22.337  13.325
64077W        W68145  11.673  22.298  12.829
64078W        W68146  12.787  22.870  13.769
64079W        W68147  10.935  22.560  11.247
64080W        W68148  14.107  21.975  13.793
64081W        W68149  14.543  22.296  14.398
64082W        W68150  14.261  23.224  13.019
64083W        W68151  12.424  21.983  11.223
64084W        W68152  11.732  22.675  14.052
64085W        W68153  14.292  22.660  13.712
64086W        W68154  11.992  22.354  13.714
64087W        W68155  11.487  22.726  13.653
64088W        W68156  12.788  21.981  14.017
64089W        W68157  11.843  22.716  13.312
64090W        W68158  11.813  22.064  12.422
64091W        W68159  13.434  22.906  13.114
64092W        W68160  12.043  22.479  12.478
64093W        W68161  14.171  22.447  11.514
64094W        W68162  12.310  21.966  13.917
64095W        W68163  12.162  22.997  12.496
64096W        W68164  12.168  22.866  13.795
64097W        W68165  14.470  23.132  11.352
64098W        W68166  13.205  23.199  13.448
64099W        W68167  13.766  22.093  14.300
64100W        W68168  11.430  22.243  13.887
64101W        W68169  11.769  23.266  12.940
64102W        W68170  12.138  23.080  11.062
64103W        W68171  12.349  22.573  11.155
64104W        W68172  14.145  22.383  14.167
64105W        W68173  14.145  21.980  11.603
64106W        W68174  13.754  22.317  11.222
64107W        W68175  13.819  22.924  13.408
64108W        W68176  12.608  22.455  12.925
64109W        W68177  14.488  22.353  12.997
64110W        W68178  11.451  21.987  14.462
64111W        W68179  12.646  21.938  11.763
64112W        W68180  13.359  22.807  12.622
64113W        W68181  12.298  22.356  11.595
64114W        W68182  13.096  22.821  12.158
64115W        W68183  11.897  22.616  11.452
64116W        W68184  13.414  22.758  11.777
64117W        W68185  12.500  22.282  12.441
64118W        W68186  12.630  23.217  11.241
64119W        W68187  12.566  22.408  13.724
64120W        W68188  14.238  22.117  11.151
64121W        W68189  12.846  21.969  12.290
64122W        W68190  12.404  22.694  13.352
64123W        W68191  12.104  22.063  12.821
64124W        W68192  11.220  22.410  12.661
64125W        W68193  11.020  22.229  11.738
64126W        W68194  13.561  22.821  11.237
64127W        W68195  13.433  21.984  11.057
64128W        W68196  13.430  23.002  14.433
64129W        W68197  11.413  22.532  14.432
64130W        W68198  11.144  23.132  11.765
64131W        W68199  13.415  22.015  12.136
64132W        W68200  12.825  22.262  11.352
64133W        W68201  14.506  21.890  12.074
64134W        W68202  14.360  22.862  12.227
64135W        W68203  12.257  22.608  14.225
64136W        W68204  12.077  23.192  13.466
64137W        W68205  13.269  22.637  14.120
64138W        W68206  11.113  23.108  13.897
64139W        W68207  13.362  23.045  13.884
64140W        W68208  12.572  22.976  14.252
64141W        W68209  11.059  22.628  17.681
64142W        W68210  11.821  21.908  17.483
64143W        W68211  13.515  22.296  16.370
64144W        W68212  13.164  23.167  14.940
64145W        W68213  13.734  22.601  18.031
64146W        W68214  11.100  22.393  17.156
64147W        W68215  12.046  23.076  17.839
64148W        W68216  14.505  22.935  16.338
64149W        W68217  12.246  23.140  16.646
64150W        W68218  11.004  23.124  18.147
64151W        W68219  11.417  22.241  15.744
64152W        W68220  13.820  22.682  16.600
64153W        W68221  14.105  22.635  14.695
64154W        W68222  11.630  22.195  17.048
64155W        W68223  14.253  23.213  17.323
64156W        W68224  12.638  22.797  16.148
64157W        W68225  13.011  22.333  15.580
64158W        W68226  11.039  22.526  15.862
64159W        W68227  13.825  23.133  16.336
64160W        W68228  14.016  23.126  14.585
64161W        W68229  12.225  22.221  16.941
64162W        W68230  14.454  21.983  16.238
64163W        W68231  11.328  22.888  14.885
64164W        W68232  12.779  22.828  15.325
64165W        W68233  13.839  23.079  17.695
64166W        W68234  13.260  23.257  15.470
64167W        W68235  11.480  23.167  17.048
64168W        W68236  11.355  21.960  16.129
64169W        W68237  13.123  22.307  16.690
64170W        W68238  12.771  22.492  17.853
64171W        W68239  13.126  22.641  15.031
64172W        W68240  13.276  22.115  17.824
64173W        W68241  13.725  22.583  17.542
64174W        W68242  13.525  22.521  15.812
64175W        W68243  12.316  22.948  15.188
64176W        W68244  11.885  22.232  17.852
64177W        W68245  13.937  22.716  15.533
64178W        W68246  14.304  23.198  15.478
64179W        W68247  11.973  21.951  15.184
64180W        W68248  14.294  22.485  16.219
64181W        W68249  13.268  22.524  14.596
64182W        W68250  14.441  22.050  17.066
64183W        W68251  13.053  21.872  16.372
64184W        W68252  11.665  22.775  16.435
64185W        W68253  14.272  22.765  16.787
64186W        W68254  14.539  22.165  17.561
64187W        W68255  12.905  22.886  16.600
64188W        W68256  14.044  22.917  15.080
64189W        W68257  11.272  22.652  16.720
64190W        W68258  13.332  22.629  17.183
64191W        W68259  14.236  22.291  15.710
64192W        W68260  11.010  22.931  17.049
64193W        W68261  13.870  22.726  16.067
64194W        W68262  14.281  22.877  17.844
64195W        W68263  11.537  22.347  14.933
64196W        W68264  12.641  22.001  16.743
64197W        W68265  12.527  22.574  15.645
64198W        W68266  13.883  22.171  16.073
64199W        W68267  11.875  22.364  15.597
64200W        W68268  11.880  22.592  14.622
64201W        W68269  12.681  23.201  17.016
64202W        W68270  13.529  22.067  16.886
64203W        W68271  11.921  22.043  14.699
64204W        W68272  12.659  23.124  15.750
64205W        W68273  13.629  22.100  17.449
64206W        W68274  12.922  22.064  18.173
64207W        W68275  12.144  22.680  16.566
64208W        W68276  11.570  22.636  15.964
64209W        W68277  13.030  22.416  16.138
64210W        W68278  14.509  22.694  15.406
64211W        W68279  12.886  22.625  17.007
64212W        W68280  11.972  22.874  15.573
64213W        W68281  12.804  22.784  14.625
64214W        W68282  13.741  22.255  15.420
64215W        W68283  11.071  22.103  14.868
64216W        W68284  12.347  22.161  18.044
64217W        W68285  13.056  22.303  17.400
64218W        W68286  12.251  22.071  15.681
64219W        W68287  13.310  22.148  15.186
64220W        W68288  11.255  22.080  16.763
64221W        W68289  13.992  22.151  16.539
64222W        W68290  11.414  22.649  15.353
64223W        W68291  13.985  22.337  16.969
64224W        W68292  11.673  22.298  16.473
64225W        W68293  12.787  22.870  17.413
64226W        W68294  10.935  22.560  14.891
64227W        W68295  14.107  21.975  17.437
64228W        W68296  14.543  22.296  18.042
64229W        W68297  14.261  23.224  16.663
64230W        W68298  12.424  21.983  14.867
64231W        W68299  11.732  22.675  17.696
64232W        W68300  14.292  22.660  17.356
64233W        W68301  11.992  22.354  17.358
64234W        W68302  11.487  22.726  17.297
64235W        W68303  12.788  21.981  17.661
64236W        W68304  11.843  22.716  16.956
64237W        W68305  11.813  22.064  16.066
64238W        W68306  13.434  22.906  16.758
64239W        W68307  12.043  22.479  16.122
64240W        W68308  14.171  22.447  15.158
64241W        W68309  12.310  21.966  17.561
64242W        W68310  12.162  22.997  16.140
64243W        W68311  12.168  22.866  17.439
64244W        W68312  14.470  23.132  14.996
64245W        W68313  13.205  23.199  17.092
64246W        W68314  13.766  22.093  17.944
64247W        W68315  11.430  22.243  17.531
64248W        W68316  11.769  23.266  16.584
64249W        W68317  12.138  23.080  14.706
64250W        W68318  12.349  22.573  14.799
64251W        W68319  14.145  22.383  17.811
64252W        W68320  14.145  21.980  15.247
64253W        W68321  13.754  22.317  14.866
64254W        W68322  13.819  22.924  17.052
64255W        W68323  12.608  22.455  16.569
64256W        W68324  14.488  22.353  16.641
64257W        W68325  11.451  21.987  18.106
64258W        W68326  12.646  21.938  15.407
64259W        W68327  13.359  22.807  16.266
64260W        W68328  12.298  22.356  15.239
64261W        W68329  13.096  22.821  15.802
64262W        W68330  11.897  22.616  15.096
64263W        W68331  13.414  22.758  15.421
64264W        W68332  12.500  22.282  16.085
64265W        W68333  12.630  23.217  14.885
64266W        W68334  12.566  22.408  17.368
64267W        W68335  14.238  22.117  14.795
64268W        W68336  12.846  21.969  15.934
64269W        W68337  12.404  22.694  16.996
64270W        W68338  12.104  22.063  16.465
64271W        W68339  11.220  22.410  16.305
64272W        W68340  11.020  22.229  15.382
64273W        W68341  13.561  22.821  14.881
64274W        W68342  13.433  21.984  14.701
64275W        W68343  13.430  23.002  18.077
64276W        W68344  11.413  22.532  18.076
64277W        W68345  11.144  23.132  15.409
64278W        W68346  13.415  22.015  15.780
64279W        W68347  12.825  22.262  14.996
64280W        W68348  14.506  21.890  15.718
64281W        W68349  14.360  22.862  15.871
64282W        W68350  12.257  22.608  17.869
64283W        W68351  12.077  23.192  17.110
64284W        W68352  13.269  22.637  17.764
64285W        W68353  11.113  23.108  17.541
64286W        W68354  13.362  23.045  17.528
64287W        W68355  12.572  22.976  17.896
64288W        W68356  11.059  22.628  21.325
64289W        W68357  11.821  21.908  21.127
64290W        W68358  13.515  22.296  20.014
64291W        W68359  13.164  23.167  18.584
64292W        W68360  13.734  22.601  21.675
64293W        W68361  11.100  22.393  20.800
64294W        W68362  12.046  23.076  21.483
64295W        W68363  14.505  22.935  19.982
64296W        W68364  12.246  23.140  20.290
64297W        W68365  11.004  23.124  21.791
64298W        W68366  11.417  22.241  19.388
64299W        W68367  13.820  22.682  20.244
64300W        W68368  14.105  22.635  18.339
64301W        W68369  11.630  22.195  20.692
64302W        W68370  14.253  23.213  20.967
64303W        W68371  12.638  22.797  19.792
64304W        W68372  13.011  22.333  19.224
64305W        W68373  11.039  22.526  19.506
64306W        W68374  13.825  23.133  19.980
64307W        W68375  14.016  23.126  18.229
64308W        W68376  12.225  22.221  20.585
64309W        W68377  14.454  21.983  19.882
64310W        W68378  11.328  22.888  18.529
64311W        W68379  12.779  22.828  18.969
64312W        W68380  13.839  23.079  21.339
64313W        W68381  13.260  23.257  19.114
64314W        W68382  11.480  23.167  20.692
64315W        W68383  11.355  21.960  19.773
64316W        W68384  13.123  22.307  20.334
64317W        W68385  12.771  22.492  21.497
64318W        W68386  13.126  22.641  18.675
64319W        W68387  13.276  22.115  21.468
64320W        W68388  13.725  22.583  21.186
64321W        W68389  13.525  22.521  19.456
64322W        W68390  12.316  22.948  18.832
64323W        W68391  11.885  22.232  21.496
64324W        W68392  13.937  22.716  19.177
64325W        W68393  14.304  23.198  19.122
64326W        W68394  11.973  21.951  18.828
64327W        W68395  14.294  22.485  19.863
64328W        W68396  13.268  22.524  18.240
64329W        W68397  14.441  22.050  20.710
64330W        W68398  13.053  21.872  20.016
64331W        W68399  11.665  22.775  20.079
64332W        W68400  14.272  22.765  20.431
64333W        W68401  14.539  22.165  21.205
64334W        W68402  12.905  22.886  20.244
64335W        W68403  14.044  22.917  18.724
64336W        W68404  11.272  22.652  20.364
64337W        W68405  13.332  22.629  20.827
64338W        W68406  14.236  22.291  19.354
64339W        W68407  11.010  22.931  20.693
64340W        W68408  13.870  22.726  19.711
64341W        W68409  14.281  22.877  21.488
64342W        W68410  11.537  22.347  18.577
64343W        W68411  12.641  22.001  20.387
64344W        W68412  12.527  22.574  19.289
64345W        W68413  13.883  22.171  19.717
64346W        W68414  11.875  22.364  19.241
64347W        W68415  11.880  22.592  18.266
64348W        W68416  12.681  23.201  20.660
64349W        W68417  13.529  22.067  20.530
64350W        W68418  11.921  22.043  18.343
64351W        W68419  12.659  23.124  19.394
64352W        W68420  13.629  22.100  21.093
64353W        W68421  12.922  22.064  21.817
64354W        W68422  12.144  22.680  20.210
64355W        W68423  11.570  22.636  19.608
64356W        W68424  13.030  22.416  19.782
64357W        W68425  14.509  22.694  19.050
64358W        W68426  12.886  22.625  20.651
64359W        W68427  11.972  22.874  19.217
64360W        W68428  12.804  22.784  18.269
64361W        W68429  13.741  22.255  19.064
64362W        W68430  11.071  22.103  18.512
64363W        W68431  12.347  22.161  21.688
64364W        W68432  13.056  22.303  21.044
64365W        W68433  12.251  22.071  19.325
64366W        W68434  13.310  22.148  18.830
64367W        W68435  11.255  22.080  20.407
64368W        W68436  13.992  22.151  20.183
64369W        W68437  11.414  22.649  18.997
64370W        W68438  13.985  22.337  20.613
64371W        W68439  11.673  22.298  20.117
64372W        W68440  12.787  22.870  21.057
64373W        W68441  10.935  22.560  18.535
64374W        W68442  14.107  21.975  21.081
64375W        W68443  14.543  22.296  21.686
64376W        W68444  14.261  23.224  20.307
64377W        W68445  12.424  21.983  18.511
64378W        W68446  11.732  22.675  21.340
64379W        W68447  14.292  22.660  21.000
64380W        W68448  11.992  22.354  21.002
64381W        W68449  11.487  22.726  20.941
64382W        W68450  12.788  21.981  21.305
64383W        W68451  11.843  22.716  20.600
64384W        W68452  11.813  22.064  19.710
64385W        W68453  13.434  22.906  20.402
64386W        W68454  12.043  22.479  19.766
64387W        W68455  14.171  22.447  18.802
64388W        W68456  12.310  21.966  21.205
64389W        W68457  12.162  22.997  19.784
64390W        W68458  12.168  22.866  21.083
64391W        W68459  14.470  23.132  18.640
64392W        W68460  13.205  23.199  20.736
64393W        W68461  13.766  22.093  21.588
64394W        W68462  11.430  22.243  21.175
64395W        W68463  11.769  23.266  20.228
64396W        W68464  12.138  23.080  18.350
64397W        W68465  12.349  22.573  18.443
64398W        W68466  14.145  22.383  21.455
64399W        W68467  14.145  21.980  18.891
64400W        W68468  13.754  22.317  18.510
64401W        W68469  13.819  22.924  20.696
64402W        W68470  12.608  22.455  20.213
64403W        W68471  14.488  22.353  20.285
64404W        W68472  11.451  21.987  21.750
64405W        W68473  12.646  21.938  19.051
64406W        W68474  13.359  22.807  19.910
64407W        W68475  12.298  22.356  18.883
64408W        W68476  13.096  22.821  19.446
64409W        W68477  11.897  22.616  18.740
64410W        W68478  13.414  22.758  19.065
64411W        W68479  12.500  22.282  19.729
64412W        W68480  12.630  23.217  18.529
64413W        W68481  12.566  22.408  21.012
64414W        W68482  14.238  22.117  18.439
64415W        W68483  12.846  21.969  19.578
64416W        W68484  12.404  22.694  20.640
64417W        W68485  12.104  22.063  20.109
64418W        W68486  11.220  22.410  19.949
64419W        W68487  11.020  22.229  19.026
64420W        W68488  13.561  22.821  18.525
64421W        W68489  13.433  21.984  18.345
64422W        W68490  13.430  23.002  21.721
64423W        W68491  11.413  22.532  21.720
64424W        W68492  11.144  23.132  19.053
64425W        W68493  13.415  22.015  19.424
64426W        W68494  12.825  22.262  18.640
64427W        W68495  14.506  21.890  19.362
64428W        W68496  14.360  22.862  19.515
64429W        W68497  12.257  22.608  21.513
64430W        W68498  12.077  23.192  20.754
64431W        W68499  13.269  22.637  21.408
64432W        W68500  11.113  23.108  21.185
64433W        W68501  13.362  23.045  21.172
64434W        W68502  12.572  22.976  21.540
64435W        W68503  13.164  23.167  22.229
64436W        W68504  11.417  22.241  23.033
64437W        W68505  14.105  22.635  21.984
64438W        W68506  13.011  22.333  22.869
64439W        W68507  14.016  23.126  21.874
64440W        W68508  11.328  22.888  22.174
64441W        W68509  12.779  22.828  22.614
64442W        W68510  13.260  23.257  22.759
64443W        W68511  13.126  22.641  22.320
64444W        W68512  13.525  22.521  23.101
64445W        W68513  12.316  22.948  22.477
64446W        W68514  13.937  22.716  22.822
64447W        W68515  14.304  23.198  22.767
64448W        W68516  11.973  21.951  22.473
64449W        W68517  13.268  22.524  21.885
64450W        W68518  14.044  22.917  22.369
64451W        W68519  14.236  22.291  22.999
64452W        W68520  11.537  22.347  22.222
64453W        W68521  12.527  22.574  22.934
64454W        W68522  11.875  22.364  22.886
64455W        W68523  11.880  22.592  21.911
64456W        W68524  11.921  22.043  21.988
64457W        W68525  12.659  23.124  23.039
64458W        W68526  11.570  22.636  23.253
64459W        W68527  14.509  22.694  22.695
64460W        W68528  11.972  22.874  22.862
64461W        W68529  12.804  22.784  21.914
64462W        W68530  13.741  22.255  22.709
64463W        W68531  11.071  22.103  22.157
64464W        W68532  12.251  22.071  22.970
64465W        W68533  13.310  22.148  22.475
64466W        W68534  11.414  22.649  22.642
64467W        W68535  10.935  22.560  22.180
64468W        W68536  12.424  21.983  22.156
64469W        W68537  14.171  22.447  22.447
64470W        W68538  14.470  23.132  22.285
64471W        W68539  12.138  23.080  21.995
64472W        W68540  12.349  22.573  22.088
64473W        W68541  14.145  21.980  22.536
64474W        W68542  13.754  22.317  22.155
64475W        W68543  12.646  21.938  22.696
64476W        W68544  12.298  22.356  22.528
64477W        W68545  13.096  22.821  23.091
64478W        W68546  11.897  22.616  22.385
64479W        W68547  13.414  22.758  22.710
64480W        W68548  12.630  23.217  22.174
64481W        W68549  14.238  22.117  22.084
64482W        W68550  12.846  21.969  23.223
64483W        W68551  11.020  22.229  22.671
64484W        W68552  13.561  22.821  22.170
64485W        W68553  13.433  21.984  21.990
64486W        W68554  11.144  23.132  22.698
64487W        W68555  12.825  22.262  22.285
64488W        W68556  14.506  21.890  23.007
64489W        W68557  14.360  22.862  23.160
64490W        W68558  14.661   3.595   3.359
64491W        W68559  15.037   2.488   2.882
64492W        W68560  17.742   2.218   0.652
64493W        W68561  17.872   3.303   2.679
64494W        W68562  15.790   3.294   0.205
64495W        W68563  15.873   1.446   1.188
64496W        W68564  15.388   1.294   1.352
64497W        W68565  16.379   2.109   0.786
64498W        W68566  16.054   3.201   3.141
64499W        W68567  14.703   0.762   3.104
64500W        W68568  15.465   0.042   2.906
64501W        W68569  17.159   0.430   1.793
64502W        W68570  16.808   1.301   0.363
64503W        W68571  17.378   0.735   3.454
64504W        W68572  14.744   0.527   2.579
64505W        W68573  14.843   3.146   3.600
64506W        W68574  16.365   2.536   0.332
64507W        W68575  14.797   1.319   2.025
64508W        W68576  15.690   1.210   3.262
64509W        W68577  18.149   1.069   1.761
64510W        W68578  17.913   2.112   2.620
64511W        W68579  16.221   1.445   1.647
64512W        W68580  16.767   2.784   2.016
64513W        W68581  15.267   2.218   2.248
64514W        W68582  14.626   1.746   1.819
64515W        W68583  15.662   1.718   3.011
64516W        W68584  17.933   1.501   3.265
64517W        W68585  15.549   2.945   1.710
64518W        W68586  16.670   2.634   2.844
64519W        W68587  15.890   1.274   2.069
64520W        W68588  16.182   2.058   1.712
64521W        W68589  17.179   2.831   3.560
64522W        W68590  16.258   2.151   3.570
64523W        W68591  16.239   1.867   3.048
64524W        W68592  14.648   1.258   3.570
64525W        W68593  17.480   2.793   3.169
64526W        W68594  15.061   0.375   1.167
64527W        W68595  15.588   2.633   2.166
64528W        W68596  18.051   2.416   1.456
64529W        W68597  17.464   0.816   2.023
64530W        W68598  17.749   0.769   0.118
64531W        W68599  18.214   1.570   2.424
64532W        W68600  16.181   3.277   2.177
64533W        W68601  17.955   2.743   0.615
64534W        W68602  15.084   3.529   0.369
64535W        W68603  15.477   3.575   1.045
64536W        W68604  15.274   0.329   2.471
64537W        W68605  17.897   1.347   2.746
64538W        W68606  17.302   1.769   1.205
64539W        W68607  17.268   1.457   0.232
64540W        W68608  16.476   2.601   2.372
64541W        W68609  16.282   0.931   1.571
64542W        W68610  16.882   3.018   2.565
64543W        W68611  17.753   1.809   0.987
64544W        W68612  16.655   0.467   1.003
64545W        W68613  15.312   3.161   0.686
64546W        W68614  14.683   0.660   1.285
64547W        W68615  17.469   1.267   1.759
64548W        W68616  14.927   2.884   1.674
64549W        W68617  16.268   3.234   0.544
64550W        W68618  17.660   1.260   0.008
64551W        W68619  14.683   3.018   2.172
64552W        W68620  15.474   2.590   2.652
64553W        W68621  15.847   1.950   1.271
64554W        W68622  15.869   0.355   2.364
64555W        W68623  18.098   0.117   1.661
64556W        W68624  15.317   1.989   0.129
64557W        W68625  14.972   1.022   0.308
64558W        W68626  15.034   2.978   1.102
64559W        W68627  16.165   2.461   1.350
64560W        W68628  17.497   3.320   3.064
64561W        W68629  16.423   0.962   0.748
64562W        W68630  17.806   3.360   1.520
64563W        W68631  17.483   1.213   3.118
64564W        W68632  18.196   2.869   1.252
64565W        W68633  16.823   2.161   2.736
64566W        W68634  14.589   1.712   0.942
64567W        W68635  15.700   2.127   2.515
64568W        W68636  16.904   1.391   0.893
64569W        W68637  16.781   1.881   0.997
64570W        W68638  15.124   1.301   2.471
64571W        W68639  15.109   1.177   3.393
64572W        W68640  14.999   0.094   1.552
64573W        W68641  16.767   0.441   2.113
64574W        W68642  16.415   0.626   3.276
64575W        W68643  16.770   0.775   0.454
64576W        W68644  17.953   3.168   3.208
64577W        W68645  16.920   0.249   3.247
64578W        W68646  17.939   2.550   3.369
64579W        W68647  17.369   0.717   2.965
64580W        W68648  17.169   0.655   1.235
64581W        W68649  17.562   1.789   3.639
64582W        W68650  15.302   3.365   1.625
64583W        W68651  15.960   1.082   0.611
64584W        W68652  15.529   0.366   3.275
64585W        W68653  17.581   0.850   0.956
64586W        W68654  17.948   1.332   0.901
64587W        W68655  15.617   0.085   0.607
64588W        W68656  17.938   0.619   1.642
64589W        W68657  18.088   2.868   0.087
64590W        W68658  14.995   2.071   1.789
64591W        W68659  16.912   0.658   0.019
64592W        W68660  18.046   2.990   1.739
64593W        W68661  18.085   0.184   2.489
64594W        W68662  16.530   1.396   3.043
64595W        W68663  16.623   2.735   0.746
64596W        W68664  17.023   2.029   3.486
64597W        W68665  16.697   0.006   1.795
64598W        W68666  15.309   0.909   1.858
64599W        W68667  14.863   2.109   2.632
64600W        W68668  16.722   3.302   1.338
64601W        W68669  17.916   0.899   2.210
64602W        W68670  16.553   3.246   2.977
64603W        W68671  17.896   2.305   0.182
64604W        W68672  16.331   1.788   1.243
64605W        W68673  18.183   0.299   2.984
64606W        W68674  16.332   2.134   2.578
64607W        W68675  16.549   1.020   2.023
64608W        W68676  17.401   1.318   0.861
64609W        W68677  17.688   1.051   0.503
64610W        W68678  17.497   3.091   0.892
64611W        W68679  17.331   2.694   1.688
64612W        W68680  17.227   1.773   0.666
64613W        W68681  16.660   1.983   1.652
64614W        W68682  17.541   1.771   1.719
64615W        W68683  14.916   0.786   2.143
64616W        W68684  17.694   1.838   2.970
64617W        W68685  18.045   3.456   2.116
64618W        W68686  15.975   2.900   1.518
64619W        W68687  16.982   3.433   2.842
64620W        W68688  16.976   0.763   2.606
64621W        W68689  16.183   3.471   2.667
64622W        W68690  17.880   0.425   1.133
64623W        W68691  17.671   1.744   2.434
64624W        W68692  14.654   1.065   2.472
64625W        W68693  17.514   0.860   1.490
64626W        W68694  17.925   1.011   3.267
64627W        W68695  16.810   2.710   1.485
64628W        W68696  16.066   3.301   1.098
64629W        W68697  15.181   0.481   0.356
64630W        W68698  16.285   0.135   2.166
64631W        W68699  15.313   3.255   0.014
64632W        W68700  15.687   1.721   0.765
64633W        W68701  16.341   2.350   3.078
64634W        W68702  16.171   0.708   1.068
64635W        W68703  17.527   0.305   1.496
64636W        W68704  17.247   3.587   1.824
64637W        W68705  16.659   3.235   2.164
64638W        W68706  16.055   2.272   2.125
64639W        W68707  17.825   2.995   2.251
64640W        W68708  15.519   0.498   1.020
64641W        W68709  16.041   2.795   1.980
64642W        W68710  15.524   0.726   0.045
64643W        W68711  16.325   1.335   2.439
64644W        W68712  17.173   0.201   2.309
64645W        W68713  14.593   2.044   2.194
64646W        W68714  16.297   1.862   0.352
64647W        W68715  15.565   0.177   0.122
64648W        W68716  16.303   1.258   1.173
64649W        W68717  17.273   0.234   2.872
64650W        W68718  15.861   2.246   2.981
64651W        W68719  16.665   2.028   3.198
64652W        W68720  17.282   2.058   3.091
64653W        W68721  16.566   0.198   3.596
64654W        W68722  15.788   0.814   1.989
64655W        W68723  15.214   0.770   1.387
64656W        W68724  15.000   3.482   1.063
64657W        W68725  16.332   2.812   3.188
64658W        W68726  15.367   2.297   0.547
64659W        W68727  17.047   1.682   1.768
64660W        W68728  17.327   1.481   2.167
64661W        W68729  16.532   2.155   2.101
64662W        W68730  17.002   2.529   0.233
64663W        W68731  16.674   0.550   1.561
64664W        W68732  18.153   0.828   0.829
64665W        W68733  14.647   3.417   2.860
64666W        W68734  15.064   2.643   2.392
64667W        W68735  14.631   3.489   0.624
64668W        W68736  16.530   0.759   2.430
64669W        W68737  15.893   2.782   0.279
64670W        W68738  17.798   3.164   0.465
64671W        W68739  16.773   1.817   0.479
64672W        W68740  15.616   1.008   0.996
64673W        W68741  16.448   0.918   0.048
64674W        W68742  17.032   2.483   3.226
64675W        W68743  17.385   0.389   0.843
64676W        W68744  14.715   0.237   0.291
64677W        W68745  16.001   2.556   2.581
64678W        W68746  15.800   2.472   1.673
64679W        W68747  15.542   2.424   0.071
64680W        W68748  14.783   2.665   0.839
64681W        W68749  15.287   1.735   3.281
64682W        W68750  15.991   0.295   3.467
64683W        W68751  16.700   0.437   2.823
64684W        W68752  15.895   0.205   1.104
64685W        W68753  16.954   0.282   0.609
64686W        W68754  14.899   0.214   2.186
64687W        W68755  14.947   1.177   1.556
64688W        W68756  17.636   0.285   1.962
64689W        W68757  15.058   0.783   0.776
64690W        W68758  17.629   0.471   2.392
64691W        W68759  18.025   1.674   0.077
64692W        W68760  15.317   0.432   1.896
64693W        W68761  16.431   1.004   2.836
64694W        W68762  14.579   0.694   0.314
64695W        W68763  15.365   2.083   2.875
64696W        W68764  16.723   1.481   2.054
64697W        W68765  16.590   3.560   0.350
64698W        W68766  14.736   2.067   0.047
64699W        W68767  15.471   2.478   3.173
64700W        W68768  14.992   1.645   2.804
64701W        W68769  15.983   1.750   2.598
64702W        W68770  17.751   0.109   2.860
64703W        W68771  18.149   1.719   2.851
64704W        W68772  18.137   1.919   0.537
64705W        W68773  17.000   2.251   0.636
64706W        W68774  17.474   3.551   0.331
64707W        W68775  16.651   1.541   3.473
64708W        W68776  14.981   2.508   3.513
64709W        W68777  18.187   0.430   3.465
64710W        W68778  17.905   1.358   2.086
64711W        W68779  16.213   3.488   3.563
64712W        W68780  16.068   0.117   0.290
64713W        W68781  17.607   2.716   0.233
64714W        W68782  15.376   0.809   3.119
64715W        W68783  15.810   2.803   2.981
64716W        W68784  17.936   0.794   2.779
64717W        W68785  17.147   3.453   0.747
64718W        W68786  17.386   2.072   2.114
64719W        W68787  15.636   0.488   2.781
64720W        W68788  16.105   1.557   3.538
64721W        W68789  15.608   2.736   0.732
64722W        W68790  17.363   2.234   0.996
64723W        W68791  15.131   0.860   2.720
64724W        W68792  16.460   2.922   1.184
64725W        W68793  18.210   1.482   1.365
64726W        W68794  16.432   0.115   3.084
64727W        W68795  17.212   2.820   2.163
64728W        W68796  17.515   3.164   1.871
64729W        W68797  16.734   2.966   0.299
64730W        W68798  14.744   2.858   3.141
64731W        W68799  15.487   0.850   2.379
64732W        W68800  15.457   0.198   1.489
64733W        W68801  17.078   1.040   2.181
64734W        W68802  15.876   2.211   0.381
64735W        W68803  17.874   2.153   1.880
64736W        W68804  15.201   2.911   3.303
64737W        W68805  17.588   3.593   1.100
64738W        W68806  15.687   0.613   1.545
64739W        W68807  15.456   2.106   1.635
64740W        W68808  15.769   3.517   2.385
64741W        W68809  17.836   3.613   3.417
64742W        W68810  16.995   1.801   2.350
64743W        W68811  14.844   1.599   0.265
64744W        W68812  17.978   3.257   0.962
64745W        W68813  17.815   0.581   0.581
64746W        W68814  15.954   0.100   2.984
64747W        W68815  17.660   2.902   1.442
64748W        W68816  17.689   1.458   1.347
64749W        W68817  15.806   1.131   1.563
64750W        W68818  16.051   1.393   2.887
64751W        W68819  17.162   2.546   2.750
64752W        W68820  15.812   1.000   2.862
64753W        W68821  15.791   3.466   1.478
64754W        W68822  15.108   3.425   3.112
64755W        W68823  15.220   2.786   0.242
64756W        W68824  17.737   2.544   1.052
64757W        W68825  15.341   1.336   2.938
64758W        W68826  18.114   1.266   0.419
64759W        W68827  15.859   2.323   0.890
64760W        W68828  16.958   1.705   2.971
64761W        W68829  16.849   1.333   2.515
64762W        W68830  15.409   1.705   2.544
64763W        W68831  17.619   3.593   2.373
64764W        W68832  17.410   0.227   3.367
64765W        W68833  15.074   0.377   2.954
64766W        W68834  15.413   1.400   2.007
64767W        W68835  15.782   1.214   0.129
64768W        W68836  14.585   2.973   2.674
64769W        W68837  16.170   1.682   2.117
64770W        W68838  15.993   0.707   0.222
64771W        W68839  15.128   1.523   1.003
64772W        W68840  14.899   3.375   2.440
64773W        W68841  17.694   1.601   0.548
64774W        W68842  17.789   0.517   3.234
64775W        W68843  17.225   2.726   1.197
64776W        W68844  14.823   1.650   3.374
64777W        W68845  17.789   0.114   0.670
64778W        W68846  17.309   2.589   0.681
64779W        W68847  16.211   1.647   0.766
64780W        W68848  17.398   0.451   0.289
64781W        W68849  17.463   1.058   2.475
64782W        W68850  15.172   1.651   1.682
64783W        W68851  15.466   2.590   1.331
64784W        W68852  17.229   1.210   1.296
64785W        W68853  16.252   0.589   1.992
64786W        W68854  18.214   2.500   2.503
64787W        W68855  18.132   0.487   2.064
64788W        W68856  14.671   3.317   1.440
64789W        W68857  15.180   2.504   0.976
64790W        W68858  15.095   0.121   3.529
64791W        W68859  16.214   2.974   3.631
64792W        W68860  17.969   1.942   1.421
64793W        W68861  17.323   2.119   0.301
64794W        W68862  16.618   3.640   2.513
64795W        W68863  17.475   2.362   3.550
64796W        W68864  16.290   0.072   0.830
64797W        W68865  17.003   0.941   1.689
64798W        W68866  14.689   2.528   2.021
64799W        W68867  15.942   0.490   0.662
64800W        W68868  15.746   1.974   3.511
64801W        W68869  16.740   0.955   1.225
64802W        W68870  16.945   2.365   2.347
64803W        W68871  15.099   2.970   2.782
64804W        W68872  15.690   2.953   3.505
64805W        W68873  15.541   0.750   0.519
64806W        W68874  17.058   0.892   0.844
64807W        W68875  17.016   3.000   3.081
64808W        W68876  15.701   1.592   1.680
64809W        W68877  15.356   3.290   2.545
64810W        W68878  18.101   3.407   0.146
64811W        W68879  14.964   2.079   3.142
64812W        W68880  16.959   2.341   1.830
64813W        W68881  15.395   1.990   1.072
64814W        W68882  15.766   2.997   2.467
64815W        W68883  16.144   0.416   1.508
64816W        W68884  14.755   2.400   0.438
64817W        W68885  16.274   1.351   0.308
64818W        W68886  14.920   1.900   1.327
64819W        W68887  16.210   0.542   2.791
64820W        W68888  17.882   0.251   0.218
64821W        W68889  17.975   1.997   3.317
64822W        W68890  16.629   3.254   3.469
64823W        W68891  18.187   2.348   2.991
64824W        W68892  17.595   3.146   3.602
64825W        W68893  15.334   3.602   2.080
64826W        W68894  18.193   2.224   0.954
64827W        W68895  16.723   1.491   1.467
64828W        W68896  16.490   0.103   1.357
64829W        W68897  15.549   3.087   1.194
64830W        W68898  16.048   0.828   2.419
64831W        W68899  15.748   0.197   1.888
64832W        W68900  14.811   3.019   0.436
64833W        W68901  16.627   2.383   1.154
64834W        W68902  15.502   3.178   3.033
64835W        W68903  14.979   2.001   0.729
64836W        W68904  14.864   0.544   1.728
64837W        W68905  16.412   2.509   1.785
64838W        W68906  14.664   0.363   0.805
64839W        W68907  17.328   1.569   2.732
64840W        W68908  17.205   0.955   0.304
64841W        W68909  17.722   2.627   1.952
64842W        W68910  16.383   3.111   1.783
64843W        W68911  15.795   3.215   0.694
64844W        W68912  17.077   0.118   0.124
64845W        W68913  14.877   3.378   1.865
64846W        W68914  17.074   1.136   3.500
64847W        W68915  15.057   0.666   3.499
64848W        W68916  14.788   1.266   0.832
64849W        W68917  15.479   1.255   0.557
64850W        W68918  17.242   1.582   3.374
64851W        W68919  15.585   1.863   2.083
64852W        W68920  17.059   0.149   1.203
64853W        W68921  16.190   3.580   1.706
64854W        W68922  17.404   3.042   2.643
64855W        W68923  16.988   3.191   1.754
64856W        W68924  17.007   2.171   1.348
64857W        W68925  16.469   0.396   0.419
64858W        W68926  18.150   0.024   1.141
64859W        W68927  15.838   1.659   0.304
64860W        W68928  18.004   0.996   1.294
64861W        W68929  16.696   2.166   0.171
64862W        W68930  17.632   2.366   2.919
64863W        W68931  17.286   3.067   0.386
64864W        W68932  15.901   0.742   3.292
64865W        W68933  15.721   1.326   2.533
64866W        W68934  17.813   2.821   2.810
64867W        W68935  16.913   0.771   3.187
64868W        W68936  14.757   1.242   2.964
64869W        W68937  16.517   1.719   2.690
64870W        W68938  14.874   2.477   1.347
64871W        W68939  15.021   1.774   2.237
64872W        W68940  17.338   2.060   2.587
64873W        W68941  17.110   3.440   3.398
64874W        W68942  17.006   1.179   2.951
64875W        W68943  17.283   3.233   1.356
64876W        W68944  16.285   2.953   2.679
64877W        W68945  15.770   3.308   1.948
64878W        W68946  17.575   2.479   2.367
64879W        W68947  16.625   2.551   3.504
64880W        W68948  15.230   2.504   1.843
64881W        W68949  17.576   2.263   1.488
64882W        W68950  17.217   3.329   2.239
64883W        W68951  15.195   3.058   2.109
64884W        W68952  16.216   1.110   3.319
64885W        W68953  16.667   3.276   0.830
64886W        W68954  15.975   2.531   3.468
64887W        W68955  16.101   2.769   0.845
64888W        W68956  15.322   1.509   0.104
64889W        W68957  14.661   3.595   7.003
64890W        W68958  15.037   2.488   6.526
64891W        W68959  17.742   2.218   4.296
64892W        W68960  17.872   3.303   6.323
64893W        W68961  15.790   3.294   3.849
64894W        W68962  15.873   1.446   4.832
64895W        W68963  15.388   1.294   4.996
64896W        W68964  16.379   2.109   4.430
64897W        W68965  16.054   3.201   6.785
64898W        W68966  14.703   0.762   6.748
64899W        W68967  15.465   0.042   6.550
64900W        W68968  17.159   0.430   5.437
64901W        W68969  16.808   1.301   4.007
64902W        W68970  17.378   0.735   7.098
64903W        W68971  14.744   0.527   6.223
64904W        W68972  14.843   3.146   7.244
64905W        W68973  16.365   2.536   3.976
64906W        W68974  14.797   1.319   5.669
64907W        W68975  15.690   1.210   6.906
64908W        W68976  18.149   1.069   5.405
64909W        W68977  17.913   2.112   6.264
64910W        W68978  16.221   1.445   5.291
64911W        W68979  16.767   2.784   5.660
64912W        W68980  15.267   2.218   5.892
64913W        W68981  14.626   1.746   5.463
64914W        W68982  15.662   1.718   6.655
64915W        W68983  17.933   1.501   6.909
64916W        W68984  15.549   2.945   5.354
64917W        W68985  16.670   2.634   6.488
64918W        W68986  15.890   1.274   5.713
64919W        W68987  16.182   2.058   5.356
64920W        W68988  17.179   2.831   7.204
64921W        W68989  16.258   2.151   7.214
64922W        W68990  16.239   1.867   6.692
64923W        W68991  14.648   1.258   7.214
64924W        W68992  17.480   2.793   6.813
64925W        W68993  15.061   0.375   4.811
64926W        W68994  15.588   2.633   5.810
64927W        W68995  18.051   2.416   5.100
64928W        W68996  17.464   0.816   5.667
64929W        W68997  17.749   0.769   3.762
64930W        W68998  18.214   1.570   6.068
64931W        W68999  16.181   3.277   5.821
64932W        W69000  17.955   2.743   4.259
64933W        W69001  15.084   3.529   4.013
64934W        W69002  15.477   3.575   4.689
64935W        W69003  15.274   0.329   6.115
64936W        W69004  17.897   1.347   6.390
64937W        W69005  17.302   1.769   4.849
64938W        W69006  17.268   1.457   3.876
64939W        W69007  16.476   2.601   6.016
64940W        W69008  16.282   0.931   5.215
64941W        W69009  16.882   3.018   6.209
64942W        W69010  17.753   1.809   4.631
64943W        W69011  16.655   0.467   4.647
64944W        W69012  15.312   3.161   4.330
64945W        W69013  14.683   0.660   4.929
64946W        W69014  17.469   1.267   5.403
64947W        W69015  14.927   2.884   5.318
64948W        W69016  16.268   3.234   4.188
64949W        W69017  17.660   1.260   3.652
64950W        W69018  14.683   3.018   5.816
64951W        W69019  15.474   2.590   6.296
64952W        W69020  15.847   1.950   4.915
64953W        W69021  15.869   0.355   6.008
64954W        W69022  18.098   0.117   5.305
64955W        W69023  15.317   1.989   3.773
64956W        W69024  14.972   1.022   3.952
64957W        W69025  15.034   2.978   4.746
64958W        W69026  16.165   2.461   4.994
64959W        W69027  17.497   3.320   6.708
64960W        W69028  16.423   0.962   4.392
64961W        W69029  17.806   3.360   5.164
64962W        W69030  17.483   1.213   6.762
64963W        W69031  18.196   2.869   4.896
64964W        W69032  16.823   2.161   6.380
64965W        W69033  14.589   1.712   4.586
64966W        W69034  15.700   2.127   6.159
64967W        W69035  16.904   1.391   4.537
64968W        W69036  16.781   1.881   4.641
64969W        W69037  15.124   1.301   6.115
64970W        W69038  15.109   1.177   7.037
64971W        W69039  14.999   0.094   5.196
64972W        W69040  16.767   0.441   5.757
64973W        W69041  16.415   0.626   6.920
64974W        W69042  16.770   0.775   4.098
64975W        W69043  17.953   3.168   6.852
64976W        W69044  16.920   0.249   6.891
64977W        W69045  17.939   2.550   7.013
64978W        W69046  17.369   0.717   6.609
64979W        W69047  17.169   0.655   4.879
64980W        W69048  17.562   1.789   7.283
64981W        W69049  15.302   3.365   5.269
64982W        W69050  15.960   1.082   4.255
64983W        W69051  15.529   0.366   6.919
64984W        W69052  17.581   0.850   4.600
64985W        W69053  17.948   1.332   4.545
64986W        W69054  15.691   3.549   7.016
64987W        W69055  15.617   0.085   4.251
64988W        W69056  17.938   0.619   5.286
64989W        W69057  18.088   2.868   3.731
64990W        W69058  14.995   2.071   5.433
64991W        W69059  16.912   0.658   3.663
64992W        W69060  18.046   2.990   5.383
64993W        W69061  18.085   0.184   6.133
64994W        W69062  16.530   1.396   6.687
64995W        W69063  16.623   2.735   4.390
64996W        W69064  17.023   2.029   7.130
64997W        W69065  16.697   0.006   5.439
64998W        W69066  15.309   0.909   5.502
64999W        W69067  14.863   2.109   6.276
65000W        W69068  16.722   3.302   4.982
65001W        W69069  17.916   0.899   5.854
65002W        W69070  16.553   3.246   6.621
65003W        W69071  17.896   2.305   3.826
65004W        W69072  16.331   1.788   4.887
65005W        W69073  18.183   0.299   6.628
65006W        W69074  16.332   2.134   6.222
65007W        W69075  16.549   1.020   5.667
65008W        W69076  17.401   1.318   4.505
65009W        W69077  17.688   1.051   4.147
65010W        W69078  17.497   3.091   4.536
65011W        W69079  17.331   2.694   5.332
65012W        W69080  17.227   1.773   4.310
65013W        W69081  16.660   1.983   5.296
65014W        W69082  17.541   1.771   5.363
65015W        W69083  14.916   0.786   5.787
65016W        W69084  17.694   1.838   6.614
65017W        W69085  18.045   3.456   5.760
65018W        W69086  15.975   2.900   5.162
65019W        W69087  16.982   3.433   6.486
65020W        W69088  16.976   0.763   6.250
65021W        W69089  16.183   3.471   6.311
65022W        W69090  17.880   0.425   4.777
65023W        W69091  17.671   1.744   6.078
65024W        W69092  14.654   1.065   6.116
65025W        W69093  17.514   0.860   5.134
65026W        W69094  17.925   1.011   6.911
65027W        W69095  16.810   2.710   5.129
65028W        W69096  16.066   3.301   4.742
65029W        W69097  15.181   0.481   4.000
65030W        W69098  16.285   0.135   5.810
65031W        W69099  15.313   3.255   3.658
65032W        W69100  15.687   1.721   4.409
65033W        W69101  16.341   2.350   6.722
65034W        W69102  16.171   0.708   4.712
65035W        W69103  17.527   0.305   5.140
65036W        W69104  17.247   3.587   5.468
65037W        W69105  16.659   3.235   5.808
65038W        W69106  16.055   2.272   5.769
65039W        W69107  17.825   2.995   5.895
65040W        W69108  15.519   0.498   4.664
65041W        W69109  16.041   2.795   5.624
65042W        W69110  15.524   0.726   3.689
65043W        W69111  16.325   1.335   6.083
65044W        W69112  17.173   0.201   5.953
65045W        W69113  14.593   2.044   5.838
65046W        W69114  16.297   1.862   3.996
65047W        W69115  15.565   0.177   3.766
65048W        W69116  16.303   1.258   4.817
65049W        W69117  17.273   0.234   6.516
65050W        W69118  15.861   2.246   6.625
65051W        W69119  16.665   2.028   6.842
65052W        W69120  17.282   2.058   6.735
65053W        W69121  16.566   0.198   7.240
65054W        W69122  15.788   0.814   5.633
65055W        W69123  15.214   0.770   5.031
65056W        W69124  15.000   3.482   4.707
65057W        W69125  16.332   2.812   6.832
65058W        W69126  15.367   2.297   4.191
65059W        W69127  17.047   1.682   5.412
65060W        W69128  17.327   1.481   5.811
65061W        W69129  16.532   2.155   5.745
65062W        W69130  17.002   2.529   3.877
65063W        W69131  16.674   0.550   5.205
65064W        W69132  18.153   0.828   4.473
65065W        W69133  14.647   3.417   6.504
65066W        W69134  15.064   2.643   6.036
65067W        W69135  14.631   3.489   4.268
65068W        W69136  16.530   0.759   6.074
65069W        W69137  15.893   2.782   3.923
65070W        W69138  17.798   3.164   4.109
65071W        W69139  16.773   1.817   4.123
65072W        W69140  15.616   1.008   4.640
65073W        W69141  16.448   0.918   3.692
65074W        W69142  17.032   2.483   6.870
65075W        W69143  17.385   0.389   4.487
65076W        W69144  14.715   0.237   3.935
65077W        W69145  16.001   2.556   6.225
65078W        W69146  15.800   2.472   5.317
65079W        W69147  15.542   2.424   3.715
65080W        W69148  14.783   2.665   4.483
65081W        W69149  15.287   1.735   6.925
65082W        W69150  15.991   0.295   7.111
65083W        W69151  16.700   0.437   6.467
65084W        W69152  15.895   0.205   4.748
65085W        W69153  16.954   0.282   4.253
65086W        W69154  14.899   0.214   5.830
65087W        W69155  14.947   1.177   5.200
65088W        W69156  17.636   0.285   5.606
65089W        W69157  15.058   0.783   4.420
65090W        W69158  17.629   0.471   6.036
65091W        W69159  18.025   1.674   3.721
65092W        W69160  15.317   0.432   5.540
65093W        W69161  16.431   1.004   6.480
65094W        W69162  14.579   0.694   3.958
65095W        W69163  15.365   2.083   6.519
65096W        W69164  16.723   1.481   5.698
65097W        W69165  16.590   3.560   3.994
65098W        W69166  14.736   2.067   3.691
65099W        W69167  15.471   2.478   6.817
65100W        W69168  14.992   1.645   6.448
65101W        W69169  15.983   1.750   6.242
65102W        W69170  17.751   0.109   6.504
65103W        W69171  18.149   1.719   6.495
65104W        W69172  18.137   1.919   4.181
65105W        W69173  17.000   2.251   4.280
65106W        W69174  17.474   3.551   3.975
65107W        W69175  16.651   1.541   7.117
65108W        W69176  14.981   2.508   7.157
65109W        W69177  18.187   0.430   7.109
65110W        W69178  17.905   1.358   5.730
65111W        W69179  16.213   3.488   7.207
65112W        W69180  16.068   0.117   3.934
65113W        W69181  17.607   2.716   3.877
65114W        W69182  15.376   0.809   6.763
65115W        W69183  15.810   2.803   6.625
65116W        W69184  17.936   0.794   6.423
65117W        W69185  17.147   3.453   4.391
65118W        W69186  17.386   2.072   5.758
65119W        W69187  15.636   0.488   6.425
65120W        W69188  16.105   1.557   7.182
65121W        W69189  15.608   2.736   4.376
65122W        W69190  17.363   2.234   4.640
65123W        W69191  15.131   0.860   6.364
65124W        W69192  16.460   2.922   4.828
65125W        W69193  18.210   1.482   5.009
65126W        W69194  16.432   0.115   6.728
65127W        W69195  17.212   2.820   5.807
65128W        W69196  17.515   3.164   5.515
65129W        W69197  16.734   2.966   3.943
65130W        W69198  14.744   2.858   6.785
65131W        W69199  15.487   0.850   6.023
65132W        W69200  15.457   0.198   5.133
65133W        W69201  17.078   1.040   5.825
65134W        W69202  15.876   2.211   4.025
65135W        W69203  17.874   2.153   5.524
65136W        W69204  15.201   2.911   6.947
65137W        W69205  17.588   3.593   4.744
65138W        W69206  15.687   0.613   5.189
65139W        W69207  15.456   2.106   5.279
65140W        W69208  15.769   3.517   6.029
65141W        W69209  17.836   3.613   7.061
65142W        W69210  16.995   1.801   5.994
65143W        W69211  14.844   1.599   3.909
65144W        W69212  17.978   3.257   4.606
65145W        W69213  17.815   0.581   4.225
65146W        W69214  15.954   0.100   6.628
65147W        W69215  17.660   2.902   5.086
65148W        W69216  17.689   1.458   4.991
65149W        W69217  15.806   1.131   5.207
65150W        W69218  16.051   1.393   6.531
65151W        W69219  17.162   2.546   6.394
65152W        W69220  15.812   1.000   6.506
65153W        W69221  15.791   3.466   5.122
65154W        W69222  15.108   3.425   6.756
65155W        W69223  15.220   2.786   3.886
65156W        W69224  17.737   2.544   4.696
65157W        W69225  15.341   1.336   6.582
65158W        W69226  18.114   1.266   4.063
65159W        W69227  15.859   2.323   4.534
65160W        W69228  16.958   1.705   6.615
65161W        W69229  16.849   1.333   6.159
65162W        W69230  15.409   1.705   6.188
65163W        W69231  17.619   3.593   6.017
65164W        W69232  17.410   0.227   7.011
65165W        W69233  15.074   0.377   6.598
65166W        W69234  15.413   1.400   5.651
65167W        W69235  15.782   1.214   3.773
65168W        W69236  14.585   2.973   6.318
65169W        W69237  16.170   1.682   5.761
65170W        W69238  15.993   0.707   3.866
65171W        W69239  15.128   1.523   4.647
65172W        W69240  14.899   3.375   6.084
65173W        W69241  17.694   1.601   4.192
65174W        W69242  17.789   0.517   6.878
65175W        W69243  17.225   2.726   4.841
65176W        W69244  14.823   1.650   7.018
65177W        W69245  17.789   0.114   4.314
65178W        W69246  17.309   2.589   4.325
65179W        W69247  16.211   1.647   4.410
65180W        W69248  17.398   0.451   3.933
65181W        W69249  17.463   1.058   6.119
65182W        W69250  15.172   1.651   5.326
65183W        W69251  15.466   2.590   4.975
65184W        W69252  17.229   1.210   4.940
65185W        W69253  16.252   0.589   5.636
65186W        W69254  18.214   2.500   6.147
65187W        W69255  18.132   0.487   5.708
65188W        W69256  14.671   3.317   5.084
65189W        W69257  15.180   2.504   4.620
65190W        W69258  15.095   0.121   7.173
65191W        W69259  16.214   2.974   7.275
65192W        W69260  17.969   1.942   5.065
65193W        W69261  17.323   2.119   3.945
65194W        W69262  16.618   3.640   6.157
65195W        W69263  17.475   2.362   7.194
65196W        W69264  16.290   0.072   4.474
65197W        W69265  17.003   0.941   5.333
65198W        W69266  14.689   2.528   5.665
65199W        W69267  15.942   0.490   4.306
65200W        W69268  15.746   1.974   7.155
65201W        W69269  16.740   0.955   4.869
65202W        W69270  16.945   2.365   5.991
65203W        W69271  15.099   2.970   6.426
65204W        W69272  15.690   2.953   7.149
65205W        W69273  15.541   0.750   4.163
65206W        W69274  17.058   0.892   4.488
65207W        W69275  17.016   3.000   6.725
65208W        W69276  15.701   1.592   5.324
65209W        W69277  15.356   3.290   6.189
65210W        W69278  18.101   3.407   3.790
65211W        W69279  14.964   2.079   6.786
65212W        W69280  16.959   2.341   5.474
65213W        W69281  15.395   1.990   4.716
65214W        W69282  15.766   2.997   6.111
65215W        W69283  16.144   0.416   5.152
65216W        W69284  14.755   2.400   4.082
65217W        W69285  16.274   1.351   3.952
65218W        W69286  14.920   1.900   4.971
65219W        W69287  16.210   0.542   6.435
65220W        W69288  17.882   0.251   3.862
65221W        W69289  17.975   1.997   6.961
65222W        W69290  16.629   3.254   7.113
65223W        W69291  18.187   2.348   6.635
65224W        W69292  17.595   3.146   7.246
65225W        W69293  15.334   3.602   5.724
65226W        W69294  18.193   2.224   4.598
65227W        W69295  16.723   1.491   5.111
65228W        W69296  16.490   0.103   5.001
65229W        W69297  15.549   3.087   4.838
65230W        W69298  16.048   0.828   6.063
65231W        W69299  15.748   0.197   5.532
65232W        W69300  14.811   3.019   4.080
65233W        W69301  16.627   2.383   4.798
65234W        W69302  15.502   3.178   6.677
65235W        W69303  14.979   2.001   4.373
65236W        W69304  14.864   0.544   5.372
65237W        W69305  16.412   2.509   5.429
65238W        W69306  14.664   0.363   4.449
65239W        W69307  17.328   1.569   6.376
65240W        W69308  17.205   0.955   3.948
65241W        W69309  17.722   2.627   5.596
65242W        W69310  16.383   3.111   5.427
65243W        W69311  15.795   3.215   4.338
65244W        W69312  17.077   0.118   3.768
65245W        W69313  14.877   3.378   5.509
65246W        W69314  17.074   1.136   7.144
65247W        W69315  15.057   0.666   7.143
65248W        W69316  14.788   1.266   4.476
65249W        W69317  15.479   1.255   4.201
65250W        W69318  17.242   1.582   7.018
65251W        W69319  15.585   1.863   5.727
65252W        W69320  17.059   0.149   4.847
65253W        W69321  16.190   3.580   5.350
65254W        W69322  17.404   3.042   6.287
65255W        W69323  16.988   3.191   5.398
65256W        W69324  17.007   2.171   4.992
65257W        W69325  16.469   0.396   4.063
65258W        W69326  18.150   0.024   4.785
65259W        W69327  15.838   1.659   3.948
65260W        W69328  18.004   0.996   4.938
65261W        W69329  16.696   2.166   3.815
65262W        W69330  17.632   2.366   6.563
65263W        W69331  17.286   3.067   4.030
65264W        W69332  15.901   0.742   6.936
65265W        W69333  15.721   1.326   6.177
65266W        W69334  17.813   2.821   6.454
65267W        W69335  16.913   0.771   6.831
65268W        W69336  14.757   1.242   6.608
65269W        W69337  16.517   1.719   6.334
65270W        W69338  14.874   2.477   4.991
65271W        W69339  15.021   1.774   5.881
65272W        W69340  17.338   2.060   6.231
65273W        W69341  17.110   3.440   7.042
65274W        W69342  17.006   1.179   6.595
65275W        W69343  17.283   3.233   5.000
65276W        W69344  16.285   2.953   6.323
65277W        W69345  15.770   3.308   5.592
65278W        W69346  17.575   2.479   6.011
65279W        W69347  16.625   2.551   7.148
65280W        W69348  15.230   2.504   5.487
65281W        W69349  17.576   2.263   5.132
65282W        W69350  17.217   3.329   5.883
65283W        W69351  15.195   3.058   5.753
65284W        W69352  16.216   1.110   6.963
65285W        W69353  16.667   3.276   4.474
65286W        W69354  15.975   2.531   7.112
65287W        W69355  16.101   2.769   4.489
65288W        W69356  15.322   1.509   3.748
65289W        W69357  14.661   3.595  10.648
65290W        W69358  15.037   2.488  10.171
65291W        W69359  17.742   2.218   7.941
65292W        W69360  17.872   3.303   9.968
65293W        W69361  15.790   3.294   7.494
65294W        W69362  15.873   1.446   8.477
65295W        W69363  15.388   1.294   8.641
65296W        W69364  16.379   2.109   8.075
65297W        W69365  16.054   3.201  10.430
65298W        W69366  14.703   0.762  10.393
65299W        W69367  15.465   0.042  10.195
65300W        W69368  17.159   0.430   9.082
65301W        W69369  16.808   1.301   7.652
65302W        W69370  17.378   0.735  10.743
65303W        W69371  14.744   0.527   9.868
65304W        W69372  14.843   3.146  10.889
65305W        W69373  16.365   2.536   7.621
65306W        W69374  14.797   1.319   9.314
65307W        W69375  15.690   1.210  10.551
65308W        W69376  18.149   1.069   9.050
65309W        W69377  17.913   2.112   9.909
65310W        W69378  16.221   1.445   8.936
65311W        W69379  16.767   2.784   9.305
65312W        W69380  15.267   2.218   9.537
65313W        W69381  14.626   1.746   9.108
65314W        W69382  15.662   1.718  10.300
65315W        W69383  17.933   1.501  10.554
65316W        W69384  15.549   2.945   8.999
65317W        W69385  16.670   2.634  10.133
65318W        W69386  15.890   1.274   9.358
65319W        W69387  16.182   2.058   9.001
65320W        W69388  17.179   2.831  10.849
65321W        W69389  16.258   2.151  10.859
65322W        W69390  16.239   1.867  10.337
65323W        W69391  14.648   1.258  10.859
65324W        W69392  17.480   2.793  10.458
65325W        W69393  15.061   0.375   8.456
65326W        W69394  15.588   2.633   9.455
65327W        W69395  18.051   2.416   8.745
65328W        W69396  17.464   0.816   9.312
65329W        W69397  17.749   0.769   7.407
65330W        W69398  18.214   1.570   9.713
65331W        W69399  16.181   3.277   9.466
65332W        W69400  17.955   2.743   7.904
65333W        W69401  15.084   3.529   7.658
65334W        W69402  15.477   3.575   8.334
65335W        W69403  15.274   0.329   9.760
65336W        W69404  17.897   1.347  10.035
65337W        W69405  17.302   1.769   8.494
65338W        W69406  17.268   1.457   7.521
65339W        W69407  16.476   2.601   9.661
65340W        W69408  16.282   0.931   8.860
65341W        W69409  16.882   3.018   9.854
65342W        W69410  17.753   1.809   8.276
65343W        W69411  16.655   0.467   8.292
65344W        W69412  15.312   3.161   7.975
65345W        W69413  14.683   0.660   8.574
65346W        W69414  17.469   1.267   9.048
65347W        W69415  14.927   2.884   8.963
65348W        W69416  16.268   3.234   7.833
65349W        W69417  17.660   1.260   7.297
65350W        W69418  14.683   3.018   9.461
65351W        W69419  15.474   2.590   9.941
65352W        W69420  15.847   1.950   8.560
65353W        W69421  15.869   0.355   9.653
65354W        W69422  18.098   0.117   8.950
65355W        W69423  15.317   1.989   7.418
65356W        W69424  14.972   1.022   7.597
65357W        W69425  15.034   2.978   8.391
65358W        W69426  16.165   2.461   8.639
65359W        W69427  17.497   3.320  10.353
65360W        W69428  16.423   0.962   8.037
65361W        W69429  17.806   3.360   8.809
65362W        W69430  17.483   1.213  10.407
65363W        W69431  18.196   2.869   8.541
65364W        W69432  16.823   2.161  10.025
65365W        W69433  14.589   1.712   8.231
65366W        W69434  15.700   2.127   9.804
65367W        W69435  16.904   1.391   8.182
65368W        W69436  16.781   1.881   8.286
65369W        W69437  15.124   1.301   9.760
65370W        W69438  15.109   1.177  10.682
65371W        W69439  14.999   0.094   8.841
65372W        W69440  16.767   0.441   9.402
65373W        W69441  16.415   0.626  10.565
65374W        W69442  16.770   0.775   7.743
65375W        W69443  17.953   3.168  10.497
65376W        W69444  16.920   0.249  10.536
65377W        W69445  17.939   2.550  10.658
65378W        W69446  17.369   0.717  10.254
65379W        W69447  17.169   0.655   8.524
65380W        W69448  17.562   1.789  10.928
65381W        W69449  15.302   3.365   8.914
65382W        W69450  15.960   1.082   7.900
65383W        W69451  15.529   0.366  10.564
65384W        W69452  17.581   0.850   8.245
65385W        W69453  17.948   1.332   8.190
65386W        W69454  15.691   3.549  10.661
65387W        W69455  15.617   0.085   7.896
65388W        W69456  17.938   0.619   8.931
65389W        W69457  18.088   2.868   7.376
65390W        W69458  14.995   2.071   9.078
65391W        W69459  16.912   0.658   7.308
65392W        W69460  18.046   2.990   9.028
65393W        W69461  18.085   0.184   9.778
65394W        W69462  16.530   1.396  10.332
65395W        W69463  16.623   2.735   8.035
65396W        W69464  17.023   2.029  10.775
65397W        W69465  16.697   0.006   9.084
65398W        W69466  15.309   0.909   9.147
65399W        W69467  14.863   2.109   9.921
65400W        W69468  16.722   3.302   8.627
65401W        W69469  17.916   0.899   9.499
65402W        W69470  16.553   3.246  10.266
65403W        W69471  17.896   2.305   7.471
65404W        W69472  16.331   1.788   8.532
65405W        W69473  18.183   0.299  10.273
65406W        W69474  16.332   2.134   9.867
65407W        W69475  16.549   1.020   9.312
65408W        W69476  17.401   1.318   8.150
65409W        W69477  17.688   1.051   7.792
65410W        W69478  17.497   3.091   8.181
65411W        W69479  17.331   2.694   8.977
65412W        W69480  17.227   1.773   7.955
65413W        W69481  16.660   1.983   8.941
65414W        W69482  17.541   1.771   9.008
65415W        W69483  14.916   0.786   9.432
65416W        W69484  17.694   1.838  10.259
65417W        W69485  18.045   3.456   9.405
65418W        W69486  15.975   2.900   8.807
65419W        W69487  16.982   3.433  10.131
65420W        W69488  16.976   0.763   9.895
65421W        W69489  16.183   3.471   9.956
65422W        W69490  17.880   0.425   8.422
65423W        W69491  17.671   1.744   9.723
65424W        W69492  14.654   1.065   9.761
65425W        W69493  17.514   0.860   8.779
65426W        W69494  17.925   1.011  10.556
65427W        W69495  16.810   2.710   8.774
65428W        W69496  16.066   3.301   8.387
65429W        W69497  15.181   0.481   7.645
65430W        W69498  16.285   0.135   9.455
65431W        W69499  15.313   3.255   7.303
65432W        W69500  15.687   1.721   8.054
65433W        W69501  16.341   2.350  10.367
65434W        W69502  16.171   0.708   8.357
65435W        W69503  17.527   0.305   8.785
65436W        W69504  17.247   3.587   9.113
65437W        W69505  16.659   3.235   9.453
65438W        W69506  16.055   2.272   9.414
65439W        W69507  17.825   2.995   9.540
65440W        W69508  15.519   0.498   8.309
65441W        W69509  16.041   2.795   9.269
65442W        W69510  15.524   0.726   7.334
65443W        W69511  16.325   1.335   9.728
65444W        W69512  17.173   0.201   9.598
65445W        W69513  14.593   2.044   9.483
65446W        W69514  16.297   1.862   7.641
65447W        W69515  15.565   0.177   7.411
65448W        W69516  16.303   1.258   8.462
65449W        W69517  17.273   0.234  10.161
65450W        W69518  15.861   2.246  10.270
65451W        W69519  16.665   2.028  10.487
65452W        W69520  17.282   2.058  10.380
65453W        W69521  16.566   0.198  10.885
65454W        W69522  15.788   0.814   9.278
65455W        W69523  15.214   0.770   8.676
65456W        W69524  15.000   3.482   8.352
65457W        W69525  16.332   2.812  10.477
65458W        W69526  15.367   2.297   7.836
65459W        W69527  17.047   1.682   9.057
65460W        W69528  17.327   1.481   9.456
65461W        W69529  16.532   2.155   9.390
65462W        W69530  17.002   2.529   7.522
65463W        W69531  16.674   0.550   8.850
65464W        W69532  18.153   0.828   8.118
65465W        W69533  14.647   3.417  10.149
65466W        W69534  15.064   2.643   9.681
65467W        W69535  14.631   3.489   7.913
65468W        W69536  16.530   0.759   9.719
65469W        W69537  15.893   2.782   7.568
65470W        W69538  17.798   3.164   7.754
65471W        W69539  16.773   1.817   7.768
65472W        W69540  15.616   1.008   8.285
65473W        W69541  16.448   0.918   7.337
65474W        W69542  17.032   2.483  10.515
65475W        W69543  17.385   0.389   8.132
65476W        W69544  14.715   0.237   7.580
65477W        W69545  16.001   2.556   9.870
65478W        W69546  15.800   2.472   8.962
65479W        W69547  15.542   2.424   7.360
65480W        W69548  14.783   2.665   8.128
65481W        W69549  15.287   1.735  10.570
65482W        W69550  15.991   0.295  10.756
65483W        W69551  16.700   0.437  10.112
65484W        W69552  15.895   0.205   8.393
65485W        W69553  16.954   0.282   7.898
65486W        W69554  14.899   0.214   9.475
65487W        W69555  14.947   1.177   8.845
65488W        W69556  17.636   0.285   9.251
65489W        W69557  15.058   0.783   8.065
65490W        W69558  17.629   0.471   9.681
65491W        W69559  18.025   1.674   7.366
65492W        W69560  15.317   0.432   9.185
65493W        W69561  16.431   1.004  10.125
65494W        W69562  14.579   0.694   7.603
65495W        W69563  15.365   2.083  10.164
65496W        W69564  16.723   1.481   9.343
65497W        W69565  16.590   3.560   7.639
65498W        W69566  14.736   2.067   7.336
65499W        W69567  15.471   2.478  10.462
65500W        W69568  14.992   1.645  10.093
65501W        W69569  15.983   1.750   9.887
65502W        W69570  17.751   0.109  10.149
65503W        W69571  18.149   1.719  10.140
65504W        W69572  18.137   1.919   7.826
65505W        W69573  17.000   2.251   7.925
65506W        W69574  17.474   3.551   7.620
65507W        W69575  16.651   1.541  10.762
65508W        W69576  14.981   2.508  10.802
65509W        W69577  18.187   0.430  10.754
65510W        W69578  17.905   1.358   9.375
65511W        W69579  16.213   3.488  10.852
65512W        W69580  16.068   0.117   7.579
65513W        W69581  17.607   2.716   7.522
65514W        W69582  15.376   0.809  10.408
65515W        W69583  15.810   2.803  10.270
65516W        W69584  17.936   0.794  10.068
65517W        W69585  17.147   3.453   8.036
65518W        W69586  17.386   2.072   9.403
65519W        W69587  15.636   0.488  10.070
65520W        W69588  16.105   1.557  10.827
65521W        W69589  15.608   2.736   8.021
65522W        W69590  17.363   2.234   8.285
65523W        W69591  15.131   0.860  10.009
65524W        W69592  16.460   2.922   8.473
65525W        W69593  18.210   1.482   8.654
65526W        W69594  16.432   0.115  10.373
65527W        W69595  17.212   2.820   9.452
65528W        W69596  17.515   3.164   9.160
65529W        W69597  16.734   2.966   7.588
65530W        W69598  14.744   2.858  10.430
65531W        W69599  15.487   0.850   9.668
65532W        W69600  15.457   0.198   8.778
65533W        W69601  17.078   1.040   9.470
65534W        W69602  15.876   2.211   7.670
65535W        W69603  17.874   2.153   9.169
65536W        W69604  15.201   2.911  10.592
65537W        W69605  17.588   3.593   8.389
65538W        W69606  15.687   0.613   8.834
65539W        W69607  15.456   2.106   8.924
65540W        W69608  15.769   3.517   9.674
65541W        W69609  17.836   3.613  10.706
65542W        W69610  16.995   1.801   9.639
65543W        W69611  14.844   1.599   7.554
65544W        W69612  17.978   3.257   8.251
65545W        W69613  17.815   0.581   7.870
65546W        W69614  15.954   0.100  10.273
65547W        W69615  17.660   2.902   8.731
65548W        W69616  17.689   1.458   8.636
65549W        W69617  15.806   1.131   8.852
65550W        W69618  16.051   1.393  10.176
65551W        W69619  17.162   2.546  10.039
65552W        W69620  15.812   1.000  10.151
65553W        W69621  15.791   3.466   8.767
65554W        W69622  15.108   3.425  10.401
65555W        W69623  15.220   2.786   7.531
65556W        W69624  17.737   2.544   8.341
65557W        W69625  15.341   1.336  10.227
65558W        W69626  18.114   1.266   7.708
65559W        W69627  15.859   2.323   8.179
65560W        W69628  16.958   1.705  10.260
65561W        W69629  16.849   1.333   9.804
65562W        W69630  15.409   1.705   9.833
65563W        W69631  17.619   3.593   9.662
65564W        W69632  17.410   0.227  10.656
65565W        W69633  15.074   0.377  10.243
65566W        W69634  15.413   1.400   9.296
65567W        W69635  15.782   1.214   7.418
65568W        W69636  14.585   2.973   9.963
65569W        W69637  16.170   1.682   9.406
65570W        W69638  15.993   0.707   7.511
65571W        W69639  15.128   1.523   8.292
65572W        W69640  14.899   3.375   9.729
65573W        W69641  17.694   1.601   7.837
65574W        W69642  17.789   0.517  10.523
65575W        W69643  17.225   2.726   8.486
65576W        W69644  14.823   1.650  10.663
65577W        W69645  17.789   0.114   7.959
65578W        W69646  17.309   2.589   7.970
65579W        W69647  16.211   1.647   8.055
65580W        W69648  17.398   0.451   7.578
65581W        W69649  17.463   1.058   9.764
65582W        W69650  15.172   1.651   8.971
65583W        W69651  15.466   2.590   8.620
65584W        W69652  17.229   1.210   8.585
65585W        W69653  16.252   0.589   9.281
65586W        W69654  18.214   2.500   9.792
65587W        W69655  18.132   0.487   9.353
65588W        W69656  14.671   3.317   8.729
65589W        W69657  15.180   2.504   8.265
65590W        W69658  15.095   0.121  10.818
65591W        W69659  16.214   2.974  10.920
65592W        W69660  17.969   1.942   8.710
65593W        W69661  17.323   2.119   7.590
65594W        W69662  16.618   3.640   9.802
65595W        W69663  17.475   2.362  10.839
65596W        W69664  16.290   0.072   8.119
65597W        W69665  17.003   0.941   8.978
65598W        W69666  14.689   2.528   9.310
65599W        W69667  15.942   0.490   7.951
65600W        W69668  15.746   1.974  10.800
65601W        W69669  16.740   0.955   8.514
65602W        W69670  16.945   2.365   9.636
65603W        W69671  15.099   2.970  10.071
65604W        W69672  15.690   2.953  10.794
65605W        W69673  15.541   0.750   7.808
65606W        W69674  17.058   0.892   8.133
65607W        W69675  17.016   3.000  10.370
65608W        W69676  15.701   1.592   8.969
65609W        W69677  15.356   3.290   9.834
65610W        W69678  18.101   3.407   7.435
65611W        W69679  14.964   2.079  10.431
65612W        W69680  16.959   2.341   9.119
65613W        W69681  15.395   1.990   8.361
65614W        W69682  15.766   2.997   9.756
65615W        W69683  16.144   0.416   8.797
65616W        W69684  14.755   2.400   7.727
65617W        W69685  16.274   1.351   7.597
65618W        W69686  14.920   1.900   8.616
65619W        W69687  16.210   0.542  10.080
65620W        W69688  17.882   0.251   7.507
65621W        W69689  17.975   1.997  10.606
65622W        W69690  16.629   3.254  10.758
65623W        W69691  18.187   2.348  10.280
65624W        W69692  17.595   3.146  10.891
65625W        W69693  15.334   3.602   9.369
65626W        W69694  18.193   2.224   8.243
65627W        W69695  16.723   1.491   8.756
65628W        W69696  16.490   0.103   8.646
65629W        W69697  15.549   3.087   8.483
65630W        W69698  16.048   0.828   9.708
65631W        W69699  15.748   0.197   9.177
65632W        W69700  14.811   3.019   7.725
65633W        W69701  16.627   2.383   8.443
65634W        W69702  15.502   3.178  10.322
65635W        W69703  14.979   2.001   8.018
65636W        W69704  14.864   0.544   9.017
65637W        W69705  16.412   2.509   9.074
65638W        W69706  14.664   0.363   8.094
65639W        W69707  17.328   1.569  10.021
65640W        W69708  17.205   0.955   7.593
65641W        W69709  17.722   2.627   9.241
65642W        W69710  16.383   3.111   9.072
65643W        W69711  15.795   3.215   7.983
65644W        W69712  17.077   0.118   7.413
65645W        W69713  14.877   3.378   9.154
65646W        W69714  17.074   1.136  10.789
65647W        W69715  15.057   0.666  10.788
65648W        W69716  14.788   1.266   8.121
65649W        W69717  15.479   1.255   7.846
65650W        W69718  17.242   1.582  10.663
65651W        W69719  15.585   1.863   9.372
65652W        W69720  17.059   0.149   8.492
65653W        W69721  16.190   3.580   8.995
65654W        W69722  17.404   3.042   9.932
65655W        W69723  16.988   3.191   9.043
65656W        W69724  17.007   2.171   8.637
65657W        W69725  16.469   0.396   7.708
65658W        W69726  18.150   0.024   8.430
65659W        W69727  15.838   1.659   7.593
65660W        W69728  18.004   0.996   8.583
65661W        W69729  16.696   2.166   7.460
65662W        W69730  17.632   2.366  10.208
65663W        W69731  17.286   3.067   7.675
65664W        W69732  15.901   0.742  10.581
65665W        W69733  15.721   1.326   9.822
65666W        W69734  17.813   2.821  10.099
65667W        W69735  16.913   0.771  10.476
65668W        W69736  14.757   1.242  10.253
65669W        W69737  16.517   1.719   9.979
65670W        W69738  14.874   2.477   8.636
65671W        W69739  15.021   1.774   9.526
65672W        W69740  17.338   2.060   9.876
65673W        W69741  17.110   3.440  10.687
65674W        W69742  17.006   1.179  10.240
65675W        W69743  17.283   3.233   8.645
65676W        W69744  16.285   2.953   9.968
65677W        W69745  15.770   3.308   9.237
65678W        W69746  17.575   2.479   9.656
65679W        W69747  16.625   2.551  10.793
65680W        W69748  15.230   2.504   9.132
65681W        W69749  17.576   2.263   8.777
65682W        W69750  17.217   3.329   9.528
65683W        W69751  15.195   3.058   9.398
65684W        W69752  16.216   1.110  10.608
65685W        W69753  16.667   3.276   8.119
65686W        W69754  15.975   2.531  10.757
65687W        W69755  16.101   2.769   8.134
65688W        W69756  15.322   1.509   7.393
65689W        W69757  14.661   3.595  14.292
65690W        W69758  15.037   2.488  13.815
65691W        W69759  17.742   2.218  11.585
65692W        W69760  17.872   3.303  13.612
65693W        W69761  15.790   3.294  11.138
65694W        W69762  15.873   1.446  12.121
65695W        W69763  15.388   1.294  12.285
65696W        W69764  16.379   2.109  11.719
65697W        W69765  16.054   3.201  14.074
65698W        W69766  14.703   0.762  14.037
65699W        W69767  15.465   0.042  13.839
65700W        W69768  17.159   0.430  12.726
65701W        W69769  16.808   1.301  11.296
65702W        W69770  17.378   0.735  14.387
65703W        W69771  14.744   0.527  13.512
65704W        W69772  14.843   3.146  14.533
65705W        W69773  16.365   2.536  11.265
65706W        W69774  14.797   1.319  12.958
65707W        W69775  15.690   1.210  14.195
65708W        W69776  18.149   1.069  12.694
65709W        W69777  17.913   2.112  13.553
65710W        W69778  16.221   1.445  12.580
65711W        W69779  16.767   2.784  12.949
65712W        W69780  15.267   2.218  13.181
65713W        W69781  14.626   1.746  12.752
65714W        W69782  15.662   1.718  13.944
65715W        W69783  17.933   1.501  14.198
65716W        W69784  15.549   2.945  12.643
65717W        W69785  16.670   2.634  13.777
65718W        W69786  15.890   1.274  13.002
65719W        W69787  16.182   2.058  12.645
65720W        W69788  17.179   2.831  14.493
65721W        W69789  16.258   2.151  14.503
65722W        W69790  16.239   1.867  13.981
65723W        W69791  14.648   1.258  14.503
65724W        W69792  17.480   2.793  14.102
65725W        W69793  15.061   0.375  12.100
65726W        W69794  15.588   2.633  13.099
65727W        W69795  18.051   2.416  12.389
65728W        W69796  17.464   0.816  12.956
65729W        W69797  17.749   0.769  11.051
65730W        W69798  18.214   1.570  13.357
65731W        W69799  16.181   3.277  13.110
65732W        W69800  17.955   2.743  11.548
65733W        W69801  15.084   3.529  11.302
65734W        W69802  15.477   3.575  11.978
65735W        W69803  15.274   0.329  13.404
65736W        W69804  17.897   1.347  13.679
65737W        W69805  17.302   1.769  12.138
65738W        W69806  17.268   1.457  11.165
65739W        W69807  16.476   2.601  13.305
65740W        W69808  16.282   0.931  12.504
65741W        W69809  16.882   3.018  13.498
65742W        W69810  17.753   1.809  11.920
65743W        W69811  16.655   0.467  11.936
65744W        W69812  15.312   3.161  11.619
65745W        W69813  14.683   0.660  12.218
65746W        W69814  17.469   1.267  12.692
65747W        W69815  14.927   2.884  12.607
65748W        W69816  16.268   3.234  11.477
65749W        W69817  17.660   1.260  10.941
65750W        W69818  14.683   3.018  13.105
65751W        W69819  15.474   2.590  13.585
65752W        W69820  15.847   1.950  12.204
65753W        W69821  15.869   0.355  13.297
65754W        W69822  18.098   0.117  12.594
65755W        W69823  15.317   1.989  11.062
65756W        W69824  14.972   1.022  11.241
65757W        W69825  15.034   2.978  12.035
65758W        W69826  16.165   2.461  12.283
65759W        W69827  17.497   3.320  13.997
65760W        W69828  16.423   0.962  11.681
65761W        W69829  17.806   3.360  12.453
65762W        W69830  17.483   1.213  14.051
65763W        W69831  18.196   2.869  12.185
65764W        W69832  16.823   2.161  13.669
65765W        W69833  14.589   1.712  11.875
65766W        W69834  15.700   2.127  13.448
65767W        W69835  16.904   1.391  11.826
65768W        W69836  16.781   1.881  11.930
65769W        W69837  15.124   1.301  13.404
65770W        W69838  15.109   1.177  14.326
65771W        W69839  14.999   0.094  12.485
65772W        W69840  16.767   0.441  13.046
65773W        W69841  16.415   0.626  14.209
65774W        W69842  16.770   0.775  11.387
65775W        W69843  17.953   3.168  14.141
65776W        W69844  16.920   0.249  14.180
65777W        W69845  17.939   2.550  14.302
65778W        W69846  17.369   0.717  13.898
65779W        W69847  17.169   0.655  12.168
65780W        W69848  17.562   1.789  14.572
65781W        W69849  15.302   3.365  12.558
65782W        W69850  15.960   1.082  11.544
65783W        W69851  15.529   0.366  14.208
65784W        W69852  17.581   0.850  11.889
65785W        W69853  17.948   1.332  11.834
65786W        W69854  15.691   3.549  14.305
65787W        W69855  15.617   0.085  11.540
65788W        W69856  17.938   0.619  12.575
65789W        W69857  18.088   2.868  11.020
65790W        W69858  14.995   2.071  12.722
65791W        W69859  16.912   0.658  10.952
65792W        W69860  18.046   2.990  12.672
65793W        W69861  18.085   0.184  13.422
65794W        W69862  16.530   1.396  13.976
65795W        W69863  16.623   2.735  11.679
65796W        W69864  17.023   2.029  14.419
65797W        W69865  16.697   0.006  12.728
65798W        W69866  15.309   0.909  12.791
65799W        W69867  14.863   2.109  13.565
65800W        W69868  16.722   3.302  12.271
65801W        W69869  17.916   0.899  13.143
65802W        W69870  16.553   3.246  13.910
65803W        W69871  17.896   2.305  11.115
65804W        W69872  16.331   1.788  12.176
65805W        W69873  18.183   0.299  13.917
65806W        W69874  16.332   2.134  13.511
65807W        W69875  16.549   1.020  12.956
65808W        W69876  17.401   1.318  11.794
65809W        W69877  17.688   1.051  11.436
65810W        W69878  17.497   3.091  11.825
65811W        W69879  17.331   2.694  12.621
65812W        W69880  17.227   1.773  11.599
65813W        W69881  16.660   1.983  12.585
65814W        W69882  17.541   1.771  12.652
65815W        W69883  14.916   0.786  13.076
65816W        W69884  17.694   1.838  13.903
65817W        W69885  15.975   2.900  12.451
65818W        W69886  16.982   3.433  13.775
65819W        W69887  16.976   0.763  13.539
65820W        W69888  16.183   3.471  13.600
65821W        W69889  17.880   0.425  12.066
65822W        W69890  17.671   1.744  13.367
65823W        W69891  14.654   1.065  13.405
65824W        W69892  17.514   0.860  12.423
65825W        W69893  17.925   1.011  14.200
65826W        W69894  16.810   2.710  12.418
65827W        W69895  16.066   3.301  12.031
65828W        W69896  15.181   0.481  11.289
65829W        W69897  16.285   0.135  13.099
65830W        W69898  15.313   3.255  10.947
65831W        W69899  15.687   1.721  11.698
65832W        W69900  16.341   2.350  14.011
65833W        W69901  16.171   0.708  12.001
65834W        W69902  17.527   0.305  12.429
65835W        W69903  17.247   3.587  12.757
65836W        W69904  16.659   3.235  13.097
65837W        W69905  16.055   2.272  13.058
65838W        W69906  17.825   2.995  13.184
65839W        W69907  15.519   0.498  11.953
65840W        W69908  16.041   2.795  12.913
65841W        W69909  15.524   0.726  10.978
65842W        W69910  16.325   1.335  13.372
65843W        W69911  17.173   0.201  13.242
65844W        W69912  14.593   2.044  13.127
65845W        W69913  16.297   1.862  11.285
65846W        W69914  15.565   0.177  11.055
65847W        W69915  16.303   1.258  12.106
65848W        W69916  17.273   0.234  13.805
65849W        W69917  15.861   2.246  13.914
65850W        W69918  16.665   2.028  14.131
65851W        W69919  17.282   2.058  14.024
65852W        W69920  16.566   0.198  14.529
65853W        W69921  15.788   0.814  12.922
65854W        W69922  15.214   0.770  12.320
65855W        W69923  15.000   3.482  11.996
65856W        W69924  16.332   2.812  14.121
65857W        W69925  15.367   2.297  11.480
65858W        W69926  17.047   1.682  12.701
65859W        W69927  17.327   1.481  13.100
65860W        W69928  16.532   2.155  13.034
65861W        W69929  17.002   2.529  11.166
65862W        W69930  16.674   0.550  12.494
65863W        W69931  18.153   0.828  11.762
65864W        W69932  14.647   3.417  13.793
65865W        W69933  15.064   2.643  13.325
65866W        W69934  14.631   3.489  11.557
65867W        W69935  16.530   0.759  13.363
65868W        W69936  15.893   2.782  11.212
65869W        W69937  17.798   3.164  11.398
65870W        W69938  16.773   1.817  11.412
65871W        W69939  15.616   1.008  11.929
65872W        W69940  16.448   0.918  10.981
65873W        W69941  17.032   2.483  14.159
65874W        W69942  17.385   0.389  11.776
65875W        W69943  14.715   0.237  11.224
65876W        W69944  16.001   2.556  13.514
65877W        W69945  15.800   2.472  12.606
65878W        W69946  15.542   2.424  11.004
65879W        W69947  14.783   2.665  11.772
65880W        W69948  15.287   1.735  14.214
65881W        W69949  15.991   0.295  14.400
65882W        W69950  16.700   0.437  13.756
65883W        W69951  15.895   0.205  12.037
65884W        W69952  16.954   0.282  11.542
65885W        W69953  14.899   0.214  13.119
65886W        W69954  14.947   1.177  12.489
65887W        W69955  17.636   0.285  12.895
65888W        W69956  15.058   0.783  11.709
65889W        W69957  17.629   0.471  13.325
65890W        W69958  18.025   1.674  11.010
65891W        W69959  15.317   0.432  12.829
65892W        W69960  16.431   1.004  13.769
65893W        W69961  14.579   0.694  11.247
65894W        W69962  15.365   2.083  13.808
65895W        W69963  16.723   1.481  12.987
65896W        W69964  16.590   3.560  11.283
65897W        W69965  14.736   2.067  10.980
65898W        W69966  15.471   2.478  14.106
65899W        W69967  14.992   1.645  13.737
65900W        W69968  15.983   1.750  13.531
65901W        W69969  17.751   0.109  13.793
65902W        W69970  18.149   1.719  13.784
65903W        W69971  18.137   1.919  11.470
65904W        W69972  17.000   2.251  11.569
65905W        W69973  17.474   3.551  11.264
65906W        W69974  16.651   1.541  14.406
65907W        W69975  14.981   2.508  14.446
65908W        W69976  18.187   0.430  14.398
65909W        W69977  17.905   1.358  13.019
65910W        W69978  16.213   3.488  14.496
65911W        W69979  16.068   0.117  11.223
65912W        W69980  17.607   2.716  11.166
65913W        W69981  15.376   0.809  14.052
65914W        W69982  15.810   2.803  13.914
65915W        W69983  17.936   0.794  13.712
65916W        W69984  17.147   3.453  11.680
65917W        W69985  17.386   2.072  13.047
65918W        W69986  15.636   0.488  13.714
65919W        W69987  16.105   1.557  14.471
65920W        W69988  15.608   2.736  11.665
65921W        W69989  17.363   2.234  11.929
65922W        W69990  15.131   0.860  13.653
65923W        W69991  16.460   2.922  12.117
65924W        W69992  18.210   1.482  12.298
65925W        W69993  16.432   0.115  14.017
65926W        W69994  17.212   2.820  13.096
65927W        W69995  17.515   3.164  12.804
65928W        W69996  16.734   2.966  11.232
65929W        W69997  14.744   2.858  14.074
65930W        W69998  15.487   0.850  13.312
65931W        W69999  15.457   0.198  12.422
65932W        W70000  17.078   1.040  13.114
65933W        W70001  15.876   2.211  11.314
65934W        W70002  17.874   2.153  12.813
65935W        W70003  15.201   2.911  14.236
65936W        W70004  17.588   3.593  12.033
65937W        W70005  15.687   0.613  12.478
65938W        W70006  15.456   2.106  12.568
65939W        W70007  15.769   3.517  13.318
65940W        W70008  17.836   3.613  14.350
65941W        W70009  16.995   1.801  13.283
65942W        W70010  14.844   1.599  11.198
65943W        W70011  17.978   3.257  11.895
65944W        W70012  17.815   0.581  11.514
65945W        W70013  15.954   0.100  13.917
65946W        W70014  17.660   2.902  12.375
65947W        W70015  17.689   1.458  12.280
65948W        W70016  15.806   1.131  12.496
65949W        W70017  16.051   1.393  13.820
65950W        W70018  17.162   2.546  13.683
65951W        W70019  15.812   1.000  13.795
65952W        W70020  15.791   3.466  12.411
65953W        W70021  15.108   3.425  14.045
65954W        W70022  15.220   2.786  11.175
65955W        W70023  17.737   2.544  11.985
65956W        W70024  15.341   1.336  13.871
65957W        W70025  18.114   1.266  11.352
65958W        W70026  15.859   2.323  11.823
65959W        W70027  16.958   1.705  13.904
65960W        W70028  16.849   1.333  13.448
65961W        W70029  15.409   1.705  13.477
65962W        W70030  17.619   3.593  13.306
65963W        W70031  17.410   0.227  14.300
65964W        W70032  15.074   0.377  13.887
65965W        W70033  15.413   1.400  12.940
65966W        W70034  15.782   1.214  11.062
65967W        W70035  14.585   2.973  13.607
65968W        W70036  16.170   1.682  13.050
65969W        W70037  15.993   0.707  11.155
65970W        W70038  15.128   1.523  11.936
65971W        W70039  14.899   3.375  13.373
65972W        W70040  17.694   1.601  11.481
65973W        W70041  17.789   0.517  14.167
65974W        W70042  17.225   2.726  12.130
65975W        W70043  14.823   1.650  14.307
65976W        W70044  17.789   0.114  11.603
65977W        W70045  17.309   2.589  11.614
65978W        W70046  16.211   1.647  11.699
65979W        W70047  17.398   0.451  11.222
65980W        W70048  17.463   1.058  13.408
65981W        W70049  15.172   1.651  12.615
65982W        W70050  15.466   2.590  12.264
65983W        W70051  17.229   1.210  12.229
65984W        W70052  16.252   0.589  12.925
65985W        W70053  18.214   2.500  13.436
65986W        W70054  18.132   0.487  12.997
65987W        W70055  14.671   3.317  12.373
65988W        W70056  15.180   2.504  11.909
65989W        W70057  15.095   0.121  14.462
65990W        W70058  16.214   2.974  14.564
65991W        W70059  17.969   1.942  12.354
65992W        W70060  17.323   2.119  11.234
65993W        W70061  16.618   3.640  13.446
65994W        W70062  17.475   2.362  14.483
65995W        W70063  16.290   0.072  11.763
65996W        W70064  17.003   0.941  12.622
65997W        W70065  14.689   2.528  12.954
65998W        W70066  15.942   0.490  11.595
65999W        W70067  15.746   1.974  14.444
66000W        W70068  16.740   0.955  12.158
66001W        W70069  16.945   2.365  13.280
66002W        W70070  15.099   2.970  13.715
66003W        W70071  15.690   2.953  14.438
66004W        W70072  15.541   0.750  11.452
66005W        W70073  17.058   0.892  11.777
66006W        W70074  17.016   3.000  14.014
66007W        W70075  15.701   1.592  12.613
66008W        W70076  15.356   3.290  13.478
66009W        W70077  18.101   3.407  11.079
66010W        W70078  14.964   2.079  14.075
66011W        W70079  16.959   2.341  12.763
66012W        W70080  15.395   1.990  12.005
66013W        W70081  15.766   2.997  13.400
66014W        W70082  16.144   0.416  12.441
66015W        W70083  14.755   2.400  11.371
66016W        W70084  16.274   1.351  11.241
66017W        W70085  14.920   1.900  12.260
66018W        W70086  16.210   0.542  13.724
66019W        W70087  17.882   0.251  11.151
66020W        W70088  17.975   1.997  14.250
66021W        W70089  16.629   3.254  14.402
66022W        W70090  18.187   2.348  13.924
66023W        W70091  17.595   3.146  14.535
66024W        W70092  15.334   3.602  13.013
66025W        W70093  18.193   2.224  11.887
66026W        W70094  16.723   1.491  12.400
66027W        W70095  16.490   0.103  12.290
66028W        W70096  15.549   3.087  12.127
66029W        W70097  16.048   0.828  13.352
66030W        W70098  15.748   0.197  12.821
66031W        W70099  14.811   3.019  11.369
66032W        W70100  16.627   2.383  12.087
66033W        W70101  15.502   3.178  13.966
66034W        W70102  14.979   2.001  11.662
66035W        W70103  14.864   0.544  12.661
66036W        W70104  16.412   2.509  12.718
66037W        W70105  14.664   0.363  11.738
66038W        W70106  17.328   1.569  13.665
66039W        W70107  17.205   0.955  11.237
66040W        W70108  17.722   2.627  12.885
66041W        W70109  16.383   3.111  12.716
66042W        W70110  15.795   3.215  11.627
66043W        W70111  17.077   0.118  11.057
66044W        W70112  14.877   3.378  12.798
66045W        W70113  17.074   1.136  14.433
66046W        W70114  15.057   0.666  14.432
66047W        W70115  14.788   1.266  11.765
66048W        W70116  15.479   1.255  11.490
66049W        W70117  17.242   1.582  14.307
66050W        W70118  15.585   1.863  13.016
66051W        W70119  17.059   0.149  12.136
66052W        W70120  16.190   3.580  12.639
66053W        W70121  17.404   3.042  13.576
66054W        W70122  16.988   3.191  12.687
66055W        W70123  17.007   2.171  12.281
66056W        W70124  16.469   0.396  11.352
66057W        W70125  18.150   0.024  12.074
66058W        W70126  15.838   1.659  11.237
66059W        W70127  18.004   0.996  12.227
66060W        W70128  16.696   2.166  11.104
66061W        W70129  17.632   2.366  13.852
66062W        W70130  17.286   3.067  11.319
66063W        W70131  15.901   0.742  14.225
66064W        W70132  15.721   1.326  13.466
66065W        W70133  17.813   2.821  13.743
66066W        W70134  16.913   0.771  14.120
66067W        W70135  14.757   1.242  13.897
66068W        W70136  16.517   1.719  13.623
66069W        W70137  14.874   2.477  12.280
66070W        W70138  15.021   1.774  13.170
66071W        W70139  17.338   2.060  13.520
66072W        W70140  17.110   3.440  14.331
66073W        W70141  17.006   1.179  13.884
66074W        W70142  17.283   3.233  12.289
66075W        W70143  16.285   2.953  13.612
66076W        W70144  15.770   3.308  12.881
66077W        W70145  17.575   2.479  13.300
66078W        W70146  16.625   2.551  14.437
66079W        W70147  15.230   2.504  12.776
66080W        W70148  17.576   2.263  12.421
66081W        W70149  17.217   3.329  13.172
66082W        W70150  15.195   3.058  13.042
66083W        W70151  16.216   1.110  14.252
66084W        W70152  16.667   3.276  11.763
66085W        W70153  15.975   2.531  14.401
66086W        W70154  16.101   2.769  11.778
66087W        W70155  15.322   1.509  11.037
66088W        W70156  14.661   3.595  17.936
66089W        W70157  15.037   2.488  17.459
66090W        W70158  17.742   2.218  15.229
66091W        W70159  17.872   3.303  17.256
66092W        W70160  15.790   3.294  14.782
66093W        W70161  15.873   1.446  15.765
66094W        W70162  15.388   1.294  15.929
66095W        W70163  16.379   2.109  15.363
66096W        W70164  16.054   3.201  17.718
66097W        W70165  14.703   0.762  17.681
66098W        W70166  15.465   0.042  17.483
66099W        W70167  17.159   0.430  16.370
66100W        W70168  16.808   1.301  14.940
66101W        W70169  17.378   0.735  18.031
66102W        W70170  14.744   0.527  17.156
66103W        W70171  14.843   3.146  18.177
66104W        W70172  16.365   2.536  14.909
66105W        W70173  14.797   1.319  16.602
66106W        W70174  15.690   1.210  17.839
66107W        W70175  18.149   1.069  16.338
66108W        W70176  17.913   2.112  17.197
66109W        W70177  16.221   1.445  16.224
66110W        W70178  16.767   2.784  16.593
66111W        W70179  15.267   2.218  16.825
66112W        W70180  14.626   1.746  16.396
66113W        W70181  15.662   1.718  17.588
66114W        W70182  17.933   1.501  17.842
66115W        W70183  15.549   2.945  16.287
66116W        W70184  16.670   2.634  17.421
66117W        W70185  15.890   1.274  16.646
66118W        W70186  16.182   2.058  16.289
66119W        W70187  17.179   2.831  18.137
66120W        W70188  16.258   2.151  18.147
66121W        W70189  16.239   1.867  17.625
66122W        W70190  14.648   1.258  18.147
66123W        W70191  17.480   2.793  17.746
66124W        W70192  15.061   0.375  15.744
66125W        W70193  15.588   2.633  16.743
66126W        W70194  18.051   2.416  16.033
66127W        W70195  17.464   0.816  16.600
66128W        W70196  17.749   0.769  14.695
66129W        W70197  18.214   1.570  17.001
66130W        W70198  16.181   3.277  16.754
66131W        W70199  17.955   2.743  15.192
66132W        W70200  15.084   3.529  14.946
66133W        W70201  15.477   3.575  15.622
66134W        W70202  15.274   0.329  17.048
66135W        W70203  17.897   1.347  17.323
66136W        W70204  17.302   1.769  15.782
66137W        W70205  17.268   1.457  14.809
66138W        W70206  16.476   2.601  16.949
66139W        W70207  16.282   0.931  16.148
66140W        W70208  16.882   3.018  17.142
66141W        W70209  17.753   1.809  15.564
66142W        W70210  16.655   0.467  15.580
66143W        W70211  15.312   3.161  15.263
66144W        W70212  14.683   0.660  15.862
66145W        W70213  17.469   1.267  16.336
66146W        W70214  14.927   2.884  16.251
66147W        W70215  16.268   3.234  15.121
66148W        W70216  17.660   1.260  14.585
66149W        W70217  15.474   2.590  17.229
66150W        W70218  15.847   1.950  15.848
66151W        W70219  15.869   0.355  16.941
66152W        W70220  18.098   0.117  16.238
66153W        W70221  15.317   1.989  14.706
66154W        W70222  14.972   1.022  14.885
66155W        W70223  15.034   2.978  15.679
66156W        W70224  16.165   2.461  15.927
66157W        W70225  17.497   3.320  17.641
66158W        W70226  16.423   0.962  15.325
66159W        W70227  17.806   3.360  16.097
66160W        W70228  17.483   1.213  17.695
66161W        W70229  18.196   2.869  15.829
66162W        W70230  16.823   2.161  17.313
66163W        W70231  14.589   1.712  15.519
66164W        W70232  15.700   2.127  17.092
66165W        W70233  16.904   1.391  15.470
66166W        W70234  16.781   1.881  15.574
66167W        W70235  15.124   1.301  17.048
66168W        W70236  15.109   1.177  17.970
66169W        W70237  14.999   0.094  16.129
66170W        W70238  16.767   0.441  16.690
66171W        W70239  16.415   0.626  17.853
66172W        W70240  16.770   0.775  15.031
66173W        W70241  17.953   3.168  17.785
66174W        W70242  16.920   0.249  17.824
66175W        W70243  17.939   2.550  17.946
66176W        W70244  17.369   0.717  17.542
66177W        W70245  17.169   0.655  15.812
66178W        W70246  17.562   1.789  18.216
66179W        W70247  15.302   3.365  16.202
66180W        W70248  15.960   1.082  15.188
66181W        W70249  15.529   0.366  17.852
66182W        W70250  17.581   0.850  15.533
66183W        W70251  17.948   1.332  15.478
66184W        W70252  15.691   3.549  17.949
66185W        W70253  15.617   0.085  15.184
66186W        W70254  17.938   0.619  16.219
66187W        W70255  18.088   2.868  14.664
66188W        W70256  14.995   2.071  16.366
66189W        W70257  16.912   0.658  14.596
66190W        W70258  18.046   2.990  16.316
66191W        W70259  18.085   0.184  17.066
66192W        W70260  16.530   1.396  17.620
66193W        W70261  16.623   2.735  15.323
66194W        W70262  17.023   2.029  18.063
66195W        W70263  16.697   0.006  16.372
66196W        W70264  15.309   0.909  16.435
66197W        W70265  14.863   2.109  17.209
66198W        W70266  16.722   3.302  15.915
66199W        W70267  17.916   0.899  16.787
66200W        W70268  16.553   3.246  17.554
66201W        W70269  17.896   2.305  14.759
66202W        W70270  16.331   1.788  15.820
66203W        W70271  18.183   0.299  17.561
66204W        W70272  16.332   2.134  17.155
66205W        W70273  16.549   1.020  16.600
66206W        W70274  17.401   1.318  15.438
66207W        W70275  17.688   1.051  15.080
66208W        W70276  17.497   3.091  15.469
66209W        W70277  17.331   2.694  16.265
66210W        W70278  17.227   1.773  15.243
66211W        W70279  16.660   1.983  16.229
66212W        W70280  17.541   1.771  16.296
66213W        W70281  14.916   0.786  16.720
66214W        W70282  17.694   1.838  17.547
66215W        W70283  18.045   3.456  16.693
66216W        W70284  15.975   2.900  16.095
66217W        W70285  16.982   3.433  17.419
66218W        W70286  16.976   0.763  17.183
66219W        W70287  16.183   3.471  17.244
66220W        W70288  17.880   0.425  15.710
66221W        W70289  17.671   1.744  17.011
66222W        W70290  14.654   1.065  17.049
66223W        W70291  17.514   0.860  16.067
66224W        W70292  17.925   1.011  17.844
66225W        W70293  16.810   2.710  16.062
66226W        W70294  16.066   3.301  15.675
66227W        W70295  15.181   0.481  14.933
66228W        W70296  16.285   0.135  16.743
66229W        W70297  15.313   3.255  14.591
66230W        W70298  15.687   1.721  15.342
66231W        W70299  16.341   2.350  17.655
66232W        W70300  16.171   0.708  15.645
66233W        W70301  17.527   0.305  16.073
66234W        W70302  17.247   3.587  16.401
66235W        W70303  16.659   3.235  16.741
66236W        W70304  16.055   2.272  16.702
66237W        W70305  17.825   2.995  16.828
66238W        W70306  15.519   0.498  15.597
66239W        W70307  16.041   2.795  16.557
66240W        W70308  15.524   0.726  14.622
66241W        W70309  16.325   1.335  17.016
66242W        W70310  17.173   0.201  16.886
66243W        W70311  14.593   2.044  16.771
66244W        W70312  16.297   1.862  14.929
66245W        W70313  15.565   0.177  14.699
66246W        W70314  16.303   1.258  15.750
66247W        W70315  17.273   0.234  17.449
66248W        W70316  15.861   2.246  17.558
66249W        W70317  16.665   2.028  17.775
66250W        W70318  17.282   2.058  17.668
66251W        W70319  16.566   0.198  18.173
66252W        W70320  15.788   0.814  16.566
66253W        W70321  15.214   0.770  15.964
66254W        W70322  15.000   3.482  15.640
66255W        W70323  16.332   2.812  17.765
66256W        W70324  15.367   2.297  15.124
66257W        W70325  17.047   1.682  16.345
66258W        W70326  17.327   1.481  16.744
66259W        W70327  16.532   2.155  16.678
66260W        W70328  17.002   2.529  14.810
66261W        W70329  16.674   0.550  16.138
66262W        W70330  18.153   0.828  15.406
66263W        W70331  14.647   3.417  17.437
66264W        W70332  15.064   2.643  16.969
66265W        W70333  14.631   3.489  15.201
66266W        W70334  16.530   0.759  17.007
66267W        W70335  15.893   2.782  14.856
66268W        W70336  17.798   3.164  15.042
66269W        W70337  16.773   1.817  15.056
66270W        W70338  15.616   1.008  15.573
66271W        W70339  16.448   0.918  14.625
66272W        W70340  17.032   2.483  17.803
66273W        W70341  17.385   0.389  15.420
66274W        W70342  14.715   0.237  14.868
66275W        W70343  16.001   2.556  17.158
66276W        W70344  15.800   2.472  16.250
66277W        W70345  15.542   2.424  14.648
66278W        W70346  14.783   2.665  15.416
66279W        W70347  15.287   1.735  17.858
66280W        W70348  15.991   0.295  18.044
66281W        W70349  16.700   0.437  17.400
66282W        W70350  15.895   0.205  15.681
66283W        W70351  16.954   0.282  15.186
66284W        W70352  14.899   0.214  16.763
66285W        W70353  14.947   1.177  16.133
66286W        W70354  17.636   0.285  16.539
66287W        W70355  15.058   0.783  15.353
66288W        W70356  17.629   0.471  16.969
66289W        W70357  18.025   1.674  14.654
66290W        W70358  15.317   0.432  16.473
66291W        W70359  16.431   1.004  17.413
66292W        W70360  14.579   0.694  14.891
66293W        W70361  15.365   2.083  17.452
66294W        W70362  16.723   1.481  16.631
66295W        W70363  16.590   3.560  14.927
66296W        W70364  14.736   2.067  14.624
66297W        W70365  15.471   2.478  17.750
66298W        W70366  14.992   1.645  17.381
66299W        W70367  15.983   1.750  17.175
66300W        W70368  17.751   0.109  17.437
66301W        W70369  18.149   1.719  17.428
66302W        W70370  18.137   1.919  15.114
66303W        W70371  17.000   2.251  15.213
66304W        W70372  17.474   3.551  14.908
66305W        W70373  16.651   1.541  18.050
66306W        W70374  14.981   2.508  18.090
66307W        W70375  18.187   0.430  18.042
66308W        W70376  17.905   1.358  16.663
66309W        W70377  16.213   3.488  18.140
66310W        W70378  16.068   0.117  14.867
66311W        W70379  17.607   2.716  14.810
66312W        W70380  15.376   0.809  17.696
66313W        W70381  15.810   2.803  17.558
66314W        W70382  17.936   0.794  17.356
66315W        W70383  17.147   3.453  15.324
66316W        W70384  17.386   2.072  16.691
66317W        W70385  15.636   0.488  17.358
66318W        W70386  16.105   1.557  18.115
66319W        W70387  15.608   2.736  15.309
66320W        W70388  17.363   2.234  15.573
66321W        W70389  15.131   0.860  17.297
66322W        W70390  16.460   2.922  15.761
66323W        W70391  18.210   1.482  15.942
66324W        W70392  16.432   0.115  17.661
66325W        W70393  17.212   2.820  16.740
66326W        W70394  17.515   3.164  16.448
66327W        W70395  16.734   2.966  14.876
66328W        W70396  14.744   2.858  17.718
66329W        W70397  15.487   0.850  16.956
66330W        W70398  15.457   0.198  16.066
66331W        W70399  17.078   1.040  16.758
66332W        W70400  15.876   2.211  14.958
66333W        W70401  17.874   2.153  16.457
66334W        W70402  15.201   2.911  17.880
66335W        W70403  17.588   3.593  15.677
66336W        W70404  15.687   0.613  16.122
66337W        W70405  15.456   2.106  16.212
66338W        W70406  15.769   3.517  16.962
66339W        W70407  17.836   3.613  17.994
66340W        W70408  16.995   1.801  16.927
66341W        W70409  14.844   1.599  14.842
66342W        W70410  17.978   3.257  15.539
66343W        W70411  17.815   0.581  15.158
66344W        W70412  15.954   0.100  17.561
66345W        W70413  17.660   2.902  16.019
66346W        W70414  17.689   1.458  15.924
66347W        W70415  15.806   1.131  16.140
66348W        W70416  16.051   1.393  17.464
66349W        W70417  17.162   2.546  17.327
66350W        W70418  15.812   1.000  17.439
66351W        W70419  15.791   3.466  16.055
66352W        W70420  15.108   3.425  17.689
66353W        W70421  15.220   2.786  14.819
66354W        W70422  17.737   2.544  15.629
66355W        W70423  15.341   1.336  17.515
66356W        W70424  18.114   1.266  14.996
66357W        W70425  15.859   2.323  15.467
66358W        W70426  16.958   1.705  17.548
66359W        W70427  16.849   1.333  17.092
66360W        W70428  15.409   1.705  17.121
66361W        W70429  17.619   3.593  16.950
66362W        W70430  17.410   0.227  17.944
66363W        W70431  15.074   0.377  17.531
66364W        W70432  15.413   1.400  16.584
66365W        W70433  15.782   1.214  14.706
66366W        W70434  16.170   1.682  16.694
66367W        W70435  15.993   0.707  14.799
66368W        W70436  15.128   1.523  15.580
66369W        W70437  14.899   3.375  17.017
66370W        W70438  17.694   1.601  15.125
66371W        W70439  17.789   0.517  17.811
66372W        W70440  17.225   2.726  15.774
66373W        W70441  14.823   1.650  17.951
66374W        W70442  17.789   0.114  15.247
66375W        W70443  17.309   2.589  15.258
66376W        W70444  16.211   1.647  15.343
66377W        W70445  17.398   0.451  14.866
66378W        W70446  17.463   1.058  17.052
66379W        W70447  15.172   1.651  16.259
66380W        W70448  15.466   2.590  15.908
66381W        W70449  17.229   1.210  15.873
66382W        W70450  16.252   0.589  16.569
66383W        W70451  18.214   2.500  17.080
66384W        W70452  18.132   0.487  16.641
66385W        W70453  14.671   3.317  16.017
66386W        W70454  15.180   2.504  15.553
66387W        W70455  15.095   0.121  18.106
66388W        W70456  16.214   2.974  18.208
66389W        W70457  17.969   1.942  15.998
66390W        W70458  17.323   2.119  14.878
66391W        W70459  16.618   3.640  17.090
66392W        W70460  17.475   2.362  18.127
66393W        W70461  16.290   0.072  15.407
66394W        W70462  17.003   0.941  16.266
66395W        W70463  15.942   0.490  15.239
66396W        W70464  15.746   1.974  18.088
66397W        W70465  16.740   0.955  15.802
66398W        W70466  16.945   2.365  16.924
66399W        W70467  15.099   2.970  17.359
66400W        W70468  15.690   2.953  18.082
66401W        W70469  15.541   0.750  15.096
66402W        W70470  17.058   0.892  15.421
66403W        W70471  17.016   3.000  17.658
66404W        W70472  15.701   1.592  16.257
66405W        W70473  15.356   3.290  17.122
66406W        W70474  18.101   3.407  14.723
66407W        W70475  14.964   2.079  17.719
66408W        W70476  16.959   2.341  16.407
66409W        W70477  15.395   1.990  15.649
66410W        W70478  15.766   2.997  17.044
66411W        W70479  16.144   0.416  16.085
66412W        W70480  14.755   2.400  15.015
66413W        W70481  16.274   1.351  14.885
66414W        W70482  14.920   1.900  15.904
66415W        W70483  16.210   0.542  17.368
66416W        W70484  17.882   0.251  14.795
66417W        W70485  17.975   1.997  17.894
66418W        W70486  16.629   3.254  18.046
66419W        W70487  18.187   2.348  17.568
66420W        W70488  17.595   3.146  18.179
66421W        W70489  15.334   3.602  16.657
66422W        W70490  18.193   2.224  15.531
66423W        W70491  16.723   1.491  16.044
66424W        W70492  16.490   0.103  15.934
66425W        W70493  15.549   3.087  15.771
66426W        W70494  16.048   0.828  16.996
66427W        W70495  15.748   0.197  16.465
66428W        W70496  14.811   3.019  15.013
66429W        W70497  16.627   2.383  15.731
66430W        W70498  15.502   3.178  17.610
66431W        W70499  14.979   2.001  15.306
66432W        W70500  14.864   0.544  16.305
66433W        W70501  16.412   2.509  16.362
66434W        W70502  14.664   0.363  15.382
66435W        W70503  17.328   1.569  17.309
66436W        W70504  17.205   0.955  14.881
66437W        W70505  17.722   2.627  16.529
66438W        W70506  16.383   3.111  16.360
66439W        W70507  15.795   3.215  15.271
66440W        W70508  17.077   0.118  14.701
66441W        W70509  14.877   3.378  16.442
66442W        W70510  17.074   1.136  18.077
66443W        W70511  15.057   0.666  18.076
66444W        W70512  14.788   1.266  15.409
66445W        W70513  15.479   1.255  15.134
66446W        W70514  17.242   1.582  17.951
66447W        W70515  15.585   1.863  16.660
66448W        W70516  17.059   0.149  15.780
66449W        W70517  16.190   3.580  16.283
66450W        W70518  17.404   3.042  17.220
66451W        W70519  16.988   3.191  16.331
66452W        W70520  17.007   2.171  15.925
66453W        W70521  16.469   0.396  14.996
66454W        W70522  18.150   0.024  15.718
66455W        W70523  15.838   1.659  14.881
66456W        W70524  18.004   0.996  15.871
66457W        W70525  16.696   2.166  14.748
66458W        W70526  17.632   2.366  17.496
66459W        W70527  17.286   3.067  14.963
66460W        W70528  15.901   0.742  17.869
66461W        W70529  15.721   1.326  17.110
66462W        W70530  17.813   2.821  17.387
66463W        W70531  16.913   0.771  17.764
66464W        W70532  14.757   1.242  17.541
66465W        W70533  16.517   1.719  17.267
66466W        W70534  14.874   2.477  15.924
66467W        W70535  15.021   1.774  16.814
66468W        W70536  17.338   2.060  17.164
66469W        W70537  17.110   3.440  17.975
66470W        W70538  17.006   1.179  17.528
66471W        W70539  17.283   3.233  15.933
66472W        W70540  16.285   2.953  17.256
66473W        W70541  15.770   3.308  16.525
66474W        W70542  17.575   2.479  16.944
66475W        W70543  16.625   2.551  18.081
66476W        W70544  15.230   2.504  16.420
66477W        W70545  17.576   2.263  16.065
66478W        W70546  17.217   3.329  16.816
66479W        W70547  15.195   3.058  16.686
66480W        W70548  16.216   1.110  17.896
66481W        W70549  16.667   3.276  15.407
66482W        W70550  15.975   2.531  18.045
66483W        W70551  16.101   2.769  15.422
66484W        W70552  15.322   1.509  14.681
66485W        W70553  14.661   3.595  21.580
66486W        W70554  15.037   2.488  21.103
66487W        W70555  17.742   2.218  18.873
66488W        W70556  17.872   3.303  20.900
66489W        W70557  15.790   3.294  18.426
66490W        W70558  15.873   1.446  19.409
66491W        W70559  15.388   1.294  19.573
66492W        W70560  16.379   2.109  19.007
66493W        W70561  16.054   3.201  21.362
66494W        W70562  14.703   0.762  21.325
66495W        W70563  15.465   0.042  21.127
66496W        W70564  17.159   0.430  20.014
66497W        W70565  16.808   1.301  18.584
66498W        W70566  17.378   0.735  21.675
66499W        W70567  14.744   0.527  20.800
66500W        W70568  14.843   3.146  21.821
66501W        W70569  16.365   2.536  18.553
66502W        W70570  14.797   1.319  20.246
66503W        W70571  15.690   1.210  21.483
66504W        W70572  18.149   1.069  19.982
66505W        W70573  17.913   2.112  20.841
66506W        W70574  16.221   1.445  19.868
66507W        W70575  16.767   2.784  20.237
66508W        W70576  15.267   2.218  20.469
66509W        W70577  14.626   1.746  20.040
66510W        W70578  15.662   1.718  21.232
66511W        W70579  17.933   1.501  21.486
66512W        W70580  15.549   2.945  19.931
66513W        W70581  16.670   2.634  21.065
66514W        W70582  15.890   1.274  20.290
66515W        W70583  16.182   2.058  19.933
66516W        W70584  17.179   2.831  21.781
66517W        W70585  16.258   2.151  21.791
66518W        W70586  16.239   1.867  21.269
66519W        W70587  14.648   1.258  21.791
66520W        W70588  17.480   2.793  21.390
66521W        W70589  15.061   0.375  19.388
66522W        W70590  15.588   2.633  20.387
66523W        W70591  18.051   2.416  19.677
66524W        W70592  17.464   0.816  20.244
66525W        W70593  17.749   0.769  18.339
66526W        W70594  18.214   1.570  20.645
66527W        W70595  16.181   3.277  20.398
66528W        W70596  17.955   2.743  18.836
66529W        W70597  15.084   3.529  18.590
66530W        W70598  15.477   3.575  19.266
66531W        W70599  15.274   0.329  20.692
66532W        W70600  17.897   1.347  20.967
66533W        W70601  17.302   1.769  19.426
66534W        W70602  17.268   1.457  18.453
66535W        W70603  16.476   2.601  20.593
66536W        W70604  16.282   0.931  19.792
66537W        W70605  16.882   3.018  20.786
66538W        W70606  17.753   1.809  19.208
66539W        W70607  16.655   0.467  19.224
66540W        W70608  15.312   3.161  18.907
66541W        W70609  14.683   0.660  19.506
66542W        W70610  17.469   1.267  19.980
66543W        W70611  14.927   2.884  19.895
66544W        W70612  16.268   3.234  18.765
66545W        W70613  17.660   1.260  18.229
66546W        W70614  14.683   3.018  20.393
66547W        W70615  15.474   2.590  20.873
66548W        W70616  15.847   1.950  19.492
66549W        W70617  15.869   0.355  20.585
66550W        W70618  18.098   0.117  19.882
66551W        W70619  15.317   1.989  18.350
66552W        W70620  14.972   1.022  18.529
66553W        W70621  15.034   2.978  19.323
66554W        W70622  16.165   2.461  19.571
66555W        W70623  17.497   3.320  21.285
66556W        W70624  16.423   0.962  18.969
66557W        W70625  17.806   3.360  19.741
66558W        W70626  17.483   1.213  21.339
66559W        W70627  18.196   2.869  19.473
66560W        W70628  16.823   2.161  20.957
66561W        W70629  14.589   1.712  19.163
66562W        W70630  15.700   2.127  20.736
66563W        W70631  16.904   1.391  19.114
66564W        W70632  16.781   1.881  19.218
66565W        W70633  15.124   1.301  20.692
66566W        W70634  15.109   1.177  21.614
66567W        W70635  14.999   0.094  19.773
66568W        W70636  16.767   0.441  20.334
66569W        W70637  16.415   0.626  21.497
66570W        W70638  16.770   0.775  18.675
66571W        W70639  17.953   3.168  21.429
66572W        W70640  16.920   0.249  21.468
66573W        W70641  17.939   2.550  21.590
66574W        W70642  17.369   0.717  21.186
66575W        W70643  17.169   0.655  19.456
66576W        W70644  17.562   1.789  21.860
66577W        W70645  15.302   3.365  19.846
66578W        W70646  15.960   1.082  18.832
66579W        W70647  15.529   0.366  21.496
66580W        W70648  17.581   0.850  19.177
66581W        W70649  17.948   1.332  19.122
66582W        W70650  15.691   3.549  21.593
66583W        W70651  15.617   0.085  18.828
66584W        W70652  17.938   0.619  19.863
66585W        W70653  18.088   2.868  18.308
66586W        W70654  14.995   2.071  20.010
66587W        W70655  16.912   0.658  18.240
66588W        W70656  18.046   2.990  19.960
66589W        W70657  18.085   0.184  20.710
66590W        W70658  16.530   1.396  21.264
66591W        W70659  16.623   2.735  18.967
66592W        W70660  17.023   2.029  21.707
66593W        W70661  16.697   0.006  20.016
66594W        W70662  15.309   0.909  20.079
66595W        W70663  14.863   2.109  20.853
66596W        W70664  16.722   3.302  19.559
66597W        W70665  17.916   0.899  20.431
66598W        W70666  16.553   3.246  21.198
66599W        W70667  17.896   2.305  18.403
66600W        W70668  16.331   1.788  19.464
66601W        W70669  18.183   0.299  21.205
66602W        W70670  16.332   2.134  20.799
66603W        W70671  16.549   1.020  20.244
66604W        W70672  17.401   1.318  19.082
66605W        W70673  17.688   1.051  18.724
66606W        W70674  17.497   3.091  19.113
66607W        W70675  17.331   2.694  19.909
66608W        W70676  17.227   1.773  18.887
66609W        W70677  16.660   1.983  19.873
66610W        W70678  17.541   1.771  19.940
66611W        W70679  14.916   0.786  20.364
66612W        W70680  17.694   1.838  21.191
66613W        W70681  18.045   3.456  20.337
66614W        W70682  15.975   2.900  19.739
66615W        W70683  16.982   3.433  21.063
66616W        W70684  16.976   0.763  20.827
66617W        W70685  16.183   3.471  20.888
66618W        W70686  17.880   0.425  19.354
66619W        W70687  17.671   1.744  20.655
66620W        W70688  14.654   1.065  20.693
66621W        W70689  17.514   0.860  19.711
66622W        W70690  17.925   1.011  21.488
66623W        W70691  16.810   2.710  19.706
66624W        W70692  16.066   3.301  19.319
66625W        W70693  15.181   0.481  18.577
66626W        W70694  16.285   0.135  20.387
66627W        W70695  15.313   3.255  18.235
66628W        W70696  15.687   1.721  18.986
66629W        W70697  16.341   2.350  21.299
66630W        W70698  16.171   0.708  19.289
66631W        W70699  17.527   0.305  19.717
66632W        W70700  17.247   3.587  20.045
66633W        W70701  16.659   3.235  20.385
66634W        W70702  16.055   2.272  20.346
66635W        W70703  17.825   2.995  20.472
66636W        W70704  15.519   0.498  19.241
66637W        W70705  16.041   2.795  20.201
66638W        W70706  15.524   0.726  18.266
66639W        W70707  16.325   1.335  20.660
66640W        W70708  17.173   0.201  20.530
66641W        W70709  14.593   2.044  20.415
66642W        W70710  16.297   1.862  18.573
66643W        W70711  15.565   0.177  18.343
66644W        W70712  16.303   1.258  19.394
66645W        W70713  17.273   0.234  21.093
66646W        W70714  15.861   2.246  21.202
66647W        W70715  16.665   2.028  21.419
66648W        W70716  17.282   2.058  21.312
66649W        W70717  16.566   0.198  21.817
66650W        W70718  15.788   0.814  20.210
66651W        W70719  15.214   0.770  19.608
66652W        W70720  15.000   3.482  19.284
66653W        W70721  16.332   2.812  21.409
66654W        W70722  15.367   2.297  18.768
66655W        W70723  17.047   1.682  19.989
66656W        W70724  17.327   1.481  20.388
66657W        W70725  16.532   2.155  20.322
66658W        W70726  17.002   2.529  18.454
66659W        W70727  16.674   0.550  19.782
66660W        W70728  18.153   0.828  19.050
66661W        W70729  14.647   3.417  21.081
66662W        W70730  15.064   2.643  20.613
66663W        W70731  14.631   3.489  18.845
66664W        W70732  16.530   0.759  20.651
66665W        W70733  15.893   2.782  18.500
66666W        W70734  17.798   3.164  18.686
66667W        W70735  16.773   1.817  18.700
66668W        W70736  15.616   1.008  19.217
66669W        W70737  16.448   0.918  18.269
66670W        W70738  17.032   2.483  21.447
66671W        W70739  17.385   0.389  19.064
66672W        W70740  14.715   0.237  18.512
66673W        W70741  16.001   2.556  20.802
66674W        W70742  15.800   2.472  19.894
66675W        W70743  15.542   2.424  18.292
66676W        W70744  14.783   2.665  19.060
66677W        W70745  15.287   1.735  21.502
66678W        W70746  15.991   0.295  21.688
66679W        W70747  16.700   0.437  21.044
66680W        W70748  15.895   0.205  19.325
66681W        W70749  16.954   0.282  18.830
66682W        W70750  14.899   0.214  20.407
66683W        W70751  14.947   1.177  19.777
66684W        W70752  17.636   0.285  20.183
66685W        W70753  15.058   0.783  18.997
66686W        W70754  17.629   0.471  20.613
66687W        W70755  18.025   1.674  18.298
66688W        W70756  15.317   0.432  20.117
66689W        W70757  16.431   1.004  21.057
66690W        W70758  14.579   0.694  18.535
66691W        W70759  15.365   2.083  21.096
66692W        W70760  16.723   1.481  20.275
66693W        W70761  16.590   3.560  18.571
66694W        W70762  14.736   2.067  18.268
66695W        W70763  15.471   2.478  21.394
66696W        W70764  14.992   1.645  21.025
66697W        W70765  15.983   1.750  20.819
66698W        W70766  17.751   0.109  21.081
66699W        W70767  18.149   1.719  21.072
66700W        W70768  18.137   1.919  18.758
66701W        W70769  17.000   2.251  18.857
66702W        W70770  17.474   3.551  18.552
66703W        W70771  16.651   1.541  21.694
66704W        W70772  14.981   2.508  21.734
66705W        W70773  18.187   0.430  21.686
66706W        W70774  17.905   1.358  20.307
66707W        W70775  16.213   3.488  21.784
66708W        W70776  16.068   0.117  18.511
66709W        W70777  17.607   2.716  18.454
66710W        W70778  15.376   0.809  21.340
66711W        W70779  15.810   2.803  21.202
66712W        W70780  17.936   0.794  21.000
66713W        W70781  17.147   3.453  18.968
66714W        W70782  17.386   2.072  20.335
66715W        W70783  15.636   0.488  21.002
66716W        W70784  16.105   1.557  21.759
66717W        W70785  15.608   2.736  18.953
66718W        W70786  17.363   2.234  19.217
66719W        W70787  15.131   0.860  20.941
66720W        W70788  16.460   2.922  19.405
66721W        W70789  18.210   1.482  19.586
66722W        W70790  16.432   0.115  21.305
66723W        W70791  17.212   2.820  20.384
66724W        W70792  17.515   3.164  20.092
66725W        W70793  16.734   2.966  18.520
66726W        W70794  14.744   2.858  21.362
66727W        W70795  15.487   0.850  20.600
66728W        W70796  15.457   0.198  19.710
66729W        W70797  17.078   1.040  20.402
66730W        W70798  15.876   2.211  18.602
66731W        W70799  17.874   2.153  20.101
66732W        W70800  15.201   2.911  21.524
66733W        W70801  17.588   3.593  19.321
66734W        W70802  15.687   0.613  19.766
66735W        W70803  15.456   2.106  19.856
66736W        W70804  15.769   3.517  20.606
66737W        W70805  17.836   3.613  21.638
66738W        W70806  16.995   1.801  20.571
66739W        W70807  14.844   1.599  18.486
66740W        W70808  17.978   3.257  19.183
66741W        W70809  17.815   0.581  18.802
66742W        W70810  15.954   0.100  21.205
66743W        W70811  17.660   2.902  19.663
66744W        W70812  17.689   1.458  19.568
66745W        W70813  15.806   1.131  19.784
66746W        W70814  16.051   1.393  21.108
66747W        W70815  17.162   2.546  20.971
66748W        W70816  15.812   1.000  21.083
66749W        W70817  15.791   3.466  19.699
66750W        W70818  15.108   3.425  21.333
66751W        W70819  15.220   2.786  18.463
66752W        W70820  17.737   2.544  19.273
66753W        W70821  15.341   1.336  21.159
66754W        W70822  18.114   1.266  18.640
66755W        W70823  15.859   2.323  19.111
66756W        W70824  16.958   1.705  21.192
66757W        W70825  16.849   1.333  20.736
66758W        W70826  15.409   1.705  20.765
66759W        W70827  17.619   3.593  20.594
66760W        W70828  17.410   0.227  21.588
66761W        W70829  15.074   0.377  21.175
66762W        W70830  15.413   1.400  20.228
66763W        W70831  15.782   1.214  18.350
66764W        W70832  14.585   2.973  20.895
66765W        W70833  16.170   1.682  20.338
66766W        W70834  15.993   0.707  18.443
66767W        W70835  15.128   1.523  19.224
66768W        W70836  14.899   3.375  20.661
66769W        W70837  17.694   1.601  18.769
66770W        W70838  17.789   0.517  21.455
66771W        W70839  17.225   2.726  19.418
66772W        W70840  14.823   1.650  21.595
66773W        W70841  17.789   0.114  18.891
66774W        W70842  17.309   2.589  18.902
66775W        W70843  16.211   1.647  18.987
66776W        W70844  17.398   0.451  18.510
66777W        W70845  17.463   1.058  20.696
66778W        W70846  15.172   1.651  19.903
66779W        W70847  15.466   2.590  19.552
66780W        W70848  17.229   1.210  19.517
66781W        W70849  16.252   0.589  20.213
66782W        W70850  18.214   2.500  20.724
66783W        W70851  18.132   0.487  20.285
66784W        W70852  14.671   3.317  19.661
66785W        W70853  15.180   2.504  19.197
66786W        W70854  15.095   0.121  21.750
66787W        W70855  16.214   2.974  21.852
66788W        W70856  17.969   1.942  19.642
66789W        W70857  17.323   2.119  18.522
66790W        W70858  16.618   3.640  20.734
66791W        W70859  17.475   2.362  21.771
66792W        W70860  16.290   0.072  19.051
66793W        W70861  17.003   0.941  19.910
66794W        W70862  14.689   2.528  20.242
66795W        W70863  15.942   0.490  18.883
66796W        W70864  15.746   1.974  21.732
66797W        W70865  16.740   0.955  19.446
66798W        W70866  16.945   2.365  20.568
66799W        W70867  15.099   2.970  21.003
66800W        W70868  15.690   2.953  21.726
66801W        W70869  15.541   0.750  18.740
66802W        W70870  17.058   0.892  19.065
66803W        W70871  17.016   3.000  21.302
66804W        W70872  15.701   1.592  19.901
66805W        W70873  15.356   3.290  20.766
66806W        W70874  18.101   3.407  18.367
66807W        W70875  14.964   2.079  21.363
66808W        W70876  16.959   2.341  20.051
66809W        W70877  15.395   1.990  19.293
66810W        W70878  15.766   2.997  20.688
66811W        W70879  16.144   0.416  19.729
66812W        W70880  14.755   2.400  18.659
66813W        W70881  16.274   1.351  18.529
66814W        W70882  14.920   1.900  19.548
66815W        W70883  16.210   0.542  21.012
66816W        W70884  17.882   0.251  18.439
66817W        W70885  17.975   1.997  21.538
66818W        W70886  16.629   3.254  21.690
66819W        W70887  18.187   2.348  21.212
66820W        W70888  17.595   3.146  21.823
66821W        W70889  15.334   3.602  20.301
66822W        W70890  18.193   2.224  19.175
66823W        W70891  16.723   1.491  19.688
66824W        W70892  16.490   0.103  19.578
66825W        W70893  15.549   3.087  19.415
66826W        W70894  16.048   0.828  20.640
66827W        W70895  15.748   0.197  20.109
66828W        W70896  14.811   3.019  18.657
66829W        W70897  16.627   2.383  19.375
66830W        W70898  15.502   3.178  21.254
66831W        W70899  14.979   2.001  18.950
66832W        W70900  14.864   0.544  19.949
66833W        W70901  16.412   2.509  20.006
66834W        W70902  14.664   0.363  19.026
66835W        W70903  17.328   1.569  20.953
66836W        W70904  17.205   0.955  18.525
66837W        W70905  17.722   2.627  20.173
66838W        W70906  16.383   3.111  20.004
66839W        W70907  15.795   3.215  18.915
66840W        W70908  17.077   0.118  18.345
66841W        W70909  14.877   3.378  20.086
66842W        W70910  17.074   1.136  21.721
66843W        W70911  15.057   0.666  21.720
66844W        W70912  14.788   1.266  19.053
66845W        W70913  15.479   1.255  18.778
66846W        W70914  17.242   1.582  21.595
66847W        W70915  15.585   1.863  20.304
66848W        W70916  17.059   0.149  19.424
66849W        W70917  16.190   3.580  19.927
66850W        W70918  17.404   3.042  20.864
66851W        W70919  16.988   3.191  19.975
66852W        W70920  17.007   2.171  19.569
66853W        W70921  16.469   0.396  18.640
66854W        W70922  18.150   0.024  19.362
66855W        W70923  15.838   1.659  18.525
66856W        W70924  18.004   0.996  19.515
66857W        W70925  16.696   2.166  18.392
66858W        W70926  17.632   2.366  21.140
66859W        W70927  17.286   3.067  18.607
66860W        W70928  15.901   0.742  21.513
66861W        W70929  15.721   1.326  20.754
66862W        W70930  17.813   2.821  21.031
66863W        W70931  16.913   0.771  21.408
66864W        W70932  14.757   1.242  21.185
66865W        W70933  16.517   1.719  20.911
66866W        W70934  14.874   2.477  19.568
66867W        W70935  15.021   1.774  20.458
66868W        W70936  17.338   2.060  20.808
66869W        W70937  17.110   3.440  21.619
66870W        W70938  17.006   1.179  21.172
66871W        W70939  17.283   3.233  19.577
66872W        W70940  16.285   2.953  20.900
66873W        W70941  15.770   3.308  20.169
66874W        W70942  17.575   2.479  20.588
66875W        W70943  16.625   2.551  21.725
66876W        W70944  15.230   2.504  20.064
66877W        W70945  17.576   2.263  19.709
66878W        W70946  17.217   3.329  20.460
66879W        W70947  15.195   3.058  20.330
66880W        W70948  16.216   1.110  21.540
66881W        W70949  16.667   3.276  19.051
66882W        W70950  15.975   2.531  21.689
66883W        W70951  16.101   2.769  19.066
66884W        W70952  15.322   1.509  18.325
66885W        W70953  17.742   2.218  22.518
66886W        W70954  15.790   3.294  22.071
66887W        W70955  15.873   1.446  23.054
66888W        W70956  15.388   1.294  23.218
66889W        W70957  16.379   2.109  22.652
66890W        W70958  16.808   1.301  22.229
66891W        W70959  16.365   2.536  22.198
66892W        W70960  15.061   0.375  23.033
66893W        W70961  17.749   0.769  21.984
66894W        W70962  17.955   2.743  22.481
66895W        W70963  15.084   3.529  22.235
66896W        W70964  15.477   3.575  22.911
66897W        W70965  17.302   1.769  23.071
66898W        W70966  17.268   1.457  22.098
66899W        W70967  17.753   1.809  22.853
66900W        W70968  16.655   0.467  22.869
66901W        W70969  15.312   3.161  22.552
66902W        W70970  16.268   3.234  22.410
66903W        W70971  17.660   1.260  21.874
66904W        W70972  15.847   1.950  23.137
66905W        W70973  15.317   1.989  21.995
66906W        W70974  14.972   1.022  22.174
66907W        W70975  15.034   2.978  22.968
66908W        W70976  16.165   2.461  23.216
66909W        W70977  16.423   0.962  22.614
66910W        W70978  14.589   1.712  22.808
66911W        W70979  16.904   1.391  22.759
66912W        W70980  16.781   1.881  22.863
66913W        W70981  16.770   0.775  22.320
66914W        W70982  17.169   0.655  23.101
66915W        W70983  15.960   1.082  22.477
66916W        W70984  17.581   0.850  22.822
66917W        W70985  17.948   1.332  22.767
66918W        W70986  15.617   0.085  22.473
66919W        W70987  18.088   2.868  21.953
66920W        W70988  16.912   0.658  21.885
66921W        W70989  16.623   2.735  22.612
66922W        W70990  16.722   3.302  23.204
66923W        W70991  17.896   2.305  22.048
66924W        W70992  16.331   1.788  23.109
66925W        W70993  17.401   1.318  22.727
66926W        W70994  17.688   1.051  22.369
66927W        W70995  17.497   3.091  22.758
66928W        W70996  17.227   1.773  22.532
66929W        W70997  17.880   0.425  22.999
66930W        W70998  16.066   3.301  22.964
66931W        W70999  15.181   0.481  22.222
66932W        W71000  15.313   3.255  21.880
66933W        W71001  15.687   1.721  22.631
66934W        W71002  16.171   0.708  22.934
66935W        W71003  15.519   0.498  22.886
66936W        W71004  15.524   0.726  21.911
66937W        W71005  16.297   1.862  22.218
66938W        W71006  15.565   0.177  21.988
66939W        W71007  16.303   1.258  23.039
66940W        W71008  15.214   0.770  23.253
66941W        W71009  15.000   3.482  22.929
66942W        W71010  15.367   2.297  22.413
66943W        W71011  17.002   2.529  22.099
66944W        W71012  18.153   0.828  22.695
66945W        W71013  14.631   3.489  22.490
66946W        W71014  15.893   2.782  22.145
66947W        W71015  17.798   3.164  22.331
66948W        W71016  16.773   1.817  22.345
66949W        W71017  15.616   1.008  22.862
66950W        W71018  16.448   0.918  21.914
66951W        W71019  17.385   0.389  22.709
66952W        W71020  14.715   0.237  22.157
66953W        W71021  15.542   2.424  21.937
66954W        W71022  14.783   2.665  22.705
66955W        W71023  15.895   0.205  22.970
66956W        W71024  16.954   0.282  22.475
66957W        W71025  15.058   0.783  22.642
66958W        W71026  18.025   1.674  21.943
66959W        W71027  14.579   0.694  22.180
66960W        W71028  16.590   3.560  22.216
66961W        W71029  14.736   2.067  21.913
66962W        W71030  18.137   1.919  22.403
66963W        W71031  17.000   2.251  22.502
66964W        W71032  17.474   3.551  22.197
66965W        W71033  16.068   0.117  22.156
66966W        W71034  17.607   2.716  22.099
66967W        W71035  17.147   3.453  22.613
66968W        W71036  15.608   2.736  22.598
66969W        W71037  17.363   2.234  22.862
66970W        W71038  16.460   2.922  23.050
66971W        W71039  18.210   1.482  23.231
66972W        W71040  16.734   2.966  22.165
66973W        W71041  15.876   2.211  22.247
66974W        W71042  17.588   3.593  22.966
66975W        W71043  14.844   1.599  22.131
66976W        W71044  17.978   3.257  22.828
66977W        W71045  17.815   0.581  22.447
66978W        W71046  17.689   1.458  23.213
66979W        W71047  15.220   2.786  22.108
66980W        W71048  17.737   2.544  22.918
66981W        W71049  18.114   1.266  22.285
66982W        W71050  15.859   2.323  22.756
66983W        W71051  15.782   1.214  21.995
66984W        W71052  15.993   0.707  22.088
66985W        W71053  15.128   1.523  22.869
66986W        W71054  17.694   1.601  22.414
66987W        W71055  17.225   2.726  23.063
66988W        W71056  17.789   0.114  22.536
66989W        W71057  17.309   2.589  22.547
66990W        W71058  16.211   1.647  22.632
66991W        W71059  17.398   0.451  22.155
66992W        W71060  15.466   2.590  23.197
66993W        W71061  17.229   1.210  23.162
66994W        W71062  14.671   3.317  23.306
66995W        W71063  15.180   2.504  22.842
66996W        W71064  17.969   1.942  23.287
66997W        W71065  17.323   2.119  22.167
66998W        W71066  16.290   0.072  22.696
66999W        W71067  15.942   0.490  22.528
67000W        W71068  16.740   0.955  23.091
67001W        W71069  15.541   0.750  22.385
67002W        W71070  17.058   0.892  22.710
67003W        W71071  18.101   3.407  22.012
67004W        W71072  14.755   2.400  22.304
67005W        W71073  16.274   1.351  22.174
67006W        W71074  14.920   1.900  23.193
67007W        W71075  17.882   0.251  22.084
67008W        W71076  18.193   2.224  22.820
67009W        W71077  16.490   0.103  23.223
67010W        W71078  15.549   3.087  23.060
67011W        W71079  14.811   3.019  22.302
67012W        W71080  16.627   2.383  23.020
67013W        W71081  14.979   2.001  22.595
67014W        W71082  14.664   0.363  22.671
67015W        W71083  17.205   0.955  22.170
67016W        W71084  15.795   3.215  22.560
67017W        W71085  17.077   0.118  21.990
67018W        W71086  14.788   1.266  22.698
67019W        W71087  15.479   1.255  22.423
67020W        W71088  17.007   2.171  23.214
67021W        W71089  16.469   0.396  22.285
67022W        W71090  18.150   0.024  23.007
67023W        W71091  15.838   1.659  22.170
67024W        W71092  18.004   0.996  23.160
67025W        W71093  16.696   2.166  22.037
67026W        W71094  17.286   3.067  22.252
67027W        W71095  14.874   2.477  23.213
67028W        W71096  17.283   3.233  23.222
67029W        W71097  16.667   3.276  22.696
67030W        W71098  16.101   2.769  22.711
67031W        W71099  15.322   1.509  21.970
67032W        W71100  14.661   7.239   3.359
67033W        W71101  15.037   6.132   2.882
67034W        W71102  17.742   5.862   0.652
67035W        W71103  17.872   6.947   2.679
67036W        W71104  15.790   6.938   0.205
67037W        W71105  15.873   5.090   1.188
67038W        W71106  15.388   4.938   1.352
67039W        W71107  16.379   5.753   0.786
67040W        W71108  16.054   6.845   3.141
67041W        W71109  15.465   3.686   2.906
67042W        W71110  17.159   4.074   1.793
67043W        W71111  16.808   4.945   0.363
67044W        W71112  17.378   4.379   3.454
67045W        W71113  14.744   4.171   2.579
67046W        W71114  14.843   6.790   3.600
67047W        W71115  16.365   6.180   0.332
67048W        W71116  14.797   4.963   2.025
67049W        W71117  15.690   4.854   3.262
67050W        W71118  18.149   4.713   1.761
67051W        W71119  17.913   5.756   2.620
67052W        W71120  16.221   5.089   1.647
67053W        W71121  16.767   6.428   2.016
67054W        W71122  15.267   5.862   2.248
67055W        W71123  14.626   5.390   1.819
67056W        W71124  15.662   5.362   3.011
67057W        W71125  17.933   5.145   3.265
67058W        W71126  15.549   6.589   1.710
67059W        W71127  16.670   6.278   2.844
67060W        W71128  15.890   4.918   2.069
67061W        W71129  16.182   5.702   1.712
67062W        W71130  17.179   6.475   3.560
67063W        W71131  16.258   5.795   3.570
67064W        W71132  16.239   5.511   3.048
67065W        W71133  17.480   6.437   3.169
67066W        W71134  15.061   4.019   1.167
67067W        W71135  15.588   6.277   2.166
67068W        W71136  18.051   6.060   1.456
67069W        W71137  17.464   4.460   2.023
67070W        W71138  17.749   4.413   0.118
67071W        W71139  18.214   5.214   2.424
67072W        W71140  16.181   6.921   2.177
67073W        W71141  17.955   6.387   0.615
67074W        W71142  15.084   7.173   0.369
67075W        W71143  15.477   7.219   1.045
67076W        W71144  15.274   3.973   2.471
67077W        W71145  17.897   4.991   2.746
67078W        W71146  17.302   5.413   1.205
67079W        W71147  17.268   5.101   0.232
67080W        W71148  16.476   6.245   2.372
67081W        W71149  16.282   4.575   1.571
67082W        W71150  16.882   6.662   2.565
67083W        W71151  17.753   5.453   0.987
67084W        W71152  16.655   4.111   1.003
67085W        W71153  15.312   6.805   0.686
67086W        W71154  14.683   4.304   1.285
67087W        W71155  17.469   4.911   1.759
67088W        W71156  14.927   6.528   1.674
67089W        W71157  16.268   6.878   0.544
67090W        W71158  17.660   4.904   0.008
67091W        W71159  14.683   6.662   2.172
67092W        W71160  15.474   6.234   2.652
67093W        W71161  15.847   5.594   1.271
67094W        W71162  15.869   3.999   2.364
67095W        W71163  18.098   3.761   1.661
67096W        W71164  15.317   5.633   0.129
67097W        W71165  14.972   4.666   0.308
67098W        W71166  15.034   6.622   1.102
67099W        W71167  16.165   6.105   1.350
67100W        W71168  17.497   6.964   3.064
67101W        W71169  16.423   4.606   0.748
67102W        W71170  17.806   7.004   1.520
67103W        W71171  17.483   4.857   3.118
67104W        W71172  18.196   6.513   1.252
67105W        W71173  16.823   5.805   2.736
67106W        W71174  14.589   5.356   0.942
67107W        W71175  15.700   5.771   2.515
67108W        W71176  16.904   5.035   0.893
67109W        W71177  16.781   5.525   0.997
67110W        W71178  15.124   4.945   2.471
67111W        W71179  15.109   4.821   3.393
67112W        W71180  14.999   3.738   1.552
67113W        W71181  16.767   4.085   2.113
67114W        W71182  16.770   4.419   0.454
67115W        W71183  17.953   6.812   3.208
67116W        W71184  16.920   3.893   3.247
67117W        W71185  17.939   6.194   3.369
67118W        W71186  17.369   4.361   2.965
67119W        W71187  17.169   4.299   1.235
67120W        W71188  17.562   5.433   3.639
67121W        W71189  15.302   7.009   1.625
67122W        W71190  15.960   4.726   0.611
67123W        W71191  15.529   4.010   3.275
67124W        W71192  17.581   4.494   0.956
67125W        W71193  17.948   4.976   0.901
67126W        W71194  15.691   7.193   3.372
67127W        W71195  15.617   3.729   0.607
67128W        W71196  17.938   4.263   1.642
67129W        W71197  18.088   6.512   0.087
67130W        W71198  14.995   5.715   1.789
67131W        W71199  16.912   4.302   0.019
67132W        W71200  18.046   6.634   1.739
67133W        W71201  18.085   3.828   2.489
67134W        W71202  16.530   5.040   3.043
67135W        W71203  16.623   6.379   0.746
67136W        W71204  17.023   5.673   3.486
67137W        W71205  16.697   3.650   1.795
67138W        W71206  15.309   4.553   1.858
67139W        W71207  14.863   5.753   2.632
67140W        W71208  16.722   6.946   1.338
67141W        W71209  17.916   4.543   2.210
67142W        W71210  16.553   6.890   2.977
67143W        W71211  17.896   5.949   0.182
67144W        W71212  16.331   5.432   1.243
67145W        W71213  18.183   3.943   2.984
67146W        W71214  16.332   5.778   2.578
67147W        W71215  16.549   4.664   2.023
67148W        W71216  17.401   4.962   0.861
67149W        W71217  17.688   4.695   0.503
67150W        W71218  17.497   6.735   0.892
67151W        W71219  17.331   6.338   1.688
67152W        W71220  17.227   5.417   0.666
67153W        W71221  16.660   5.627   1.652
67154W        W71222  17.541   5.415   1.719
67155W        W71223  14.916   4.430   2.143
67156W        W71224  17.694   5.482   2.970
67157W        W71225  18.045   7.100   2.116
67158W        W71226  15.975   6.544   1.518
67159W        W71227  16.982   7.077   2.842
67160W        W71228  16.976   4.407   2.606
67161W        W71229  16.183   7.115   2.667
67162W        W71230  17.880   4.069   1.133
67163W        W71231  17.671   5.388   2.434
67164W        W71232  14.654   4.709   2.472
67165W        W71233  17.514   4.504   1.490
67166W        W71234  17.925   4.655   3.267
67167W        W71235  16.810   6.354   1.485
67168W        W71236  16.066   6.945   1.098
67169W        W71237  15.181   4.125   0.356
67170W        W71238  16.285   3.779   2.166
67171W        W71239  15.313   6.899   0.014
67172W        W71240  15.687   5.365   0.765
67173W        W71241  16.341   5.994   3.078
67174W        W71242  16.171   4.352   1.068
67175W        W71243  17.527   3.949   1.496
67176W        W71244  17.247   7.231   1.824
67177W        W71245  16.659   6.879   2.164
67178W        W71246  16.055   5.916   2.125
67179W        W71247  17.825   6.639   2.251
67180W        W71248  15.519   4.142   1.020
67181W        W71249  16.041   6.439   1.980
67182W        W71250  15.524   4.370   0.045
67183W        W71251  16.325   4.979   2.439
67184W        W71252  17.173   3.845   2.309
67185W        W71253  14.593   5.688   2.194
67186W        W71254  16.297   5.506   0.352
67187W        W71255  15.565   3.821   0.122
67188W        W71256  16.303   4.902   1.173
67189W        W71257  17.273   3.878   2.872
67190W        W71258  15.861   5.890   2.981
67191W        W71259  16.665   5.672   3.198
67192W        W71260  17.282   5.702   3.091
67193W        W71261  16.566   3.842   3.596
67194W        W71262  15.788   4.458   1.989
67195W        W71263  15.214   4.414   1.387
67196W        W71264  15.000   7.126   1.063
67197W        W71265  16.332   6.456   3.188
67198W        W71266  15.367   5.941   0.547
67199W        W71267  17.047   5.326   1.768
67200W        W71268  17.327   5.125   2.167
67201W        W71269  16.532   5.799   2.101
67202W        W71270  17.002   6.173   0.233
67203W        W71271  16.674   4.194   1.561
67204W        W71272  18.153   4.472   0.829
67205W        W71273  14.647   7.061   2.860
67206W        W71274  15.064   6.287   2.392
67207W        W71275  14.631   7.133   0.624
67208W        W71276  16.530   4.403   2.430
67209W        W71277  15.893   6.426   0.279
67210W        W71278  17.798   6.808   0.465
67211W        W71279  16.773   5.461   0.479
67212W        W71280  15.616   4.652   0.996
67213W        W71281  16.448   4.562   0.048
67214W        W71282  17.032   6.127   3.226
67215W        W71283  17.385   4.033   0.843
67216W        W71284  14.715   3.881   0.291
67217W        W71285  16.001   6.200   2.581
67218W        W71286  15.800   6.116   1.673
67219W        W71287  15.542   6.068   0.071
67220W        W71288  14.783   6.309   0.839
67221W        W71289  15.287   5.379   3.281
67222W        W71290  16.700   4.081   2.823
67223W        W71291  15.895   3.849   1.104
67224W        W71292  16.954   3.926   0.609
67225W        W71293  14.899   3.858   2.186
67226W        W71294  14.947   4.821   1.556
67227W        W71295  17.636   3.929   1.962
67228W        W71296  15.058   4.427   0.776
67229W        W71297  17.629   4.115   2.392
67230W        W71298  18.025   5.318   0.077
67231W        W71299  15.317   4.076   1.896
67232W        W71300  16.431   4.648   2.836
67233W        W71301  14.579   4.338   0.314
67234W        W71302  15.365   5.727   2.875
67235W        W71303  16.723   5.125   2.054
67236W        W71304  16.590   7.204   0.350
67237W        W71305  14.736   5.711   0.047
67238W        W71306  15.471   6.122   3.173
67239W        W71307  15.983   5.394   2.598
67240W        W71308  17.751   3.753   2.860
67241W        W71309  18.149   5.363   2.851
67242W        W71310  18.137   5.563   0.537
67243W        W71311  17.000   5.895   0.636
67244W        W71312  17.474   7.195   0.331
67245W        W71313  16.651   5.185   3.473
67246W        W71314  14.981   6.152   3.513
67247W        W71315  18.187   4.074   3.465
67248W        W71316  17.905   5.002   2.086
67249W        W71317  16.213   7.132   3.563
67250W        W71318  16.068   3.761   0.290
67251W        W71319  17.607   6.360   0.233
67252W        W71320  15.376   4.453   3.119
67253W        W71321  15.810   6.447   2.981
67254W        W71322  17.936   4.438   2.779
67255W        W71323  17.147   7.097   0.747
67256W        W71324  17.386   5.716   2.114
67257W        W71325  15.636   4.132   2.781
67258W        W71326  16.105   5.201   3.538
67259W        W71327  15.608   6.380   0.732
67260W        W71328  17.363   5.878   0.996
67261W        W71329  15.131   4.504   2.720
67262W        W71330  16.460   6.566   1.184
67263W        W71331  18.210   5.126   1.365
67264W        W71332  16.432   3.759   3.084
67265W        W71333  17.212   6.464   2.163
67266W        W71334  17.515   6.808   1.871
67267W        W71335  16.734   6.610   0.299
67268W        W71336  15.487   4.494   2.379
67269W        W71337  15.457   3.842   1.489
67270W        W71338  17.078   4.684   2.181
67271W        W71339  15.876   5.855   0.381
67272W        W71340  17.874   5.797   1.880
67273W        W71341  15.201   6.555   3.303
67274W        W71342  17.588   7.237   1.100
67275W        W71343  15.687   4.257   1.545
67276W        W71344  15.456   5.750   1.635
67277W        W71345  15.769   7.161   2.385
67278W        W71346  17.836   7.257   3.417
67279W        W71347  16.995   5.445   2.350
67280W        W71348  14.844   5.243   0.265
67281W        W71349  17.978   6.901   0.962
67282W        W71350  17.815   4.225   0.581
67283W        W71351  15.954   3.744   2.984
67284W        W71352  17.660   6.546   1.442
67285W        W71353  17.689   5.102   1.347
67286W        W71354  15.806   4.775   1.563
67287W        W71355  16.051   5.037   2.887
67288W        W71356  17.162   6.190   2.750
67289W        W71357  15.812   4.644   2.862
67290W        W71358  15.791   7.110   1.478
67291W        W71359  15.108   7.069   3.112
67292W        W71360  15.220   6.430   0.242
67293W        W71361  17.737   6.188   1.052
67294W        W71362  15.341   4.980   2.938
67295W        W71363  18.114   4.910   0.419
67296W        W71364  15.859   5.967   0.890
67297W        W71365  16.958   5.349   2.971
67298W        W71366  16.849   4.977   2.515
67299W        W71367  15.409   5.349   2.544
67300W        W71368  17.619   7.237   2.373
67301W        W71369  15.074   4.021   2.954
67302W        W71370  15.413   5.044   2.007
67303W        W71371  15.782   4.858   0.129
67304W        W71372  14.585   6.617   2.674
67305W        W71373  16.170   5.326   2.117
67306W        W71374  15.993   4.351   0.222
67307W        W71375  15.128   5.167   1.003
67308W        W71376  14.899   7.019   2.440
67309W        W71377  17.694   5.245   0.548
67310W        W71378  17.789   4.161   3.234
67311W        W71379  17.225   6.370   1.197
67312W        W71380  17.789   3.758   0.670
67313W        W71381  17.309   6.233   0.681
67314W        W71382  16.211   5.291   0.766
67315W        W71383  17.398   4.095   0.289
67316W        W71384  17.463   4.702   2.475
67317W        W71385  15.172   5.295   1.682
67318W        W71386  15.466   6.234   1.331
67319W        W71387  17.229   4.854   1.296
67320W        W71388  16.252   4.233   1.992
67321W        W71389  18.214   6.144   2.503
67322W        W71390  18.132   4.131   2.064
67323W        W71391  14.671   6.961   1.440
67324W        W71392  15.180   6.148   0.976
67325W        W71393  15.095   3.765   3.529
67326W        W71394  16.214   6.618   3.631
67327W        W71395  17.969   5.586   1.421
67328W        W71396  17.323   5.763   0.301
67329W        W71397  16.618   7.284   2.513
67330W        W71398  17.475   6.006   3.550
67331W        W71399  16.290   3.716   0.830
67332W        W71400  17.003   4.585   1.689
67333W        W71401  14.689   6.172   2.021
67334W        W71402  15.942   4.134   0.662
67335W        W71403  15.746   5.618   3.511
67336W        W71404  16.740   4.599   1.225
67337W        W71405  16.945   6.009   2.347
67338W        W71406  15.099   6.614   2.782
67339W        W71407  15.690   6.597   3.505
67340W        W71408  15.541   4.394   0.519
67341W        W71409  17.058   4.536   0.844
67342W        W71410  17.016   6.644   3.081
67343W        W71411  15.701   5.236   1.680
67344W        W71412  15.356   6.934   2.545
67345W        W71413  18.101   7.051   0.146
67346W        W71414  16.959   5.985   1.830
67347W        W71415  15.395   5.634   1.072
67348W        W71416  15.766   6.641   2.467
67349W        W71417  16.144   4.060   1.508
67350W        W71418  14.755   6.044   0.438
67351W        W71419  16.274   4.995   0.308
67352W        W71420  14.920   5.544   1.327
67353W        W71421  16.210   4.186   2.791
67354W        W71422  17.882   3.895   0.218
67355W        W71423  17.975   5.641   3.317
67356W        W71424  16.629   6.898   3.469
67357W        W71425  18.187   5.992   2.991
67358W        W71426  17.595   6.790   3.602
67359W        W71427  15.334   7.246   2.080
67360W        W71428  18.193   5.868   0.954
67361W        W71429  16.723   5.135   1.467
67362W        W71430  16.490   3.747   1.357
67363W        W71431  15.549   6.731   1.194
67364W        W71432  16.048   4.472   2.419
67365W        W71433  15.748   3.841   1.888
67366W        W71434  14.811   6.663   0.436
67367W        W71435  16.627   6.027   1.154
67368W        W71436  15.502   6.822   3.033
67369W        W71437  14.979   5.645   0.729
67370W        W71438  14.864   4.188   1.728
67371W        W71439  16.412   6.153   1.785
67372W        W71440  14.664   4.007   0.805
67373W        W71441  17.328   5.213   2.732
67374W        W71442  17.205   4.599   0.304
67375W        W71443  17.722   6.271   1.952
67376W        W71444  16.383   6.755   1.783
67377W        W71445  15.795   6.859   0.694
67378W        W71446  17.077   3.762   0.124
67379W        W71447  14.877   7.022   1.865
67380W        W71448  17.074   4.780   3.500
67381W        W71449  15.057   4.310   3.499
67382W        W71450  14.788   4.910   0.832
67383W        W71451  15.479   4.899   0.557
67384W        W71452  17.242   5.226   3.374
67385W        W71453  15.585   5.507   2.083
67386W        W71454  17.059   3.793   1.203
67387W        W71455  16.190   7.224   1.706
67388W        W71456  17.404   6.686   2.643
67389W        W71457  16.988   6.835   1.754
67390W        W71458  17.007   5.815   1.348
67391W        W71459  16.469   4.040   0.419
67392W        W71460  18.150   3.668   1.141
67393W        W71461  15.838   5.303   0.304
67394W        W71462  18.004   4.640   1.294
67395W        W71463  16.696   5.810   0.171
67396W        W71464  17.632   6.010   2.919
67397W        W71465  17.286   6.711   0.386
67398W        W71466  15.901   4.386   3.292
67399W        W71467  15.721   4.970   2.533
67400W        W71468  17.813   6.465   2.810
67401W        W71469  16.913   4.415   3.187
67402W        W71470  14.757   4.886   2.964
67403W        W71471  16.517   5.363   2.690
67404W        W71472  14.874   6.121   1.347
67405W        W71473  15.021   5.418   2.237
67406W        W71474  17.338   5.704   2.587
67407W        W71475  17.110   7.084   3.398
67408W        W71476  17.006   4.823   2.951
67409W        W71477  17.283   6.877   1.356
67410W        W71478  16.285   6.597   2.679
67411W        W71479  15.770   6.952   1.948
67412W        W71480  17.575   6.123   2.367
67413W        W71481  16.625   6.195   3.504
67414W        W71482  15.230   6.148   1.843
67415W        W71483  17.576   5.907   1.488
67416W        W71484  17.217   6.973   2.239
67417W        W71485  15.195   6.702   2.109
67418W        W71486  16.216   4.754   3.319
67419W        W71487  16.667   6.920   0.830
67420W        W71488  15.975   6.175   3.468
67421W        W71489  16.101   6.413   0.845
67422W        W71490  15.322   5.153   0.104
67423W        W71491  14.661   7.239   7.003
67424W        W71492  15.037   6.132   6.526
67425W        W71493  17.742   5.862   4.296
67426W        W71494  17.872   6.947   6.323
67427W        W71495  15.790   6.938   3.849
67428W        W71496  15.873   5.090   4.832
67429W        W71497  15.388   4.938   4.996
67430W        W71498  16.379   5.753   4.430
67431W        W71499  16.054   6.845   6.785
67432W        W71500  14.703   4.406   6.748
67433W        W71501  15.465   3.686   6.550
67434W        W71502  17.159   4.074   5.437
67435W        W71503  16.808   4.945   4.007
67436W        W71504  17.378   4.379   7.098
67437W        W71505  14.744   4.171   6.223
67438W        W71506  14.843   6.790   7.244
67439W        W71507  16.365   6.180   3.976
67440W        W71508  14.797   4.963   5.669
67441W        W71509  15.690   4.854   6.906
67442W        W71510  18.149   4.713   5.405
67443W        W71511  17.913   5.756   6.264
67444W        W71512  16.221   5.089   5.291
67445W        W71513  16.767   6.428   5.660
67446W        W71514  15.267   5.862   5.892
67447W        W71515  14.626   5.390   5.463
67448W        W71516  15.662   5.362   6.655
67449W        W71517  17.933   5.145   6.909
67450W        W71518  15.549   6.589   5.354
67451W        W71519  16.670   6.278   6.488
67452W        W71520  15.890   4.918   5.713
67453W        W71521  16.182   5.702   5.356
67454W        W71522  17.179   6.475   7.204
67455W        W71523  16.258   5.795   7.214
67456W        W71524  16.239   5.511   6.692
67457W        W71525  14.648   4.902   7.214
67458W        W71526  17.480   6.437   6.813
67459W        W71527  15.061   4.019   4.811
67460W        W71528  15.588   6.277   5.810
67461W        W71529  18.051   6.060   5.100
67462W        W71530  17.464   4.460   5.667
67463W        W71531  17.749   4.413   3.762
67464W        W71532  18.214   5.214   6.068
67465W        W71533  16.181   6.921   5.821
67466W        W71534  17.955   6.387   4.259
67467W        W71535  15.084   7.173   4.013
67468W        W71536  15.477   7.219   4.689
67469W        W71537  15.274   3.973   6.115
67470W        W71538  17.897   4.991   6.390
67471W        W71539  17.302   5.413   4.849
67472W        W71540  17.268   5.101   3.876
67473W        W71541  16.476   6.245   6.016
67474W        W71542  16.282   4.575   5.215
67475W        W71543  16.882   6.662   6.209
67476W        W71544  17.753   5.453   4.631
67477W        W71545  16.655   4.111   4.647
67478W        W71546  15.312   6.805   4.330
67479W        W71547  14.683   4.304   4.929
67480W        W71548  17.469   4.911   5.403
67481W        W71549  14.927   6.528   5.318
67482W        W71550  16.268   6.878   4.188
67483W        W71551  17.660   4.904   3.652
67484W        W71552  14.683   6.662   5.816
67485W        W71553  15.474   6.234   6.296
67486W        W71554  15.847   5.594   4.915
67487W        W71555  15.869   3.999   6.008
67488W        W71556  18.098   3.761   5.305
67489W        W71557  15.317   5.633   3.773
67490W        W71558  14.972   4.666   3.952
67491W        W71559  15.034   6.622   4.746
67492W        W71560  16.165   6.105   4.994
67493W        W71561  17.497   6.964   6.708
67494W        W71562  16.423   4.606   4.392
67495W        W71563  17.806   7.004   5.164
67496W        W71564  17.483   4.857   6.762
67497W        W71565  18.196   6.513   4.896
67498W        W71566  16.823   5.805   6.380
67499W        W71567  14.589   5.356   4.586
67500W        W71568  15.700   5.771   6.159
67501W        W71569  16.904   5.035   4.537
67502W        W71570  16.781   5.525   4.641
67503W        W71571  15.124   4.945   6.115
67504W        W71572  15.109   4.821   7.037
67505W        W71573  14.999   3.738   5.196
67506W        W71574  16.767   4.085   5.757
67507W        W71575  16.415   4.270   6.920
67508W        W71576  17.953   6.812   6.852
67509W        W71577  16.920   3.893   6.891
67510W        W71578  17.939   6.194   7.013
67511W        W71579  17.369   4.361   6.609
67512W        W71580  17.169   4.299   4.879
67513W        W71581  17.562   5.433   7.283
67514W        W71582  15.302   7.009   5.269
67515W        W71583  15.960   4.726   4.255
67516W        W71584  15.529   4.010   6.919
67517W        W71585  17.581   4.494   4.600
67518W        W71586  17.948   4.976   4.545
67519W        W71587  15.691   7.193   7.016
67520W        W71588  15.617   3.729   4.251
67521W        W71589  17.938   4.263   5.286
67522W        W71590  18.088   6.512   3.731
67523W        W71591  14.995   5.715   5.433
67524W        W71592  16.912   4.302   3.663
67525W        W71593  18.046   6.634   5.383
67526W        W71594  18.085   3.828   6.133
67527W        W71595  16.530   5.040   6.687
67528W        W71596  16.623   6.379   4.390
67529W        W71597  17.023   5.673   7.130
67530W        W71598  16.697   3.650   5.439
67531W        W71599  15.309   4.553   5.502
67532W        W71600  14.863   5.753   6.276
67533W        W71601  16.722   6.946   4.982
67534W        W71602  17.916   4.543   5.854
67535W        W71603  16.553   6.890   6.621
67536W        W71604  17.896   5.949   3.826
67537W        W71605  16.331   5.432   4.887
67538W        W71606  18.183   3.943   6.628
67539W        W71607  16.332   5.778   6.222
67540W        W71608  16.549   4.664   5.667
67541W        W71609  17.401   4.962   4.505
67542W        W71610  17.688   4.695   4.147
67543W        W71611  17.497   6.735   4.536
67544W        W71612  17.331   6.338   5.332
67545W        W71613  17.227   5.417   4.310
67546W        W71614  16.660   5.627   5.296
67547W        W71615  17.541   5.415   5.363
67548W        W71616  14.916   4.430   5.787
67549W        W71617  17.694   5.482   6.614
67550W        W71618  18.045   7.100   5.760
67551W        W71619  15.975   6.544   5.162
67552W        W71620  16.982   7.077   6.486
67553W        W71621  16.976   4.407   6.250
67554W        W71622  16.183   7.115   6.311
67555W        W71623  17.880   4.069   4.777
67556W        W71624  17.671   5.388   6.078
67557W        W71625  14.654   4.709   6.116
67558W        W71626  17.514   4.504   5.134
67559W        W71627  17.925   4.655   6.911
67560W        W71628  16.810   6.354   5.129
67561W        W71629  16.066   6.945   4.742
67562W        W71630  15.181   4.125   4.000
67563W        W71631  16.285   3.779   5.810
67564W        W71632  15.313   6.899   3.658
67565W        W71633  15.687   5.365   4.409
67566W        W71634  16.341   5.994   6.722
67567W        W71635  16.171   4.352   4.712
67568W        W71636  17.527   3.949   5.140
67569W        W71637  17.247   7.231   5.468
67570W        W71638  16.659   6.879   5.808
67571W        W71639  16.055   5.916   5.769
67572W        W71640  17.825   6.639   5.895
67573W        W71641  15.519   4.142   4.664
67574W        W71642  16.041   6.439   5.624
67575W        W71643  15.524   4.370   3.689
67576W        W71644  16.325   4.979   6.083
67577W        W71645  17.173   3.845   5.953
67578W        W71646  14.593   5.688   5.838
67579W        W71647  16.297   5.506   3.996
67580W        W71648  15.565   3.821   3.766
67581W        W71649  16.303   4.902   4.817
67582W        W71650  17.273   3.878   6.516
67583W        W71651  15.861   5.890   6.625
67584W        W71652  16.665   5.672   6.842
67585W        W71653  17.282   5.702   6.735
67586W        W71654  16.566   3.842   7.240
67587W        W71655  15.788   4.458   5.633
67588W        W71656  15.214   4.414   5.031
67589W        W71657  15.000   7.126   4.707
67590W        W71658  16.332   6.456   6.832
67591W        W71659  15.367   5.941   4.191
67592W        W71660  17.047   5.326   5.412
67593W        W71661  17.327   5.125   5.811
67594W        W71662  16.532   5.799   5.745
67595W        W71663  17.002   6.173   3.877
67596W        W71664  16.674   4.194   5.205
67597W        W71665  18.153   4.472   4.473
67598W        W71666  14.647   7.061   6.504
67599W        W71667  15.064   6.287   6.036
67600W        W71668  14.631   7.133   4.268
67601W        W71669  16.530   4.403   6.074
67602W        W71670  15.893   6.426   3.923
67603W        W71671  17.798   6.808   4.109
67604W        W71672  16.773   5.461   4.123
67605W        W71673  15.616   4.652   4.640
67606W        W71674  16.448   4.562   3.692
67607W        W71675  17.032   6.127   6.870
67608W        W71676  17.385   4.033   4.487
67609W        W71677  14.715   3.881   3.935
67610W        W71678  16.001   6.200   6.225
67611W        W71679  15.800   6.116   5.317
67612W        W71680  15.542   6.068   3.715
67613W        W71681  15.287   5.379   6.925
67614W        W71682  15.991   3.939   7.111
67615W        W71683  16.700   4.081   6.467
67616W        W71684  15.895   3.849   4.748
67617W        W71685  14.899   3.858   5.830
67618W        W71686  14.947   4.821   5.200
67619W        W71687  17.636   3.929   5.606
67620W        W71688  15.058   4.427   4.420
67621W        W71689  17.629   4.115   6.036
67622W        W71690  18.025   5.318   3.721
67623W        W71691  15.317   4.076   5.540
67624W        W71692  16.431   4.648   6.480
67625W        W71693  14.579   4.338   3.958
67626W        W71694  15.365   5.727   6.519
67627W        W71695  16.723   5.125   5.698
67628W        W71696  16.590   7.204   3.994
67629W        W71697  14.736   5.711   3.691
67630W        W71698  15.471   6.122   6.817
67631W        W71699  14.992   5.289   6.448
67632W        W71700  15.983   5.394   6.242
67633W        W71701  17.751   3.753   6.504
67634W        W71702  18.149   5.363   6.495
67635W        W71703  18.137   5.563   4.181
67636W        W71704  17.000   5.895   4.280
67637W        W71705  17.474   7.195   3.975
67638W        W71706  16.651   5.185   7.117
67639W        W71707  14.981   6.152   7.157
67640W        W71708  18.187   4.074   7.109
67641W        W71709  17.905   5.002   5.730
67642W        W71710  16.213   7.132   7.207
67643W        W71711  16.068   3.761   3.934
67644W        W71712  17.607   6.360   3.877
67645W        W71713  15.376   4.453   6.763
67646W        W71714  15.810   6.447   6.625
67647W        W71715  17.936   4.438   6.423
67648W        W71716  17.147   7.097   4.391
67649W        W71717  17.386   5.716   5.758
67650W        W71718  15.636   4.132   6.425
67651W        W71719  16.105   5.201   7.182
67652W        W71720  15.608   6.380   4.376
67653W        W71721  17.363   5.878   4.640
67654W        W71722  15.131   4.504   6.364
67655W        W71723  16.460   6.566   4.828
67656W        W71724  18.210   5.126   5.009
67657W        W71725  16.432   3.759   6.728
67658W        W71726  17.212   6.464   5.807
67659W        W71727  17.515   6.808   5.515
67660W        W71728  16.734   6.610   3.943
67661W        W71729  14.744   6.502   6.785
67662W        W71730  15.487   4.494   6.023
67663W        W71731  15.457   3.842   5.133
67664W        W71732  17.078   4.684   5.825
67665W        W71733  15.876   5.855   4.025
67666W        W71734  17.874   5.797   5.524
67667W        W71735  15.201   6.555   6.947
67668W        W71736  17.588   7.237   4.744
67669W        W71737  15.687   4.257   5.189
67670W        W71738  15.456   5.750   5.279
67671W        W71739  15.769   7.161   6.029
67672W        W71740  17.836   7.257   7.061
67673W        W71741  16.995   5.445   5.994
67674W        W71742  14.844   5.243   3.909
67675W        W71743  17.978   6.901   4.606
67676W        W71744  15.954   3.744   6.628
67677W        W71745  17.660   6.546   5.086
67678W        W71746  17.689   5.102   4.991
67679W        W71747  15.806   4.775   5.207
67680W        W71748  16.051   5.037   6.531
67681W        W71749  17.162   6.190   6.394
67682W        W71750  15.812   4.644   6.506
67683W        W71751  15.791   7.110   5.122
67684W        W71752  15.108   7.069   6.756
67685W        W71753  15.220   6.430   3.886
67686W        W71754  17.737   6.188   4.696
67687W        W71755  15.341   4.980   6.582
67688W        W71756  18.114   4.910   4.063
67689W        W71757  15.859   5.967   4.534
67690W        W71758  16.958   5.349   6.615
67691W        W71759  16.849   4.977   6.159
67692W        W71760  15.409   5.349   6.188
67693W        W71761  17.619   7.237   6.017
67694W        W71762  17.410   3.871   7.011
67695W        W71763  15.074   4.021   6.598
67696W        W71764  15.413   5.044   5.651
67697W        W71765  15.782   4.858   3.773
67698W        W71766  14.585   6.617   6.318
67699W        W71767  16.170   5.326   5.761
67700W        W71768  15.128   5.167   4.647
67701W        W71769  14.899   7.019   6.084
67702W        W71770  17.694   5.245   4.192
67703W        W71771  17.789   4.161   6.878
67704W        W71772  17.225   6.370   4.841
67705W        W71773  14.823   5.294   7.018
67706W        W71774  17.789   3.758   4.314
67707W        W71775  17.309   6.233   4.325
67708W        W71776  16.211   5.291   4.410
67709W        W71777  17.463   4.702   6.119
67710W        W71778  15.172   5.295   5.326
67711W        W71779  15.466   6.234   4.975
67712W        W71780  17.229   4.854   4.940
67713W        W71781  16.252   4.233   5.636
67714W        W71782  18.214   6.144   6.147
67715W        W71783  18.132   4.131   5.708
67716W        W71784  14.671   6.961   5.084
67717W        W71785  15.180   6.148   4.620
67718W        W71786  15.095   3.765   7.173
67719W        W71787  16.214   6.618   7.275
67720W        W71788  17.969   5.586   5.065
67721W        W71789  17.323   5.763   3.945
67722W        W71790  16.618   7.284   6.157
67723W        W71791  17.475   6.006   7.194
67724W        W71792  16.290   3.716   4.474
67725W        W71793  17.003   4.585   5.333
67726W        W71794  14.689   6.172   5.665
67727W        W71795  15.942   4.134   4.306
67728W        W71796  15.746   5.618   7.155
67729W        W71797  16.740   4.599   4.869
67730W        W71798  16.945   6.009   5.991
67731W        W71799  15.099   6.614   6.426
67732W        W71800  15.690   6.597   7.149
67733W        W71801  15.541   4.394   4.163
67734W        W71802  17.058   4.536   4.488
67735W        W71803  17.016   6.644   6.725
67736W        W71804  15.701   5.236   5.324
67737W        W71805  15.356   6.934   6.189
67738W        W71806  18.101   7.051   3.790
67739W        W71807  14.964   5.723   6.786
67740W        W71808  16.959   5.985   5.474
67741W        W71809  15.395   5.634   4.716
67742W        W71810  15.766   6.641   6.111
67743W        W71811  16.144   4.060   5.152
67744W        W71812  14.755   6.044   4.082
67745W        W71813  16.274   4.995   3.952
67746W        W71814  14.920   5.544   4.971
67747W        W71815  16.210   4.186   6.435
67748W        W71816  17.882   3.895   3.862
67749W        W71817  17.975   5.641   6.961
67750W        W71818  16.629   6.898   7.113
67751W        W71819  18.187   5.992   6.635
67752W        W71820  17.595   6.790   7.246
67753W        W71821  15.334   7.246   5.724
67754W        W71822  18.193   5.868   4.598
67755W        W71823  16.723   5.135   5.111
67756W        W71824  16.490   3.747   5.001
67757W        W71825  15.549   6.731   4.838
67758W        W71826  16.048   4.472   6.063
67759W        W71827  15.748   3.841   5.532
67760W        W71828  14.811   6.663   4.080
67761W        W71829  16.627   6.027   4.798
67762W        W71830  15.502   6.822   6.677
67763W        W71831  14.979   5.645   4.373
67764W        W71832  14.864   4.188   5.372
67765W        W71833  16.412   6.153   5.429
67766W        W71834  14.664   4.007   4.449
67767W        W71835  17.328   5.213   6.376
67768W        W71836  17.205   4.599   3.948
67769W        W71837  17.722   6.271   5.596
67770W        W71838  16.383   6.755   5.427
67771W        W71839  15.795   6.859   4.338
67772W        W71840  14.877   7.022   5.509
67773W        W71841  17.074   4.780   7.144
67774W        W71842  15.057   4.310   7.143
67775W        W71843  14.788   4.910   4.476
67776W        W71844  15.479   4.899   4.201
67777W        W71845  17.242   5.226   7.018
67778W        W71846  15.585   5.507   5.727
67779W        W71847  17.059   3.793   4.847
67780W        W71848  16.190   7.224   5.350
67781W        W71849  17.404   6.686   6.287
67782W        W71850  16.988   6.835   5.398
67783W        W71851  17.007   5.815   4.992
67784W        W71852  16.469   4.040   4.063
67785W        W71853  18.150   3.668   4.785
67786W        W71854  15.838   5.303   3.948
67787W        W71855  18.004   4.640   4.938
67788W        W71856  16.696   5.810   3.815
67789W        W71857  17.632   6.010   6.563
67790W        W71858  17.286   6.711   4.030
67791W        W71859  15.901   4.386   6.936
67792W        W71860  15.721   4.970   6.177
67793W        W71861  17.813   6.465   6.454
67794W        W71862  16.913   4.415   6.831
67795W        W71863  14.757   4.886   6.608
67796W        W71864  16.517   5.363   6.334
67797W        W71865  14.874   6.121   4.991
67798W        W71866  15.021   5.418   5.881
67799W        W71867  17.338   5.704   6.231
67800W        W71868  17.110   7.084   7.042
67801W        W71869  17.006   4.823   6.595
67802W        W71870  17.283   6.877   5.000
67803W        W71871  16.285   6.597   6.323
67804W        W71872  15.770   6.952   5.592
67805W        W71873  17.575   6.123   6.011
67806W        W71874  16.625   6.195   7.148
67807W        W71875  15.230   6.148   5.487
67808W        W71876  17.576   5.907   5.132
67809W        W71877  17.217   6.973   5.883
67810W        W71878  15.195   6.702   5.753
67811W        W71879  16.216   4.754   6.963
67812W        W71880  16.667   6.920   4.474
67813W        W71881  15.975   6.175   7.112
67814W        W71882  16.101   6.413   4.489
67815W        W71883  15.322   5.153   3.748
67816W        W71884  14.661   7.239  10.648
67817W        W71885  15.037   6.132  10.171
67818W        W71886  17.742   5.862   7.941
67819W        W71887  17.872   6.947   9.968
67820W        W71888  15.790   6.938   7.494
67821W        W71889  15.873   5.090   8.477
67822W        W71890  15.388   4.938   8.641
67823W        W71891  16.379   5.753   8.075
67824W        W71892  16.054   6.845  10.430
67825W        W71893  14.703   4.406  10.393
67826W        W71894  15.465   3.686  10.195
67827W        W71895  17.159   4.074   9.082
67828W        W71896  16.808   4.945   7.652
67829W        W71897  17.378   4.379  10.743
67830W        W71898  14.744   4.171   9.868
67831W        W71899  14.843   6.790  10.889
67832W        W71900  16.365   6.180   7.621
67833W        W71901  14.797   4.963   9.314
67834W        W71902  15.690   4.854  10.551
67835W        W71903  18.149   4.713   9.050
67836W        W71904  17.913   5.756   9.909
67837W        W71905  16.221   5.089   8.936
67838W        W71906  16.767   6.428   9.305
67839W        W71907  15.267   5.862   9.537
67840W        W71908  14.626   5.390   9.108
67841W        W71909  15.662   5.362  10.300
67842W        W71910  17.933   5.145  10.554
67843W        W71911  15.549   6.589   8.999
67844W        W71912  16.670   6.278  10.133
67845W        W71913  15.890   4.918   9.358
67846W        W71914  16.182   5.702   9.001
67847W        W71915  17.179   6.475  10.849
67848W        W71916  16.258   5.795  10.859
67849W        W71917  16.239   5.511  10.337
67850W        W71918  14.648   4.902  10.859
67851W        W71919  17.480   6.437  10.458
67852W        W71920  15.061   4.019   8.456
67853W        W71921  15.588   6.277   9.455
67854W        W71922  18.051   6.060   8.745
67855W        W71923  17.464   4.460   9.312
67856W        W71924  17.749   4.413   7.407
67857W        W71925  18.214   5.214   9.713
67858W        W71926  16.181   6.921   9.466
67859W        W71927  17.955   6.387   7.904
67860W        W71928  15.084   7.173   7.658
67861W        W71929  15.477   7.219   8.334
67862W        W71930  15.274   3.973   9.760
67863W        W71931  17.897   4.991  10.035
67864W        W71932  17.302   5.413   8.494
67865W        W71933  17.268   5.101   7.521
67866W        W71934  16.476   6.245   9.661
67867W        W71935  16.282   4.575   8.860
67868W        W71936  16.882   6.662   9.854
67869W        W71937  17.753   5.453   8.276
67870W        W71938  16.655   4.111   8.292
67871W        W71939  15.312   6.805   7.975
67872W        W71940  14.683   4.304   8.574
67873W        W71941  17.469   4.911   9.048
67874W        W71942  14.927   6.528   8.963
67875W        W71943  16.268   6.878   7.833
67876W        W71944  17.660   4.904   7.297
67877W        W71945  14.683   6.662   9.461
67878W        W71946  15.474   6.234   9.941
67879W        W71947  15.847   5.594   8.560
67880W        W71948  15.869   3.999   9.653
67881W        W71949  18.098   3.761   8.950
67882W        W71950  15.317   5.633   7.418
67883W        W71951  14.972   4.666   7.597
67884W        W71952  15.034   6.622   8.391
67885W        W71953  16.165   6.105   8.639
67886W        W71954  17.497   6.964  10.353
67887W        W71955  16.423   4.606   8.037
67888W        W71956  17.806   7.004   8.809
67889W        W71957  17.483   4.857  10.407
67890W        W71958  18.196   6.513   8.541
67891W        W71959  16.823   5.805  10.025
67892W        W71960  14.589   5.356   8.231
67893W        W71961  15.700   5.771   9.804
67894W        W71962  16.904   5.035   8.182
67895W        W71963  16.781   5.525   8.286
67896W        W71964  15.124   4.945   9.760
67897W        W71965  15.109   4.821  10.682
67898W        W71966  14.999   3.738   8.841
67899W        W71967  16.767   4.085   9.402
67900W        W71968  16.415   4.270  10.565
67901W        W71969  16.770   4.419   7.743
67902W        W71970  17.953   6.812  10.497
67903W        W71971  16.920   3.893  10.536
67904W        W71972  17.939   6.194  10.658
67905W        W71973  17.369   4.361  10.254
67906W        W71974  17.169   4.299   8.524
67907W        W71975  17.562   5.433  10.928
67908W        W71976  15.302   7.009   8.914
67909W        W71977  15.960   4.726   7.900
67910W        W71978  15.529   4.010  10.564
67911W        W71979  17.581   4.494   8.245
67912W        W71980  17.948   4.976   8.190
67913W        W71981  15.691   7.193  10.661
67914W        W71982  15.617   3.729   7.896
67915W        W71983  17.938   4.263   8.931
67916W        W71984  18.088   6.512   7.376
67917W        W71985  14.995   5.715   9.078
67918W        W71986  16.912   4.302   7.308
67919W        W71987  18.046   6.634   9.028
67920W        W71988  18.085   3.828   9.778
67921W        W71989  16.530   5.040  10.332
67922W        W71990  16.623   6.379   8.035
67923W        W71991  17.023   5.673  10.775
67924W        W71992  16.697   3.650   9.084
67925W        W71993  15.309   4.553   9.147
67926W        W71994  14.863   5.753   9.921
67927W        W71995  16.722   6.946   8.627
67928W        W71996  17.916   4.543   9.499
67929W        W71997  16.553   6.890  10.266
67930W        W71998  17.896   5.949   7.471
67931W        W71999  16.331   5.432   8.532
67932W        W72000  18.183   3.943  10.273
67933W        W72001  16.332   5.778   9.867
67934W        W72002  16.549   4.664   9.312
67935W        W72003  17.401   4.962   8.150
67936W        W72004  17.688   4.695   7.792
67937W        W72005  17.497   6.735   8.181
67938W        W72006  17.331   6.338   8.977
67939W        W72007  17.227   5.417   7.955
67940W        W72008  16.660   5.627   8.941
67941W        W72009  17.541   5.415   9.008
67942W        W72010  14.916   4.430   9.432
67943W        W72011  17.694   5.482  10.259
67944W        W72012  18.045   7.100   9.405
67945W        W72013  15.975   6.544   8.807
67946W        W72014  16.982   7.077  10.131
67947W        W72015  16.976   4.407   9.895
67948W        W72016  16.183   7.115   9.956
67949W        W72017  17.880   4.069   8.422
67950W        W72018  17.671   5.388   9.723
67951W        W72019  14.654   4.709   9.761
67952W        W72020  17.514   4.504   8.779
67953W        W72021  17.925   4.655  10.556
67954W        W72022  16.810   6.354   8.774
67955W        W72023  16.066   6.945   8.387
67956W        W72024  15.181   4.125   7.645
67957W        W72025  16.285   3.779   9.455
67958W        W72026  15.313   6.899   7.303
67959W        W72027  15.687   5.365   8.054
67960W        W72028  16.341   5.994  10.367
67961W        W72029  16.171   4.352   8.357
67962W        W72030  17.527   3.949   8.785
67963W        W72031  17.247   7.231   9.113
67964W        W72032  16.659   6.879   9.453
67965W        W72033  16.055   5.916   9.414
67966W        W72034  17.825   6.639   9.540
67967W        W72035  15.519   4.142   8.309
67968W        W72036  16.041   6.439   9.269
67969W        W72037  15.524   4.370   7.334
67970W        W72038  16.325   4.979   9.728
67971W        W72039  17.173   3.845   9.598
67972W        W72040  14.593   5.688   9.483
67973W        W72041  16.297   5.506   7.641
67974W        W72042  15.565   3.821   7.411
67975W        W72043  16.303   4.902   8.462
67976W        W72044  17.273   3.878  10.161
67977W        W72045  15.861   5.890  10.270
67978W        W72046  16.665   5.672  10.487
67979W        W72047  17.282   5.702  10.380
67980W        W72048  16.566   3.842  10.885
67981W        W72049  15.788   4.458   9.278
67982W        W72050  15.214   4.414   8.676
67983W        W72051  15.000   7.126   8.352
67984W        W72052  16.332   6.456  10.477
67985W        W72053  15.367   5.941   7.836
67986W        W72054  17.047   5.326   9.057
67987W        W72055  17.327   5.125   9.456
67988W        W72056  16.532   5.799   9.390
67989W        W72057  17.002   6.173   7.522
67990W        W72058  16.674   4.194   8.850
67991W        W72059  18.153   4.472   8.118
67992W        W72060  14.647   7.061  10.149
67993W        W72061  15.064   6.287   9.681
67994W        W72062  14.631   7.133   7.913
67995W        W72063  16.530   4.403   9.719
67996W        W72064  15.893   6.426   7.568
67997W        W72065  17.798   6.808   7.754
67998W        W72066  16.773   5.461   7.768
67999W        W72067  15.616   4.652   8.285
68000W        W72068  16.448   4.562   7.337
68001W        W72069  17.032   6.127  10.515
68002W        W72070  17.385   4.033   8.132
68003W        W72071  14.715   3.881   7.580
68004W        W72072  16.001   6.200   9.870
68005W        W72073  15.800   6.116   8.962
68006W        W72074  15.542   6.068   7.360
68007W        W72075  14.783   6.309   8.128
68008W        W72076  15.287   5.379  10.570
68009W        W72077  15.991   3.939  10.756
68010W        W72078  16.700   4.081  10.112
68011W        W72079  15.895   3.849   8.393
68012W        W72080  16.954   3.926   7.898
68013W        W72081  14.899   3.858   9.475
68014W        W72082  14.947   4.821   8.845
68015W        W72083  17.636   3.929   9.251
68016W        W72084  15.058   4.427   8.065
68017W        W72085  17.629   4.115   9.681
68018W        W72086  18.025   5.318   7.366
68019W        W72087  15.317   4.076   9.185
68020W        W72088  16.431   4.648  10.125
68021W        W72089  14.579   4.338   7.603
68022W        W72090  15.365   5.727  10.164
68023W        W72091  16.723   5.125   9.343
68024W        W72092  16.590   7.204   7.639
68025W        W72093  14.736   5.711   7.336
68026W        W72094  15.471   6.122  10.462
68027W        W72095  14.992   5.289  10.093
68028W        W72096  15.983   5.394   9.887
68029W        W72097  17.751   3.753  10.149
68030W        W72098  18.149   5.363  10.140
68031W        W72099  18.137   5.563   7.826
68032W        W72100  17.000   5.895   7.925
68033W        W72101  17.474   7.195   7.620
68034W        W72102  16.651   5.185  10.762
68035W        W72103  14.981   6.152  10.802
68036W        W72104  18.187   4.074  10.754
68037W        W72105  17.905   5.002   9.375
68038W        W72106  16.213   7.132  10.852
68039W        W72107  16.068   3.761   7.579
68040W        W72108  17.607   6.360   7.522
68041W        W72109  15.376   4.453  10.408
68042W        W72110  15.810   6.447  10.270
68043W        W72111  17.936   4.438  10.068
68044W        W72112  17.147   7.097   8.036
68045W        W72113  17.386   5.716   9.403
68046W        W72114  15.636   4.132  10.070
68047W        W72115  16.105   5.201  10.827
68048W        W72116  15.608   6.380   8.021
68049W        W72117  17.363   5.878   8.285
68050W        W72118  15.131   4.504  10.009
68051W        W72119  16.460   6.566   8.473
68052W        W72120  18.210   5.126   8.654
68053W        W72121  16.432   3.759  10.373
68054W        W72122  17.212   6.464   9.452
68055W        W72123  17.515   6.808   9.160
68056W        W72124  16.734   6.610   7.588
68057W        W72125  14.744   6.502  10.430
68058W        W72126  15.487   4.494   9.668
68059W        W72127  15.457   3.842   8.778
68060W        W72128  17.078   4.684   9.470
68061W        W72129  15.876   5.855   7.670
68062W        W72130  17.874   5.797   9.169
68063W        W72131  15.201   6.555  10.592
68064W        W72132  17.588   7.237   8.389
68065W        W72133  15.687   4.257   8.834
68066W        W72134  15.456   5.750   8.924
68067W        W72135  15.769   7.161   9.674
68068W        W72136  17.836   7.257  10.706
68069W        W72137  16.995   5.445   9.639
68070W        W72138  14.844   5.243   7.554
68071W        W72139  17.978   6.901   8.251
68072W        W72140  17.815   4.225   7.870
68073W        W72141  15.954   3.744  10.273
68074W        W72142  17.660   6.546   8.731
68075W        W72143  17.689   5.102   8.636
68076W        W72144  15.806   4.775   8.852
68077W        W72145  16.051   5.037  10.176
68078W        W72146  17.162   6.190  10.039
68079W        W72147  15.812   4.644  10.151
68080W        W72148  15.791   7.110   8.767
68081W        W72149  15.108   7.069  10.401
68082W        W72150  15.220   6.430   7.531
68083W        W72151  17.737   6.188   8.341
68084W        W72152  15.341   4.980  10.227
68085W        W72153  18.114   4.910   7.708
68086W        W72154  15.859   5.967   8.179
68087W        W72155  16.958   5.349  10.260
68088W        W72156  16.849   4.977   9.804
68089W        W72157  15.409   5.349   9.833
68090W        W72158  17.619   7.237   9.662
68091W        W72159  17.410   3.871  10.656
68092W        W72160  15.074   4.021  10.243
68093W        W72161  15.413   5.044   9.296
68094W        W72162  15.782   4.858   7.418
68095W        W72163  14.585   6.617   9.963
68096W        W72164  16.170   5.326   9.406
68097W        W72165  15.993   4.351   7.511
68098W        W72166  15.128   5.167   8.292
68099W        W72167  14.899   7.019   9.729
68100W        W72168  17.694   5.245   7.837
68101W        W72169  17.789   4.161  10.523
68102W        W72170  17.225   6.370   8.486
68103W        W72171  14.823   5.294  10.663
68104W        W72172  17.789   3.758   7.959
68105W        W72173  17.309   6.233   7.970
68106W        W72174  16.211   5.291   8.055
68107W        W72175  17.398   4.095   7.578
68108W        W72176  17.463   4.702   9.764
68109W        W72177  15.172   5.295   8.971
68110W        W72178  15.466   6.234   8.620
68111W        W72179  17.229   4.854   8.585
68112W        W72180  16.252   4.233   9.281
68113W        W72181  18.214   6.144   9.792
68114W        W72182  18.132   4.131   9.353
68115W        W72183  14.671   6.961   8.729
68116W        W72184  15.180   6.148   8.265
68117W        W72185  15.095   3.765  10.818
68118W        W72186  16.214   6.618  10.920
68119W        W72187  17.969   5.586   8.710
68120W        W72188  17.323   5.763   7.590
68121W        W72189  16.618   7.284   9.802
68122W        W72190  17.475   6.006  10.839
68123W        W72191  16.290   3.716   8.119
68124W        W72192  17.003   4.585   8.978
68125W        W72193  14.689   6.172   9.310
68126W        W72194  15.942   4.134   7.951
68127W        W72195  15.746   5.618  10.800
68128W        W72196  16.740   4.599   8.514
68129W        W72197  16.945   6.009   9.636
68130W        W72198  15.099   6.614  10.071
68131W        W72199  15.690   6.597  10.794
68132W        W72200  15.541   4.394   7.808
68133W        W72201  17.058   4.536   8.133
68134W        W72202  17.016   6.644  10.370
68135W        W72203  15.701   5.236   8.969
68136W        W72204  15.356   6.934   9.834
68137W        W72205  18.101   7.051   7.435
68138W        W72206  14.964   5.723  10.431
68139W        W72207  16.959   5.985   9.119
68140W        W72208  15.395   5.634   8.361
68141W        W72209  15.766   6.641   9.756
68142W        W72210  16.144   4.060   8.797
68143W        W72211  14.755   6.044   7.727
68144W        W72212  16.274   4.995   7.597
68145W        W72213  14.920   5.544   8.616
68146W        W72214  16.210   4.186  10.080
68147W        W72215  17.882   3.895   7.507
68148W        W72216  17.975   5.641  10.606
68149W        W72217  16.629   6.898  10.758
68150W        W72218  18.187   5.992  10.280
68151W        W72219  17.595   6.790  10.891
68152W        W72220  15.334   7.246   9.369
68153W        W72221  18.193   5.868   8.243
68154W        W72222  16.723   5.135   8.756
68155W        W72223  16.490   3.747   8.646
68156W        W72224  15.549   6.731   8.483
68157W        W72225  16.048   4.472   9.708
68158W        W72226  15.748   3.841   9.177
68159W        W72227  14.811   6.663   7.725
68160W        W72228  16.627   6.027   8.443
68161W        W72229  15.502   6.822  10.322
68162W        W72230  14.979   5.645   8.018
68163W        W72231  14.864   4.188   9.017
68164W        W72232  16.412   6.153   9.074
68165W        W72233  14.664   4.007   8.094
68166W        W72234  17.328   5.213  10.021
68167W        W72235  17.205   4.599   7.593
68168W        W72236  17.722   6.271   9.241
68169W        W72237  16.383   6.755   9.072
68170W        W72238  15.795   6.859   7.983
68171W        W72239  17.077   3.762   7.413
68172W        W72240  14.877   7.022   9.154
68173W        W72241  17.074   4.780  10.789
68174W        W72242  15.057   4.310  10.788
68175W        W72243  14.788   4.910   8.121
68176W        W72244  15.479   4.899   7.846
68177W        W72245  17.242   5.226  10.663
68178W        W72246  15.585   5.507   9.372
68179W        W72247  17.059   3.793   8.492
68180W        W72248  16.190   7.224   8.995
68181W        W72249  17.404   6.686   9.932
68182W        W72250  16.988   6.835   9.043
68183W        W72251  17.007   5.815   8.637
68184W        W72252  16.469   4.040   7.708
68185W        W72253  18.150   3.668   8.430
68186W        W72254  15.838   5.303   7.593
68187W        W72255  18.004   4.640   8.583
68188W        W72256  16.696   5.810   7.460
68189W        W72257  17.632   6.010  10.208
68190W        W72258  17.286   6.711   7.675
68191W        W72259  15.901   4.386  10.581
68192W        W72260  15.721   4.970   9.822
68193W        W72261  17.813   6.465  10.099
68194W        W72262  16.913   4.415  10.476
68195W        W72263  14.757   4.886  10.253
68196W        W72264  16.517   5.363   9.979
68197W        W72265  14.874   6.121   8.636
68198W        W72266  15.021   5.418   9.526
68199W        W72267  17.338   5.704   9.876
68200W        W72268  17.110   7.084  10.687
68201W        W72269  17.006   4.823  10.240
68202W        W72270  17.283   6.877   8.645
68203W        W72271  16.285   6.597   9.968
68204W        W72272  15.770   6.952   9.237
68205W        W72273  17.575   6.123   9.656
68206W        W72274  16.625   6.195  10.793
68207W        W72275  15.230   6.148   9.132
68208W        W72276  17.576   5.907   8.777
68209W        W72277  17.217   6.973   9.528
68210W        W72278  15.195   6.702   9.398
68211W        W72279  16.216   4.754  10.608
68212W        W72280  16.667   6.920   8.119
68213W        W72281  15.975   6.175  10.757
68214W        W72282  16.101   6.413   8.134
68215W        W72283  15.322   5.153   7.393
68216W        W72284  14.661   7.239  14.292
68217W        W72285  15.037   6.132  13.815
68218W        W72286  17.742   5.862  11.585
68219W        W72287  17.872   6.947  13.612
68220W        W72288  15.790   6.938  11.138
68221W        W72289  15.873   5.090  12.121
68222W        W72290  15.388   4.938  12.285
68223W        W72291  16.379   5.753  11.719
68224W        W72292  16.054   6.845  14.074
68225W        W72293  14.703   4.406  14.037
68226W        W72294  15.465   3.686  13.839
68227W        W72295  17.159   4.074  12.726
68228W        W72296  16.808   4.945  11.296
68229W        W72297  17.378   4.379  14.387
68230W        W72298  14.744   4.171  13.512
68231W        W72299  14.843   6.790  14.533
68232W        W72300  16.365   6.180  11.265
68233W        W72301  14.797   4.963  12.958
68234W        W72302  15.690   4.854  14.195
68235W        W72303  18.149   4.713  12.694
68236W        W72304  17.913   5.756  13.553
68237W        W72305  16.221   5.089  12.580
68238W        W72306  15.267   5.862  13.181
68239W        W72307  14.626   5.390  12.752
68240W        W72308  15.662   5.362  13.944
68241W        W72309  17.933   5.145  14.198
68242W        W72310  15.549   6.589  12.643
68243W        W72311  16.670   6.278  13.777
68244W        W72312  15.890   4.918  13.002
68245W        W72313  16.182   5.702  12.645
68246W        W72314  17.179   6.475  14.493
68247W        W72315  16.258   5.795  14.503
68248W        W72316  16.239   5.511  13.981
68249W        W72317  14.648   4.902  14.503
68250W        W72318  17.480   6.437  14.102
68251W        W72319  15.061   4.019  12.100
68252W        W72320  15.588   6.277  13.099
68253W        W72321  18.051   6.060  12.389
68254W        W72322  17.464   4.460  12.956
68255W        W72323  17.749   4.413  11.051
68256W        W72324  18.214   5.214  13.357
68257W        W72325  17.955   6.387  11.548
68258W        W72326  15.084   7.173  11.302
68259W        W72327  15.477   7.219  11.978
68260W        W72328  15.274   3.973  13.404
68261W        W72329  17.897   4.991  13.679
68262W        W72330  17.302   5.413  12.138
68263W        W72331  17.268   5.101  11.165
68264W        W72332  16.476   6.245  13.305
68265W        W72333  16.282   4.575  12.504
68266W        W72334  16.882   6.662  13.498
68267W        W72335  17.753   5.453  11.920
68268W        W72336  16.655   4.111  11.936
68269W        W72337  15.312   6.805  11.619
68270W        W72338  14.683   4.304  12.218
68271W        W72339  17.469   4.911  12.692
68272W        W72340  14.927   6.528  12.607
68273W        W72341  16.268   6.878  11.477
68274W        W72342  17.660   4.904  10.941
68275W        W72343  14.683   6.662  13.105
68276W        W72344  15.474   6.234  13.585
68277W        W72345  15.847   5.594  12.204
68278W        W72346  15.869   3.999  13.297
68279W        W72347  15.317   5.633  11.062
68280W        W72348  14.972   4.666  11.241
68281W        W72349  15.034   6.622  12.035
68282W        W72350  16.165   6.105  12.283
68283W        W72351  17.497   6.964  13.997
68284W        W72352  16.423   4.606  11.681
68285W        W72353  17.806   7.004  12.453
68286W        W72354  17.483   4.857  14.051
68287W        W72355  18.196   6.513  12.185
68288W        W72356  16.823   5.805  13.669
68289W        W72357  14.589   5.356  11.875
68290W        W72358  15.700   5.771  13.448
68291W        W72359  16.904   5.035  11.826
68292W        W72360  16.781   5.525  11.930
68293W        W72361  15.124   4.945  13.404
68294W        W72362  15.109   4.821  14.326
68295W        W72363  14.999   3.738  12.485
68296W        W72364  16.767   4.085  13.046
68297W        W72365  16.415   4.270  14.209
68298W        W72366  16.770   4.419  11.387
68299W        W72367  17.953   6.812  14.141
68300W        W72368  16.920   3.893  14.180
68301W        W72369  17.939   6.194  14.302
68302W        W72370  17.369   4.361  13.898
68303W        W72371  17.169   4.299  12.168
68304W        W72372  17.562   5.433  14.572
68305W        W72373  15.302   7.009  12.558
68306W        W72374  15.960   4.726  11.544
68307W        W72375  15.529   4.010  14.208
68308W        W72376  17.581   4.494  11.889
68309W        W72377  17.948   4.976  11.834
68310W        W72378  15.691   7.193  14.305
68311W        W72379  15.617   3.729  11.540
68312W        W72380  17.938   4.263  12.575
68313W        W72381  18.088   6.512  11.020
68314W        W72382  14.995   5.715  12.722
68315W        W72383  16.912   4.302  10.952
68316W        W72384  18.046   6.634  12.672
68317W        W72385  18.085   3.828  13.422
68318W        W72386  16.530   5.040  13.976
68319W        W72387  16.623   6.379  11.679
68320W        W72388  17.023   5.673  14.419
68321W        W72389  16.697   3.650  12.728
68322W        W72390  15.309   4.553  12.791
68323W        W72391  14.863   5.753  13.565
68324W        W72392  17.916   4.543  13.143
68325W        W72393  16.553   6.890  13.910
68326W        W72394  17.896   5.949  11.115
68327W        W72395  16.331   5.432  12.176
68328W        W72396  18.183   3.943  13.917
68329W        W72397  16.332   5.778  13.511
68330W        W72398  16.549   4.664  12.956
68331W        W72399  17.401   4.962  11.794
68332W        W72400  17.688   4.695  11.436
68333W        W72401  17.497   6.735  11.825
68334W        W72402  17.331   6.338  12.621
68335W        W72403  17.227   5.417  11.599
68336W        W72404  16.660   5.627  12.585
68337W        W72405  17.541   5.415  12.652
68338W        W72406  14.916   4.430  13.076
68339W        W72407  17.694   5.482  13.903
68340W        W72408  18.045   7.100  13.049
68341W        W72409  15.975   6.544  12.451
68342W        W72410  16.982   7.077  13.775
68343W        W72411  16.976   4.407  13.539
68344W        W72412  16.183   7.115  13.600
68345W        W72413  17.880   4.069  12.066
68346W        W72414  17.671   5.388  13.367
68347W        W72415  14.654   4.709  13.405
68348W        W72416  17.514   4.504  12.423
68349W        W72417  17.925   4.655  14.200
68350W        W72418  16.810   6.354  12.418
68351W        W72419  16.066   6.945  12.031
68352W        W72420  15.181   4.125  11.289
68353W        W72421  16.285   3.779  13.099
68354W        W72422  15.313   6.899  10.947
68355W        W72423  15.687   5.365  11.698
68356W        W72424  16.341   5.994  14.011
68357W        W72425  16.171   4.352  12.001
68358W        W72426  17.247   7.231  12.757
68359W        W72427  16.055   5.916  13.058
68360W        W72428  17.825   6.639  13.184
68361W        W72429  15.519   4.142  11.953
68362W        W72430  16.041   6.439  12.913
68363W        W72431  15.524   4.370  10.978
68364W        W72432  16.325   4.979  13.372
68365W        W72433  17.173   3.845  13.242
68366W        W72434  14.593   5.688  13.127
68367W        W72435  16.297   5.506  11.285
68368W        W72436  15.565   3.821  11.055
68369W        W72437  16.303   4.902  12.106
68370W        W72438  17.273   3.878  13.805
68371W        W72439  15.861   5.890  13.914
68372W        W72440  16.665   5.672  14.131
68373W        W72441  17.282   5.702  14.024
68374W        W72442  16.566   3.842  14.529
68375W        W72443  15.788   4.458  12.922
68376W        W72444  15.214   4.414  12.320
68377W        W72445  15.000   7.126  11.996
68378W        W72446  16.332   6.456  14.121
68379W        W72447  15.367   5.941  11.480
68380W        W72448  17.047   5.326  12.701
68381W        W72449  17.327   5.125  13.100
68382W        W72450  16.532   5.799  13.034
68383W        W72451  17.002   6.173  11.166
68384W        W72452  16.674   4.194  12.494
68385W        W72453  18.153   4.472  11.762
68386W        W72454  14.647   7.061  13.793
68387W        W72455  15.064   6.287  13.325
68388W        W72456  14.631   7.133  11.557
68389W        W72457  16.530   4.403  13.363
68390W        W72458  15.893   6.426  11.212
68391W        W72459  17.798   6.808  11.398
68392W        W72460  16.773   5.461  11.412
68393W        W72461  15.616   4.652  11.929
68394W        W72462  16.448   4.562  10.981
68395W        W72463  17.032   6.127  14.159
68396W        W72464  17.385   4.033  11.776
68397W        W72465  14.715   3.881  11.224
68398W        W72466  16.001   6.200  13.514
68399W        W72467  15.800   6.116  12.606
68400W        W72468  15.542   6.068  11.004
68401W        W72469  14.783   6.309  11.772
68402W        W72470  15.287   5.379  14.214
68403W        W72471  15.991   3.939  14.400
68404W        W72472  16.700   4.081  13.756
68405W        W72473  15.895   3.849  12.037
68406W        W72474  14.899   3.858  13.119
68407W        W72475  14.947   4.821  12.489
68408W        W72476  17.636   3.929  12.895
68409W        W72477  15.058   4.427  11.709
68410W        W72478  17.629   4.115  13.325
68411W        W72479  18.025   5.318  11.010
68412W        W72480  15.317   4.076  12.829
68413W        W72481  16.431   4.648  13.769
68414W        W72482  14.579   4.338  11.247
68415W        W72483  15.365   5.727  13.808
68416W        W72484  16.723   5.125  12.987
68417W        W72485  16.590   7.204  11.283
68418W        W72486  14.736   5.711  10.980
68419W        W72487  15.471   6.122  14.106
68420W        W72488  14.992   5.289  13.737
68421W        W72489  15.983   5.394  13.531
68422W        W72490  17.751   3.753  13.793
68423W        W72491  18.149   5.363  13.784
68424W        W72492  18.137   5.563  11.470
68425W        W72493  17.000   5.895  11.569
68426W        W72494  17.474   7.195  11.264
68427W        W72495  16.651   5.185  14.406
68428W        W72496  14.981   6.152  14.446
68429W        W72497  18.187   4.074  14.398
68430W        W72498  17.905   5.002  13.019
68431W        W72499  16.213   7.132  14.496
68432W        W72500  16.068   3.761  11.223
68433W        W72501  17.607   6.360  11.166
68434W        W72502  15.376   4.453  14.052
68435W        W72503  15.810   6.447  13.914
68436W        W72504  17.936   4.438  13.712
68437W        W72505  17.147   7.097  11.680
68438W        W72506  17.386   5.716  13.047
68439W        W72507  15.636   4.132  13.714
68440W        W72508  16.105   5.201  14.471
68441W        W72509  15.608   6.380  11.665
68442W        W72510  17.363   5.878  11.929
68443W        W72511  15.131   4.504  13.653
68444W        W72512  16.460   6.566  12.117
68445W        W72513  18.210   5.126  12.298
68446W        W72514  16.432   3.759  14.017
68447W        W72515  17.212   6.464  13.096
68448W        W72516  17.515   6.808  12.804
68449W        W72517  16.734   6.610  11.232
68450W        W72518  14.744   6.502  14.074
68451W        W72519  15.487   4.494  13.312
68452W        W72520  15.457   3.842  12.422
68453W        W72521  17.078   4.684  13.114
68454W        W72522  15.876   5.855  11.314
68455W        W72523  17.874   5.797  12.813
68456W        W72524  15.201   6.555  14.236
68457W        W72525  17.588   7.237  12.033
68458W        W72526  15.687   4.257  12.478
68459W        W72527  15.456   5.750  12.568
68460W        W72528  15.769   7.161  13.318
68461W        W72529  17.836   7.257  14.350
68462W        W72530  16.995   5.445  13.283
68463W        W72531  14.844   5.243  11.198
68464W        W72532  17.978   6.901  11.895
68465W        W72533  17.815   4.225  11.514
68466W        W72534  15.954   3.744  13.917
68467W        W72535  17.660   6.546  12.375
68468W        W72536  17.689   5.102  12.280
68469W        W72537  15.806   4.775  12.496
68470W        W72538  16.051   5.037  13.820
68471W        W72539  17.162   6.190  13.683
68472W        W72540  15.812   4.644  13.795
68473W        W72541  15.791   7.110  12.411
68474W        W72542  15.108   7.069  14.045
68475W        W72543  15.220   6.430  11.175
68476W        W72544  17.737   6.188  11.985
68477W        W72545  15.341   4.980  13.871
68478W        W72546  18.114   4.910  11.352
68479W        W72547  15.859   5.967  11.823
68480W        W72548  16.958   5.349  13.904
68481W        W72549  16.849   4.977  13.448
68482W        W72550  15.409   5.349  13.477
68483W        W72551  17.619   7.237  13.306
68484W        W72552  17.410   3.871  14.300
68485W        W72553  15.074   4.021  13.887
68486W        W72554  15.413   5.044  12.940
68487W        W72555  15.782   4.858  11.062
68488W        W72556  14.585   6.617  13.607
68489W        W72557  16.170   5.326  13.050
68490W        W72558  15.993   4.351  11.155
68491W        W72559  15.128   5.167  11.936
68492W        W72560  14.899   7.019  13.373
68493W        W72561  17.694   5.245  11.481
68494W        W72562  17.789   4.161  14.167
68495W        W72563  17.225   6.370  12.130
68496W        W72564  14.823   5.294  14.307
68497W        W72565  17.789   3.758  11.603
68498W        W72566  17.309   6.233  11.614
68499W        W72567  16.211   5.291  11.699
68500W        W72568  17.463   4.702  13.408
68501W        W72569  15.172   5.295  12.615
68502W        W72570  15.466   6.234  12.264
68503W        W72571  17.229   4.854  12.229
68504W        W72572  16.252   4.233  12.925
68505W        W72573  18.214   6.144  13.436
68506W        W72574  18.132   4.131  12.997
68507W        W72575  14.671   6.961  12.373
68508W        W72576  15.180   6.148  11.909
68509W        W72577  15.095   3.765  14.462
68510W        W72578  16.214   6.618  14.564
68511W        W72579  17.969   5.586  12.354
68512W        W72580  17.323   5.763  11.234
68513W        W72581  16.618   7.284  13.446
68514W        W72582  17.475   6.006  14.483
68515W        W72583  16.290   3.716  11.763
68516W        W72584  17.003   4.585  12.622
68517W        W72585  14.689   6.172  12.954
68518W        W72586  15.942   4.134  11.595
68519W        W72587  15.746   5.618  14.444
68520W        W72588  16.740   4.599  12.158
68521W        W72589  16.945   6.009  13.280
68522W        W72590  15.099   6.614  13.715
68523W        W72591  15.690   6.597  14.438
68524W        W72592  15.541   4.394  11.452
68525W        W72593  17.058   4.536  11.777
68526W        W72594  17.016   6.644  14.014
68527W        W72595  15.701   5.236  12.613
68528W        W72596  15.356   6.934  13.478
68529W        W72597  18.101   7.051  11.079
68530W        W72598  14.964   5.723  14.075
68531W        W72599  16.959   5.985  12.763
68532W        W72600  15.395   5.634  12.005
68533W        W72601  15.766   6.641  13.400
68534W        W72602  16.144   4.060  12.441
68535W        W72603  14.755   6.044  11.371
68536W        W72604  16.274   4.995  11.241
68537W        W72605  14.920   5.544  12.260
68538W        W72606  16.210   4.186  13.724
68539W        W72607  17.882   3.895  11.151
68540W        W72608  17.975   5.641  14.250
68541W        W72609  16.629   6.898  14.402
68542W        W72610  18.187   5.992  13.924
68543W        W72611  17.595   6.790  14.535
68544W        W72612  15.334   7.246  13.013
68545W        W72613  18.193   5.868  11.887
68546W        W72614  16.723   5.135  12.400
68547W        W72615  16.490   3.747  12.290
68548W        W72616  15.549   6.731  12.127
68549W        W72617  16.048   4.472  13.352
68550W        W72618  15.748   3.841  12.821
68551W        W72619  14.811   6.663  11.369
68552W        W72620  16.627   6.027  12.087
68553W        W72621  15.502   6.822  13.966
68554W        W72622  14.979   5.645  11.662
68555W        W72623  14.864   4.188  12.661
68556W        W72624  16.412   6.153  12.718
68557W        W72625  14.664   4.007  11.738
68558W        W72626  17.328   5.213  13.665
68559W        W72627  17.205   4.599  11.237
68560W        W72628  17.722   6.271  12.885
68561W        W72629  15.795   6.859  11.627
68562W        W72630  14.877   7.022  12.798
68563W        W72631  17.074   4.780  14.433
68564W        W72632  15.057   4.310  14.432
68565W        W72633  14.788   4.910  11.765
68566W        W72634  15.479   4.899  11.490
68567W        W72635  17.242   5.226  14.307
68568W        W72636  15.585   5.507  13.016
68569W        W72637  17.059   3.793  12.136
68570W        W72638  16.190   7.224  12.639
68571W        W72639  17.404   6.686  13.576
68572W        W72640  16.988   6.835  12.687
68573W        W72641  17.007   5.815  12.281
68574W        W72642  16.469   4.040  11.352
68575W        W72643  15.838   5.303  11.237
68576W        W72644  18.004   4.640  12.227
68577W        W72645  16.696   5.810  11.104
68578W        W72646  17.632   6.010  13.852
68579W        W72647  17.286   6.711  11.319
68580W        W72648  15.901   4.386  14.225
68581W        W72649  15.721   4.970  13.466
68582W        W72650  17.813   6.465  13.743
68583W        W72651  16.913   4.415  14.120
68584W        W72652  14.757   4.886  13.897
68585W        W72653  16.517   5.363  13.623
68586W        W72654  14.874   6.121  12.280
68587W        W72655  15.021   5.418  13.170
68588W        W72656  17.338   5.704  13.520
68589W        W72657  17.110   7.084  14.331
68590W        W72658  17.006   4.823  13.884
68591W        W72659  17.283   6.877  12.289
68592W        W72660  16.285   6.597  13.612
68593W        W72661  15.770   6.952  12.881
68594W        W72662  17.575   6.123  13.300
68595W        W72663  16.625   6.195  14.437
68596W        W72664  15.230   6.148  12.776
68597W        W72665  17.576   5.907  12.421
68598W        W72666  17.217   6.973  13.172
68599W        W72667  15.195   6.702  13.042
68600W        W72668  16.216   4.754  14.252
68601W        W72669  16.667   6.920  11.763
68602W        W72670  15.975   6.175  14.401
68603W        W72671  16.101   6.413  11.778
68604W        W72672  15.322   5.153  11.037
68605W        W72673  14.661   7.239  17.936
68606W        W72674  15.037   6.132  17.459
68607W        W72675  17.742   5.862  15.229
68608W        W72676  17.872   6.947  17.256
68609W        W72677  15.790   6.938  14.782
68610W        W72678  15.873   5.090  15.765
68611W        W72679  15.388   4.938  15.929
68612W        W72680  16.379   5.753  15.363
68613W        W72681  16.054   6.845  17.718
68614W        W72682  14.703   4.406  17.681
68615W        W72683  15.465   3.686  17.483
68616W        W72684  17.159   4.074  16.370
68617W        W72685  16.808   4.945  14.940
68618W        W72686  17.378   4.379  18.031
68619W        W72687  14.744   4.171  17.156
68620W        W72688  16.365   6.180  14.909
68621W        W72689  14.797   4.963  16.602
68622W        W72690  15.690   4.854  17.839
68623W        W72691  18.149   4.713  16.338
68624W        W72692  17.913   5.756  17.197
68625W        W72693  16.221   5.089  16.224
68626W        W72694  16.767   6.428  16.593
68627W        W72695  15.267   5.862  16.825
68628W        W72696  14.626   5.390  16.396
68629W        W72697  15.662   5.362  17.588
68630W        W72698  17.933   5.145  17.842
68631W        W72699  15.549   6.589  16.287
68632W        W72700  16.670   6.278  17.421
68633W        W72701  15.890   4.918  16.646
68634W        W72702  16.182   5.702  16.289
68635W        W72703  17.179   6.475  18.137
68636W        W72704  16.258   5.795  18.147
68637W        W72705  16.239   5.511  17.625
68638W        W72706  14.648   4.902  18.147
68639W        W72707  17.480   6.437  17.746
68640W        W72708  15.061   4.019  15.744
68641W        W72709  15.588   6.277  16.743
68642W        W72710  18.051   6.060  16.033
68643W        W72711  17.464   4.460  16.600
68644W        W72712  17.749   4.413  14.695
68645W        W72713  18.214   5.214  17.001
68646W        W72714  16.181   6.921  16.754
68647W        W72715  17.955   6.387  15.192
68648W        W72716  15.084   7.173  14.946
68649W        W72717  15.477   7.219  15.622
68650W        W72718  15.274   3.973  17.048
68651W        W72719  17.897   4.991  17.323
68652W        W72720  17.302   5.413  15.782
68653W        W72721  17.268   5.101  14.809
68654W        W72722  16.476   6.245  16.949
68655W        W72723  16.282   4.575  16.148
68656W        W72724  16.882   6.662  17.142
68657W        W72725  17.753   5.453  15.564
68658W        W72726  16.655   4.111  15.580
68659W        W72727  15.312   6.805  15.263
68660W        W72728  14.683   4.304  15.862
68661W        W72729  17.469   4.911  16.336
68662W        W72730  14.927   6.528  16.251
68663W        W72731  16.268   6.878  15.121
68664W        W72732  17.660   4.904  14.585
68665W        W72733  14.683   6.662  16.749
68666W        W72734  15.474   6.234  17.229
68667W        W72735  15.847   5.594  15.848
68668W        W72736  15.869   3.999  16.941
68669W        W72737  18.098   3.761  16.238
68670W        W72738  15.317   5.633  14.706
68671W        W72739  14.972   4.666  14.885
68672W        W72740  15.034   6.622  15.679
68673W        W72741  16.165   6.105  15.927
68674W        W72742  17.497   6.964  17.641
68675W        W72743  16.423   4.606  15.325
68676W        W72744  17.806   7.004  16.097
68677W        W72745  17.483   4.857  17.695
68678W        W72746  18.196   6.513  15.829
68679W        W72747  16.823   5.805  17.313
68680W        W72748  14.589   5.356  15.519
68681W        W72749  15.700   5.771  17.092
68682W        W72750  16.904   5.035  15.470
68683W        W72751  16.781   5.525  15.574
68684W        W72752  15.124   4.945  17.048
68685W        W72753  15.109   4.821  17.970
68686W        W72754  14.999   3.738  16.129
68687W        W72755  16.767   4.085  16.690
68688W        W72756  16.415   4.270  17.853
68689W        W72757  16.770   4.419  15.031
68690W        W72758  17.953   6.812  17.785
68691W        W72759  16.920   3.893  17.824
68692W        W72760  17.939   6.194  17.946
68693W        W72761  17.369   4.361  17.542
68694W        W72762  17.169   4.299  15.812
68695W        W72763  17.562   5.433  18.216
68696W        W72764  15.302   7.009  16.202
68697W        W72765  15.960   4.726  15.188
68698W        W72766  15.529   4.010  17.852
68699W        W72767  17.581   4.494  15.533
68700W        W72768  17.948   4.976  15.478
68701W        W72769  15.691   7.193  17.949
68702W        W72770  15.617   3.729  15.184
68703W        W72771  17.938   4.263  16.219
68704W        W72772  18.088   6.512  14.664
68705W        W72773  14.995   5.715  16.366
68706W        W72774  16.912   4.302  14.596
68707W        W72775  18.046   6.634  16.316
68708W        W72776  18.085   3.828  17.066
68709W        W72777  16.530   5.040  17.620
68710W        W72778  16.623   6.379  15.323
68711W        W72779  17.023   5.673  18.063
68712W        W72780  16.697   3.650  16.372
68713W        W72781  15.309   4.553  16.435
68714W        W72782  14.863   5.753  17.209
68715W        W72783  16.722   6.946  15.915
68716W        W72784  17.916   4.543  16.787
68717W        W72785  16.553   6.890  17.554
68718W        W72786  17.896   5.949  14.759
68719W        W72787  16.331   5.432  15.820
68720W        W72788  18.183   3.943  17.561
68721W        W72789  16.332   5.778  17.155
68722W        W72790  16.549   4.664  16.600
68723W        W72791  17.401   4.962  15.438
68724W        W72792  17.688   4.695  15.080
68725W        W72793  17.497   6.735  15.469
68726W        W72794  17.331   6.338  16.265
68727W        W72795  17.227   5.417  15.243
68728W        W72796  16.660   5.627  16.229
68729W        W72797  17.541   5.415  16.296
68730W        W72798  14.916   4.430  16.720
68731W        W72799  17.694   5.482  17.547
68732W        W72800  18.045   7.100  16.693
68733W        W72801  15.975   6.544  16.095
68734W        W72802  16.982   7.077  17.419
68735W        W72803  16.976   4.407  17.183
68736W        W72804  16.183   7.115  17.244
68737W        W72805  17.880   4.069  15.710
68738W        W72806  17.671   5.388  17.011
68739W        W72807  14.654   4.709  17.049
68740W        W72808  17.514   4.504  16.067
68741W        W72809  17.925   4.655  17.844
68742W        W72810  16.810   6.354  16.062
68743W        W72811  16.066   6.945  15.675
68744W        W72812  15.181   4.125  14.933
68745W        W72813  16.285   3.779  16.743
68746W        W72814  15.313   6.899  14.591
68747W        W72815  15.687   5.365  15.342
68748W        W72816  16.341   5.994  17.655
68749W        W72817  16.171   4.352  15.645
68750W        W72818  17.527   3.949  16.073
68751W        W72819  17.247   7.231  16.401
68752W        W72820  16.659   6.879  16.741
68753W        W72821  16.055   5.916  16.702
68754W        W72822  17.825   6.639  16.828
68755W        W72823  15.519   4.142  15.597
68756W        W72824  16.041   6.439  16.557
68757W        W72825  15.524   4.370  14.622
68758W        W72826  17.173   3.845  16.886
68759W        W72827  14.593   5.688  16.771
68760W        W72828  16.297   5.506  14.929
68761W        W72829  15.565   3.821  14.699
68762W        W72830  16.303   4.902  15.750
68763W        W72831  17.273   3.878  17.449
68764W        W72832  15.861   5.890  17.558
68765W        W72833  16.665   5.672  17.775
68766W        W72834  17.282   5.702  17.668
68767W        W72835  16.566   3.842  18.173
68768W        W72836  15.788   4.458  16.566
68769W        W72837  15.214   4.414  15.964
68770W        W72838  15.000   7.126  15.640
68771W        W72839  16.332   6.456  17.765
68772W        W72840  15.367   5.941  15.124
68773W        W72841  17.047   5.326  16.345
68774W        W72842  17.327   5.125  16.744
68775W        W72843  16.532   5.799  16.678
68776W        W72844  17.002   6.173  14.810
68777W        W72845  16.674   4.194  16.138
68778W        W72846  18.153   4.472  15.406
68779W        W72847  14.647   7.061  17.437
68780W        W72848  15.064   6.287  16.969
68781W        W72849  14.631   7.133  15.201
68782W        W72850  16.530   4.403  17.007
68783W        W72851  15.893   6.426  14.856
68784W        W72852  17.798   6.808  15.042
68785W        W72853  16.773   5.461  15.056
68786W        W72854  15.616   4.652  15.573
68787W        W72855  16.448   4.562  14.625
68788W        W72856  17.032   6.127  17.803
68789W        W72857  17.385   4.033  15.420
68790W        W72858  14.715   3.881  14.868
68791W        W72859  16.001   6.200  17.158
68792W        W72860  15.800   6.116  16.250
68793W        W72861  15.542   6.068  14.648
68794W        W72862  14.783   6.309  15.416
68795W        W72863  15.287   5.379  17.858
68796W        W72864  15.991   3.939  18.044
68797W        W72865  16.700   4.081  17.400
68798W        W72866  15.895   3.849  15.681
68799W        W72867  16.954   3.926  15.186
68800W        W72868  14.899   3.858  16.763
68801W        W72869  14.947   4.821  16.133
68802W        W72870  17.636   3.929  16.539
68803W        W72871  15.058   4.427  15.353
68804W        W72872  17.629   4.115  16.969
68805W        W72873  18.025   5.318  14.654
68806W        W72874  15.317   4.076  16.473
68807W        W72875  16.431   4.648  17.413
68808W        W72876  14.579   4.338  14.891
68809W        W72877  15.365   5.727  17.452
68810W        W72878  16.723   5.125  16.631
68811W        W72879  16.590   7.204  14.927
68812W        W72880  14.736   5.711  14.624
68813W        W72881  15.471   6.122  17.750
68814W        W72882  14.992   5.289  17.381
68815W        W72883  15.983   5.394  17.175
68816W        W72884  17.751   3.753  17.437
68817W        W72885  18.149   5.363  17.428
68818W        W72886  18.137   5.563  15.114
68819W        W72887  17.000   5.895  15.213
68820W        W72888  17.474   7.195  14.908
68821W        W72889  16.651   5.185  18.050
68822W        W72890  14.981   6.152  18.090
68823W        W72891  18.187   4.074  18.042
68824W        W72892  17.905   5.002  16.663
68825W        W72893  16.213   7.132  18.140
68826W        W72894  16.068   3.761  14.867
68827W        W72895  17.607   6.360  14.810
68828W        W72896  15.376   4.453  17.696
68829W        W72897  15.810   6.447  17.558
68830W        W72898  17.936   4.438  17.356
68831W        W72899  17.147   7.097  15.324
68832W        W72900  17.386   5.716  16.691
68833W        W72901  15.636   4.132  17.358
68834W        W72902  16.105   5.201  18.115
68835W        W72903  15.608   6.380  15.309
68836W        W72904  17.363   5.878  15.573
68837W        W72905  15.131   4.504  17.297
68838W        W72906  16.460   6.566  15.761
68839W        W72907  18.210   5.126  15.942
68840W        W72908  16.432   3.759  17.661
68841W        W72909  17.212   6.464  16.740
68842W        W72910  17.515   6.808  16.448
68843W        W72911  16.734   6.610  14.876
68844W        W72912  14.744   6.502  17.718
68845W        W72913  15.487   4.494  16.956
68846W        W72914  15.457   3.842  16.066
68847W        W72915  17.078   4.684  16.758
68848W        W72916  15.876   5.855  14.958
68849W        W72917  17.874   5.797  16.457
68850W        W72918  15.201   6.555  17.880
68851W        W72919  17.588   7.237  15.677
68852W        W72920  15.687   4.257  16.122
68853W        W72921  15.456   5.750  16.212
68854W        W72922  15.769   7.161  16.962
68855W        W72923  17.836   7.257  17.994
68856W        W72924  16.995   5.445  16.927
68857W        W72925  14.844   5.243  14.842
68858W        W72926  17.978   6.901  15.539
68859W        W72927  17.815   4.225  15.158
68860W        W72928  15.954   3.744  17.561
68861W        W72929  17.660   6.546  16.019
68862W        W72930  17.689   5.102  15.924
68863W        W72931  15.806   4.775  16.140
68864W        W72932  16.051   5.037  17.464
68865W        W72933  17.162   6.190  17.327
68866W        W72934  15.791   7.110  16.055
68867W        W72935  15.108   7.069  17.689
68868W        W72936  15.220   6.430  14.819
68869W        W72937  17.737   6.188  15.629
68870W        W72938  15.341   4.980  17.515
68871W        W72939  18.114   4.910  14.996
68872W        W72940  15.859   5.967  15.467
68873W        W72941  16.958   5.349  17.548
68874W        W72942  16.849   4.977  17.092
68875W        W72943  15.409   5.349  17.121
68876W        W72944  17.619   7.237  16.950
68877W        W72945  17.410   3.871  17.944
68878W        W72946  15.074   4.021  17.531
68879W        W72947  15.413   5.044  16.584
68880W        W72948  15.782   4.858  14.706
68881W        W72949  14.585   6.617  17.251
68882W        W72950  16.170   5.326  16.694
68883W        W72951  15.993   4.351  14.799
68884W        W72952  15.128   5.167  15.580
68885W        W72953  14.899   7.019  17.017
68886W        W72954  17.694   5.245  15.125
68887W        W72955  17.789   4.161  17.811
68888W        W72956  17.225   6.370  15.774
68889W        W72957  14.823   5.294  17.951
68890W        W72958  17.789   3.758  15.247
68891W        W72959  17.309   6.233  15.258
68892W        W72960  16.211   5.291  15.343
68893W        W72961  17.398   4.095  14.866
68894W        W72962  17.463   4.702  17.052
68895W        W72963  15.172   5.295  16.259
68896W        W72964  15.466   6.234  15.908
68897W        W72965  17.229   4.854  15.873
68898W        W72966  16.252   4.233  16.569
68899W        W72967  18.214   6.144  17.080
68900W        W72968  18.132   4.131  16.641
68901W        W72969  14.671   6.961  16.017
68902W        W72970  15.180   6.148  15.553
68903W        W72971  15.095   3.765  18.106
68904W        W72972  16.214   6.618  18.208
68905W        W72973  17.969   5.586  15.998
68906W        W72974  17.323   5.763  14.878
68907W        W72975  16.618   7.284  17.090
68908W        W72976  17.475   6.006  18.127
68909W        W72977  16.290   3.716  15.407
68910W        W72978  17.003   4.585  16.266
68911W        W72979  14.689   6.172  16.598
68912W        W72980  15.942   4.134  15.239
68913W        W72981  15.746   5.618  18.088
68914W        W72982  16.740   4.599  15.802
68915W        W72983  16.945   6.009  16.924
68916W        W72984  15.099   6.614  17.359
68917W        W72985  15.690   6.597  18.082
68918W        W72986  15.541   4.394  15.096
68919W        W72987  17.058   4.536  15.421
68920W        W72988  17.016   6.644  17.658
68921W        W72989  15.701   5.236  16.257
68922W        W72990  15.356   6.934  17.122
68923W        W72991  18.101   7.051  14.723
68924W        W72992  14.964   5.723  17.719
68925W        W72993  16.959   5.985  16.407
68926W        W72994  15.395   5.634  15.649
68927W        W72995  15.766   6.641  17.044
68928W        W72996  16.144   4.060  16.085
68929W        W72997  14.755   6.044  15.015
68930W        W72998  16.274   4.995  14.885
68931W        W72999  14.920   5.544  15.904
68932W        W73000  16.210   4.186  17.368
68933W        W73001  17.882   3.895  14.795
68934W        W73002  17.975   5.641  17.894
68935W        W73003  16.629   6.898  18.046
68936W        W73004  18.187   5.992  17.568
68937W        W73005  17.595   6.790  18.179
68938W        W73006  15.334   7.246  16.657
68939W        W73007  18.193   5.868  15.531
68940W        W73008  16.723   5.135  16.044
68941W        W73009  16.490   3.747  15.934
68942W        W73010  15.549   6.731  15.771
68943W        W73011  16.048   4.472  16.996
68944W        W73012  15.748   3.841  16.465
68945W        W73013  14.811   6.663  15.013
68946W        W73014  16.627   6.027  15.731
68947W        W73015  15.502   6.822  17.610
68948W        W73016  14.979   5.645  15.306
68949W        W73017  14.864   4.188  16.305
68950W        W73018  16.412   6.153  16.362
68951W        W73019  14.664   4.007  15.382
68952W        W73020  17.328   5.213  17.309
68953W        W73021  17.205   4.599  14.881
68954W        W73022  17.722   6.271  16.529
68955W        W73023  16.383   6.755  16.360
68956W        W73024  15.795   6.859  15.271
68957W        W73025  17.077   3.762  14.701
68958W        W73026  14.877   7.022  16.442
68959W        W73027  17.074   4.780  18.077
68960W        W73028  15.057   4.310  18.076
68961W        W73029  14.788   4.910  15.409
68962W        W73030  15.479   4.899  15.134
68963W        W73031  17.242   5.226  17.951
68964W        W73032  15.585   5.507  16.660
68965W        W73033  17.059   3.793  15.780
68966W        W73034  16.190   7.224  16.283
68967W        W73035  17.404   6.686  17.220
68968W        W73036  16.988   6.835  16.331
68969W        W73037  17.007   5.815  15.925
68970W        W73038  16.469   4.040  14.996
68971W        W73039  18.150   3.668  15.718
68972W        W73040  15.838   5.303  14.881
68973W        W73041  18.004   4.640  15.871
68974W        W73042  16.696   5.810  14.748
68975W        W73043  17.632   6.010  17.496
68976W        W73044  17.286   6.711  14.963
68977W        W73045  15.901   4.386  17.869
68978W        W73046  17.813   6.465  17.387
68979W        W73047  16.913   4.415  17.764
68980W        W73048  14.757   4.886  17.541
68981W        W73049  16.517   5.363  17.267
68982W        W73050  14.874   6.121  15.924
68983W        W73051  15.021   5.418  16.814
68984W        W73052  17.338   5.704  17.164
68985W        W73053  17.110   7.084  17.975
68986W        W73054  17.006   4.823  17.528
68987W        W73055  17.283   6.877  15.933
68988W        W73056  16.285   6.597  17.256
68989W        W73057  15.770   6.952  16.525
68990W        W73058  17.575   6.123  16.944
68991W        W73059  16.625   6.195  18.081
68992W        W73060  15.230   6.148  16.420
68993W        W73061  17.576   5.907  16.065
68994W        W73062  17.217   6.973  16.816
68995W        W73063  15.195   6.702  16.686
68996W        W73064  16.216   4.754  17.896
68997W        W73065  16.667   6.920  15.407
68998W        W73066  15.975   6.175  18.045
68999W        W73067  16.101   6.413  15.422
69000W        W73068  15.322   5.153  14.681
69001W        W73069  14.661   7.239  21.580
69002W        W73070  15.037   6.132  21.103
69003W        W73071  17.742   5.862  18.873
69004W        W73072  17.872   6.947  20.900
69005W        W73073  15.790   6.938  18.426
69006W        W73074  15.873   5.090  19.409
69007W        W73075  15.388   4.938  19.573
69008W        W73076  16.379   5.753  19.007
69009W        W73077  16.054   6.845  21.362
69010W        W73078  14.703   4.406  21.325
69011W        W73079  15.465   3.686  21.127
69012W        W73080  17.159   4.074  20.014
69013W        W73081  16.808   4.945  18.584
69014W        W73082  17.378   4.379  21.675
69015W        W73083  14.744   4.171  20.800
69016W        W73084  14.843   6.790  21.821
69017W        W73085  16.365   6.180  18.553
69018W        W73086  14.797   4.963  20.246
69019W        W73087  15.690   4.854  21.483
69020W        W73088  18.149   4.713  19.982
69021W        W73089  17.913   5.756  20.841
69022W        W73090  16.221   5.089  19.868
69023W        W73091  16.767   6.428  20.237
69024W        W73092  15.267   5.862  20.469
69025W        W73093  14.626   5.390  20.040
69026W        W73094  15.662   5.362  21.232
69027W        W73095  17.933   5.145  21.486
69028W        W73096  15.549   6.589  19.931
69029W        W73097  16.670   6.278  21.065
69030W        W73098  15.890   4.918  20.290
69031W        W73099  16.182   5.702  19.933
69032W        W73100  17.179   6.475  21.781
69033W        W73101  16.258   5.795  21.791
69034W        W73102  16.239   5.511  21.269
69035W        W73103  14.648   4.902  21.791
69036W        W73104  17.480   6.437  21.390
69037W        W73105  15.061   4.019  19.388
69038W        W73106  15.588   6.277  20.387
69039W        W73107  18.051   6.060  19.677
69040W        W73108  17.464   4.460  20.244
69041W        W73109  17.749   4.413  18.339
69042W        W73110  18.214   5.214  20.645
69043W        W73111  16.181   6.921  20.398
69044W        W73112  17.955   6.387  18.836
69045W        W73113  15.084   7.173  18.590
69046W        W73114  15.477   7.219  19.266
69047W        W73115  15.274   3.973  20.692
69048W        W73116  17.897   4.991  20.967
69049W        W73117  17.302   5.413  19.426
69050W        W73118  17.268   5.101  18.453
69051W        W73119  16.476   6.245  20.593
69052W        W73120  16.282   4.575  19.792
69053W        W73121  16.882   6.662  20.786
69054W        W73122  17.753   5.453  19.208
69055W        W73123  16.655   4.111  19.224
69056W        W73124  15.312   6.805  18.907
69057W        W73125  14.683   4.304  19.506
69058W        W73126  17.469   4.911  19.980
69059W        W73127  14.927   6.528  19.895
69060W        W73128  16.268   6.878  18.765
69061W        W73129  17.660   4.904  18.229
69062W        W73130  14.683   6.662  20.393
69063W        W73131  15.474   6.234  20.873
69064W        W73132  15.847   5.594  19.492
69065W        W73133  15.869   3.999  20.585
69066W        W73134  18.098   3.761  19.882
69067W        W73135  15.317   5.633  18.350
69068W        W73136  14.972   4.666  18.529
69069W        W73137  15.034   6.622  19.323
69070W        W73138  16.165   6.105  19.571
69071W        W73139  17.497   6.964  21.285
69072W        W73140  16.423   4.606  18.969
69073W        W73141  17.806   7.004  19.741
69074W        W73142  17.483   4.857  21.339
69075W        W73143  18.196   6.513  19.473
69076W        W73144  16.823   5.805  20.957
69077W        W73145  14.589   5.356  19.163
69078W        W73146  15.700   5.771  20.736
69079W        W73147  16.904   5.035  19.114
69080W        W73148  16.781   5.525  19.218
69081W        W73149  15.124   4.945  20.692
69082W        W73150  15.109   4.821  21.614
69083W        W73151  14.999   3.738  19.773
69084W        W73152  16.767   4.085  20.334
69085W        W73153  16.415   4.270  21.497
69086W        W73154  16.770   4.419  18.675
69087W        W73155  17.953   6.812  21.429
69088W        W73156  16.920   3.893  21.468
69089W        W73157  17.939   6.194  21.590
69090W        W73158  17.369   4.361  21.186
69091W        W73159  17.169   4.299  19.456
69092W        W73160  17.562   5.433  21.860
69093W        W73161  15.302   7.009  19.846
69094W        W73162  15.960   4.726  18.832
69095W        W73163  15.529   4.010  21.496
69096W        W73164  17.581   4.494  19.177
69097W        W73165  17.948   4.976  19.122
69098W        W73166  15.691   7.193  21.593
69099W        W73167  15.617   3.729  18.828
69100W        W73168  17.938   4.263  19.863
69101W        W73169  18.088   6.512  18.308
69102W        W73170  14.995   5.715  20.010
69103W        W73171  16.912   4.302  18.240
69104W        W73172  18.046   6.634  19.960
69105W        W73173  18.085   3.828  20.710
69106W        W73174  16.530   5.040  21.264
69107W        W73175  16.623   6.379  18.967
69108W        W73176  17.023   5.673  21.707
69109W        W73177  16.697   3.650  20.016
69110W        W73178  15.309   4.553  20.079
69111W        W73179  14.863   5.753  20.853
69112W        W73180  16.722   6.946  19.559
69113W        W73181  17.916   4.543  20.431
69114W        W73182  16.553   6.890  21.198
69115W        W73183  17.896   5.949  18.403
69116W        W73184  16.331   5.432  19.464
69117W        W73185  18.183   3.943  21.205
69118W        W73186  16.332   5.778  20.799
69119W        W73187  16.549   4.664  20.244
69120W        W73188  17.401   4.962  19.082
69121W        W73189  17.688   4.695  18.724
69122W        W73190  17.497   6.735  19.113
69123W        W73191  17.331   6.338  19.909
69124W        W73192  17.227   5.417  18.887
69125W        W73193  16.660   5.627  19.873
69126W        W73194  17.541   5.415  19.940
69127W        W73195  14.916   4.430  20.364
69128W        W73196  17.694   5.482  21.191
69129W        W73197  18.045   7.100  20.337
69130W        W73198  15.975   6.544  19.739
69131W        W73199  16.982   7.077  21.063
69132W        W73200  16.976   4.407  20.827
69133W        W73201  16.183   7.115  20.888
69134W        W73202  17.880   4.069  19.354
69135W        W73203  17.671   5.388  20.655
69136W        W73204  14.654   4.709  20.693
69137W        W73205  17.514   4.504  19.711
69138W        W73206  17.925   4.655  21.488
69139W        W73207  16.810   6.354  19.706
69140W        W73208  16.066   6.945  19.319
69141W        W73209  15.181   4.125  18.577
69142W        W73210  16.285   3.779  20.387
69143W        W73211  15.313   6.899  18.235
69144W        W73212  15.687   5.365  18.986
69145W        W73213  16.341   5.994  21.299
69146W        W73214  16.171   4.352  19.289
69147W        W73215  17.527   3.949  19.717
69148W        W73216  17.247   7.231  20.045
69149W        W73217  16.659   6.879  20.385
69150W        W73218  16.055   5.916  20.346
69151W        W73219  17.825   6.639  20.472
69152W        W73220  15.519   4.142  19.241
69153W        W73221  16.041   6.439  20.201
69154W        W73222  15.524   4.370  18.266
69155W        W73223  16.325   4.979  20.660
69156W        W73224  17.173   3.845  20.530
69157W        W73225  14.593   5.688  20.415
69158W        W73226  16.297   5.506  18.573
69159W        W73227  15.565   3.821  18.343
69160W        W73228  16.303   4.902  19.394
69161W        W73229  17.273   3.878  21.093
69162W        W73230  15.861   5.890  21.202
69163W        W73231  16.665   5.672  21.419
69164W        W73232  17.282   5.702  21.312
69165W        W73233  16.566   3.842  21.817
69166W        W73234  15.788   4.458  20.210
69167W        W73235  15.214   4.414  19.608
69168W        W73236  15.000   7.126  19.284
69169W        W73237  16.332   6.456  21.409
69170W        W73238  15.367   5.941  18.768
69171W        W73239  17.047   5.326  19.989
69172W        W73240  17.327   5.125  20.388
69173W        W73241  16.532   5.799  20.322
69174W        W73242  17.002   6.173  18.454
69175W        W73243  16.674   4.194  19.782
69176W        W73244  18.153   4.472  19.050
69177W        W73245  14.647   7.061  21.081
69178W        W73246  15.064   6.287  20.613
69179W        W73247  14.631   7.133  18.845
69180W        W73248  16.530   4.403  20.651
69181W        W73249  15.893   6.426  18.500
69182W        W73250  17.798   6.808  18.686
69183W        W73251  16.773   5.461  18.700
69184W        W73252  15.616   4.652  19.217
69185W        W73253  16.448   4.562  18.269
69186W        W73254  17.032   6.127  21.447
69187W        W73255  17.385   4.033  19.064
69188W        W73256  14.715   3.881  18.512
69189W        W73257  16.001   6.200  20.802
69190W        W73258  15.800   6.116  19.894
69191W        W73259  15.542   6.068  18.292
69192W        W73260  14.783   6.309  19.060
69193W        W73261  15.287   5.379  21.502
69194W        W73262  15.991   3.939  21.688
69195W        W73263  16.700   4.081  21.044
69196W        W73264  15.895   3.849  19.325
69197W        W73265  16.954   3.926  18.830
69198W        W73266  14.899   3.858  20.407
69199W        W73267  14.947   4.821  19.777
69200W        W73268  17.636   3.929  20.183
69201W        W73269  15.058   4.427  18.997
69202W        W73270  17.629   4.115  20.613
69203W        W73271  18.025   5.318  18.298
69204W        W73272  15.317   4.076  20.117
69205W        W73273  16.431   4.648  21.057
69206W        W73274  14.579   4.338  18.535
69207W        W73275  15.365   5.727  21.096
69208W        W73276  16.723   5.125  20.275
69209W        W73277  16.590   7.204  18.571
69210W        W73278  14.736   5.711  18.268
69211W        W73279  15.471   6.122  21.394
69212W        W73280  14.992   5.289  21.025
69213W        W73281  15.983   5.394  20.819
69214W        W73282  17.751   3.753  21.081
69215W        W73283  18.149   5.363  21.072
69216W        W73284  18.137   5.563  18.758
69217W        W73285  17.000   5.895  18.857
69218W        W73286  17.474   7.195  18.552
69219W        W73287  16.651   5.185  21.694
69220W        W73288  14.981   6.152  21.734
69221W        W73289  18.187   4.074  21.686
69222W        W73290  17.905   5.002  20.307
69223W        W73291  16.213   7.132  21.784
69224W        W73292  16.068   3.761  18.511
69225W        W73293  17.607   6.360  18.454
69226W        W73294  15.376   4.453  21.340
69227W        W73295  15.810   6.447  21.202
69228W        W73296  17.936   4.438  21.000
69229W        W73297  17.147   7.097  18.968
69230W        W73298  17.386   5.716  20.335
69231W        W73299  15.636   4.132  21.002
69232W        W73300  16.105   5.201  21.759
69233W        W73301  15.608   6.380  18.953
69234W        W73302  17.363   5.878  19.217
69235W        W73303  15.131   4.504  20.941
69236W        W73304  16.460   6.566  19.405
69237W        W73305  18.210   5.126  19.586
69238W        W73306  16.432   3.759  21.305
69239W        W73307  17.212   6.464  20.384
69240W        W73308  17.515   6.808  20.092
69241W        W73309  16.734   6.610  18.520
69242W        W73310  14.744   6.502  21.362
69243W        W73311  15.487   4.494  20.600
69244W        W73312  15.457   3.842  19.710
69245W        W73313  17.078   4.684  20.402
69246W        W73314  15.876   5.855  18.602
69247W        W73315  17.874   5.797  20.101
69248W        W73316  15.201   6.555  21.524
69249W        W73317  17.588   7.237  19.321
69250W        W73318  15.687   4.257  19.766
69251W        W73319  15.456   5.750  19.856
69252W        W73320  15.769   7.161  20.606
69253W        W73321  17.836   7.257  21.638
69254W        W73322  16.995   5.445  20.571
69255W        W73323  14.844   5.243  18.486
69256W        W73324  17.978   6.901  19.183
69257W        W73325  17.815   4.225  18.802
69258W        W73326  15.954   3.744  21.205
69259W        W73327  17.660   6.546  19.663
69260W        W73328  17.689   5.102  19.568
69261W        W73329  15.806   4.775  19.784
69262W        W73330  16.051   5.037  21.108
69263W        W73331  17.162   6.190  20.971
69264W        W73332  15.812   4.644  21.083
69265W        W73333  15.791   7.110  19.699
69266W        W73334  15.108   7.069  21.333
69267W        W73335  17.737   6.188  19.273
69268W        W73336  15.341   4.980  21.159
69269W        W73337  18.114   4.910  18.640
69270W        W73338  15.859   5.967  19.111
69271W        W73339  16.958   5.349  21.192
69272W        W73340  16.849   4.977  20.736
69273W        W73341  15.409   5.349  20.765
69274W        W73342  17.619   7.237  20.594
69275W        W73343  17.410   3.871  21.588
69276W        W73344  15.074   4.021  21.175
69277W        W73345  15.413   5.044  20.228
69278W        W73346  15.782   4.858  18.350
69279W        W73347  14.585   6.617  20.895
69280W        W73348  16.170   5.326  20.338
69281W        W73349  15.993   4.351  18.443
69282W        W73350  15.128   5.167  19.224
69283W        W73351  14.899   7.019  20.661
69284W        W73352  17.694   5.245  18.769
69285W        W73353  17.789   4.161  21.455
69286W        W73354  17.225   6.370  19.418
69287W        W73355  14.823   5.294  21.595
69288W        W73356  17.789   3.758  18.891
69289W        W73357  17.309   6.233  18.902
69290W        W73358  16.211   5.291  18.987
69291W        W73359  17.398   4.095  18.510
69292W        W73360  17.463   4.702  20.696
69293W        W73361  15.172   5.295  19.903
69294W        W73362  15.466   6.234  19.552
69295W        W73363  17.229   4.854  19.517
69296W        W73364  16.252   4.233  20.213
69297W        W73365  18.214   6.144  20.724
69298W        W73366  18.132   4.131  20.285
69299W        W73367  14.671   6.961  19.661
69300W        W73368  15.180   6.148  19.197
69301W        W73369  15.095   3.765  21.750
69302W        W73370  16.214   6.618  21.852
69303W        W73371  17.969   5.586  19.642
69304W        W73372  17.323   5.763  18.522
69305W        W73373  16.618   7.284  20.734
69306W        W73374  17.475   6.006  21.771
69307W        W73375  16.290   3.716  19.051
69308W        W73376  17.003   4.585  19.910
69309W        W73377  14.689   6.172  20.242
69310W        W73378  15.942   4.134  18.883
69311W        W73379  15.746   5.618  21.732
69312W        W73380  16.740   4.599  19.446
69313W        W73381  16.945   6.009  20.568
69314W        W73382  15.099   6.614  21.003
69315W        W73383  15.690   6.597  21.726
69316W        W73384  15.541   4.394  18.740
69317W        W73385  17.058   4.536  19.065
69318W        W73386  17.016   6.644  21.302
69319W        W73387  15.701   5.236  19.901
69320W        W73388  15.356   6.934  20.766
69321W        W73389  18.101   7.051  18.367
69322W        W73390  14.964   5.723  21.363
69323W        W73391  16.959   5.985  20.051
69324W        W73392  15.395   5.634  19.293
69325W        W73393  15.766   6.641  20.688
69326W        W73394  16.144   4.060  19.729
69327W        W73395  14.755   6.044  18.659
69328W        W73396  16.274   4.995  18.529
69329W        W73397  14.920   5.544  19.548
69330W        W73398  16.210   4.186  21.012
69331W        W73399  17.882   3.895  18.439
69332W        W73400  17.975   5.641  21.538
69333W        W73401  16.629   6.898  21.690
69334W        W73402  18.187   5.992  21.212
69335W        W73403  17.595   6.790  21.823
69336W        W73404  15.334   7.246  20.301
69337W        W73405  18.193   5.868  19.175
69338W        W73406  16.723   5.135  19.688
69339W        W73407  16.490   3.747  19.578
69340W        W73408  15.549   6.731  19.415
69341W        W73409  16.048   4.472  20.640
69342W        W73410  15.748   3.841  20.109
69343W        W73411  16.627   6.027  19.375
69344W        W73412  15.502   6.822  21.254
69345W        W73413  14.979   5.645  18.950
69346W        W73414  14.864   4.188  19.949
69347W        W73415  16.412   6.153  20.006
69348W        W73416  14.664   4.007  19.026
69349W        W73417  17.328   5.213  20.953
69350W        W73418  17.205   4.599  18.525
69351W        W73419  17.722   6.271  20.173
69352W        W73420  16.383   6.755  20.004
69353W        W73421  15.795   6.859  18.915
69354W        W73422  17.077   3.762  18.345
69355W        W73423  14.877   7.022  20.086
69356W        W73424  17.074   4.780  21.721
69357W        W73425  15.057   4.310  21.720
69358W        W73426  14.788   4.910  19.053
69359W        W73427  15.479   4.899  18.778
69360W        W73428  17.242   5.226  21.595
69361W        W73429  15.585   5.507  20.304
69362W        W73430  17.059   3.793  19.424
69363W        W73431  16.190   7.224  19.927
69364W        W73432  17.404   6.686  20.864
69365W        W73433  16.988   6.835  19.975
69366W        W73434  17.007   5.815  19.569
69367W        W73435  16.469   4.040  18.640
69368W        W73436  18.150   3.668  19.362
69369W        W73437  15.838   5.303  18.525
69370W        W73438  18.004   4.640  19.515
69371W        W73439  16.696   5.810  18.392
69372W        W73440  17.632   6.010  21.140
69373W        W73441  17.286   6.711  18.607
69374W        W73442  15.901   4.386  21.513
69375W        W73443  15.721   4.970  20.754
69376W        W73444  17.813   6.465  21.031
69377W        W73445  16.913   4.415  21.408
69378W        W73446  14.757   4.886  21.185
69379W        W73447  16.517   5.363  20.911
69380W        W73448  14.874   6.121  19.568
69381W        W73449  15.021   5.418  20.458
69382W        W73450  17.338   5.704  20.808
69383W        W73451  17.110   7.084  21.619
69384W        W73452  17.006   4.823  21.172
69385W        W73453  17.283   6.877  19.577
69386W        W73454  16.285   6.597  20.900
69387W        W73455  15.770   6.952  20.169
69388W        W73456  17.575   6.123  20.588
69389W        W73457  16.625   6.195  21.725
69390W        W73458  15.230   6.148  20.064
69391W        W73459  17.576   5.907  19.709
69392W        W73460  17.217   6.973  20.460
69393W        W73461  15.195   6.702  20.330
69394W        W73462  16.216   4.754  21.540
69395W        W73463  16.667   6.920  19.051
69396W        W73464  15.975   6.175  21.689
69397W        W73465  16.101   6.413  19.066
69398W        W73466  15.322   5.153  18.325
69399W        W73467  17.742   5.862  22.518
69400W        W73468  15.790   6.938  22.071
69401W        W73469  15.873   5.090  23.054
69402W        W73470  15.388   4.938  23.218
69403W        W73471  16.379   5.753  22.652
69404W        W73472  16.808   4.945  22.229
69405W        W73473  16.365   6.180  22.198
69406W        W73474  15.061   4.019  23.033
69407W        W73475  17.749   4.413  21.984
69408W        W73476  17.955   6.387  22.481
69409W        W73477  15.084   7.173  22.235
69410W        W73478  15.477   7.219  22.911
69411W        W73479  17.302   5.413  23.071
69412W        W73480  17.268   5.101  22.098
69413W        W73481  17.753   5.453  22.853
69414W        W73482  16.655   4.111  22.869
69415W        W73483  15.312   6.805  22.552
69416W        W73484  16.268   6.878  22.410
69417W        W73485  17.660   4.904  21.874
69418W        W73486  15.847   5.594  23.137
69419W        W73487  15.317   5.633  21.995
69420W        W73488  14.972   4.666  22.174
69421W        W73489  15.034   6.622  22.968
69422W        W73490  16.165   6.105  23.216
69423W        W73491  16.423   4.606  22.614
69424W        W73492  14.589   5.356  22.808
69425W        W73493  16.904   5.035  22.759
69426W        W73494  16.781   5.525  22.863
69427W        W73495  16.770   4.419  22.320
69428W        W73496  17.169   4.299  23.101
69429W        W73497  15.960   4.726  22.477
69430W        W73498  17.581   4.494  22.822
69431W        W73499  17.948   4.976  22.767
69432W        W73500  15.617   3.729  22.473
69433W        W73501  18.088   6.512  21.953
69434W        W73502  16.912   4.302  21.885
69435W        W73503  16.623   6.379  22.612
69436W        W73504  16.722   6.946  23.204
69437W        W73505  17.896   5.949  22.048
69438W        W73506  16.331   5.432  23.109
69439W        W73507  17.401   4.962  22.727
69440W        W73508  17.688   4.695  22.369
69441W        W73509  17.497   6.735  22.758
69442W        W73510  17.227   5.417  22.532
69443W        W73511  17.880   4.069  22.999
69444W        W73512  16.066   6.945  22.964
69445W        W73513  15.181   4.125  22.222
69446W        W73514  15.313   6.899  21.880
69447W        W73515  15.687   5.365  22.631
69448W        W73516  16.171   4.352  22.934
69449W        W73517  15.519   4.142  22.886
69450W        W73518  15.524   4.370  21.911
69451W        W73519  16.297   5.506  22.218
69452W        W73520  15.565   3.821  21.988
69453W        W73521  16.303   4.902  23.039
69454W        W73522  15.214   4.414  23.253
69455W        W73523  15.000   7.126  22.929
69456W        W73524  15.367   5.941  22.413
69457W        W73525  17.002   6.173  22.099
69458W        W73526  18.153   4.472  22.695
69459W        W73527  14.631   7.133  22.490
69460W        W73528  15.893   6.426  22.145
69461W        W73529  17.798   6.808  22.331
69462W        W73530  16.773   5.461  22.345
69463W        W73531  15.616   4.652  22.862
69464W        W73532  16.448   4.562  21.914
69465W        W73533  17.385   4.033  22.709
69466W        W73534  14.715   3.881  22.157
69467W        W73535  15.542   6.068  21.937
69468W        W73536  14.783   6.309  22.705
69469W        W73537  15.895   3.849  22.970
69470W        W73538  16.954   3.926  22.475
69471W        W73539  15.058   4.427  22.642
69472W        W73540  18.025   5.318  21.943
69473W        W73541  14.579   4.338  22.180
69474W        W73542  16.590   7.204  22.216
69475W        W73543  14.736   5.711  21.913
69476W        W73544  18.137   5.563  22.403
69477W        W73545  17.000   5.895  22.502
69478W        W73546  17.474   7.195  22.197
69479W        W73547  16.068   3.761  22.156
69480W        W73548  17.607   6.360  22.099
69481W        W73549  17.147   7.097  22.613
69482W        W73550  15.608   6.380  22.598
69483W        W73551  17.363   5.878  22.862
69484W        W73552  16.460   6.566  23.050
69485W        W73553  18.210   5.126  23.231
69486W        W73554  16.734   6.610  22.165
69487W        W73555  15.876   5.855  22.247
69488W        W73556  17.588   7.237  22.966
69489W        W73557  14.844   5.243  22.131
69490W        W73558  17.978   6.901  22.828
69491W        W73559  17.815   4.225  22.447
69492W        W73560  17.689   5.102  23.213
69493W        W73561  15.220   6.430  22.108
69494W        W73562  17.737   6.188  22.918
69495W        W73563  18.114   4.910  22.285
69496W        W73564  15.859   5.967  22.756
69497W        W73565  15.782   4.858  21.995
69498W        W73566  15.993   4.351  22.088
69499W        W73567  15.128   5.167  22.869
69500W        W73568  17.694   5.245  22.414
69501W        W73569  17.225   6.370  23.063
69502W        W73570  17.789   3.758  22.536
69503W        W73571  17.309   6.233  22.547
69504W        W73572  16.211   5.291  22.632
69505W        W73573  17.398   4.095  22.155
69506W        W73574  15.466   6.234  23.197
69507W        W73575  17.229   4.854  23.162
69508W        W73576  14.671   6.961  23.306
69509W        W73577  15.180   6.148  22.842
69510W        W73578  17.969   5.586  23.287
69511W        W73579  17.323   5.763  22.167
69512W        W73580  16.290   3.716  22.696
69513W        W73581  15.942   4.134  22.528
69514W        W73582  16.740   4.599  23.091
69515W        W73583  15.541   4.394  22.385
69516W        W73584  17.058   4.536  22.710
69517W        W73585  18.101   7.051  22.012
69518W        W73586  14.755   6.044  22.304
69519W        W73587  16.274   4.995  22.174
69520W        W73588  14.920   5.544  23.193
69521W        W73589  17.882   3.895  22.084
69522W        W73590  18.193   5.868  22.820
69523W        W73591  16.490   3.747  23.223
69524W        W73592  15.549   6.731  23.060
69525W        W73593  14.811   6.663  22.302
69526W        W73594  16.627   6.027  23.020
69527W        W73595  14.979   5.645  22.595
69528W        W73596  14.664   4.007  22.671
69529W        W73597  17.205   4.599  22.170
69530W        W73598  15.795   6.859  22.560
69531W        W73599  17.077   3.762  21.990
69532W        W73600  14.788   4.910  22.698
69533W        W73601  15.479   4.899  22.423
69534W        W73602  17.007   5.815  23.214
69535W        W73603  16.469   4.040  22.285
69536W        W73604  18.150   3.668  23.007
69537W        W73605  15.838   5.303  22.170
69538W        W73606  18.004   4.640  23.160
69539W        W73607  16.696   5.810  22.037
69540W        W73608  17.286   6.711  22.252
69541W        W73609  14.874   6.121  23.213
69542W        W73610  17.283   6.877  23.222
69543W        W73611  16.667   6.920  22.696
69544W        W73612  16.101   6.413  22.711
69545W        W73613  15.322   5.153  21.970
69546W        W73614  14.661  10.884   3.359
69547W        W73615  15.037   9.777   2.882
69548W        W73616  17.742   9.507   0.652
69549W        W73617  17.872  10.592   2.679
69550W        W73618  15.790  10.583   0.205
69551W        W73619  15.873   8.735   1.188
69552W        W73620  15.388   8.583   1.352
69553W        W73621  16.379   9.398   0.786
69554W        W73622  16.054  10.490   3.141
69555W        W73623  14.703   8.051   3.104
69556W        W73624  15.465   7.331   2.906
69557W        W73625  17.159   7.719   1.793
69558W        W73626  16.808   8.590   0.363
69559W        W73627  17.378   8.024   3.454
69560W        W73628  14.744   7.816   2.579
69561W        W73629  14.843  10.435   3.600
69562W        W73630  16.365   9.825   0.332
69563W        W73631  14.797   8.608   2.025
69564W        W73632  15.690   8.499   3.262
69565W        W73633  18.149   8.358   1.761
69566W        W73634  17.913   9.401   2.620
69567W        W73635  16.221   8.734   1.647
69568W        W73636  16.767  10.073   2.016
69569W        W73637  15.267   9.507   2.248
69570W        W73638  14.626   9.035   1.819
69571W        W73639  15.662   9.007   3.011
69572W        W73640  17.933   8.790   3.265
69573W        W73641  15.549  10.234   1.710
69574W        W73642  16.670   9.923   2.844
69575W        W73643  15.890   8.563   2.069
69576W        W73644  16.182   9.347   1.712
69577W        W73645  17.179  10.120   3.560
69578W        W73646  16.258   9.440   3.570
69579W        W73647  16.239   9.156   3.048
69580W        W73648  14.648   8.547   3.570
69581W        W73649  17.480  10.082   3.169
69582W        W73650  15.061   7.664   1.167
69583W        W73651  15.588   9.922   2.166
69584W        W73652  18.051   9.705   1.456
69585W        W73653  17.464   8.105   2.023
69586W        W73654  17.749   8.058   0.118
69587W        W73655  18.214   8.859   2.424
69588W        W73656  16.181  10.566   2.177
69589W        W73657  17.955  10.032   0.615
69590W        W73658  15.084  10.818   0.369
69591W        W73659  15.477  10.864   1.045
69592W        W73660  15.274   7.618   2.471
69593W        W73661  17.897   8.636   2.746
69594W        W73662  17.302   9.058   1.205
69595W        W73663  17.268   8.746   0.232
69596W        W73664  16.476   9.890   2.372
69597W        W73665  16.282   8.220   1.571
69598W        W73666  16.882  10.307   2.565
69599W        W73667  17.753   9.098   0.987
69600W        W73668  16.655   7.756   1.003
69601W        W73669  15.312  10.450   0.686
69602W        W73670  14.683   7.949   1.285
69603W        W73671  17.469   8.556   1.759
69604W        W73672  14.927  10.173   1.674
69605W        W73673  16.268  10.523   0.544
69606W        W73674  17.660   8.549   0.008
69607W        W73675  14.683  10.307   2.172
69608W        W73676  15.474   9.879   2.652
69609W        W73677  15.847   9.239   1.271
69610W        W73678  15.869   7.644   2.364
69611W        W73679  18.098   7.406   1.661
69612W        W73680  15.317   9.278   0.129
69613W        W73681  14.972   8.311   0.308
69614W        W73682  15.034  10.267   1.102
69615W        W73683  16.165   9.750   1.350
69616W        W73684  17.497  10.609   3.064
69617W        W73685  16.423   8.251   0.748
69618W        W73686  17.806  10.649   1.520
69619W        W73687  17.483   8.502   3.118
69620W        W73688  18.196  10.158   1.252
69621W        W73689  16.823   9.450   2.736
69622W        W73690  14.589   9.001   0.942
69623W        W73691  15.700   9.416   2.515
69624W        W73692  16.904   8.680   0.893
69625W        W73693  16.781   9.170   0.997
69626W        W73694  15.124   8.590   2.471
69627W        W73695  15.109   8.466   3.393
69628W        W73696  14.999   7.383   1.552
69629W        W73697  16.767   7.730   2.113
69630W        W73698  16.415   7.915   3.276
69631W        W73699  16.770   8.064   0.454
69632W        W73700  17.953  10.457   3.208
69633W        W73701  16.920   7.538   3.247
69634W        W73702  17.939   9.839   3.369
69635W        W73703  17.369   8.006   2.965
69636W        W73704  17.169   7.944   1.235
69637W        W73705  17.562   9.078   3.639
69638W        W73706  15.302  10.654   1.625
69639W        W73707  15.960   8.371   0.611
69640W        W73708  15.529   7.655   3.275
69641W        W73709  17.581   8.139   0.956
69642W        W73710  17.948   8.621   0.901
69643W        W73711  15.691  10.838   3.372
69644W        W73712  15.617   7.374   0.607
69645W        W73713  17.938   7.908   1.642
69646W        W73714  18.088  10.157   0.087
69647W        W73715  14.995   9.360   1.789
69648W        W73716  16.912   7.947   0.019
69649W        W73717  18.046  10.279   1.739
69650W        W73718  18.085   7.473   2.489
69651W        W73719  16.530   8.685   3.043
69652W        W73720  16.623  10.024   0.746
69653W        W73721  17.023   9.318   3.486
69654W        W73722  16.697   7.295   1.795
69655W        W73723  15.309   8.198   1.858
69656W        W73724  14.863   9.398   2.632
69657W        W73725  16.722  10.591   1.338
69658W        W73726  17.916   8.188   2.210
69659W        W73727  16.553  10.535   2.977
69660W        W73728  17.896   9.594   0.182
69661W        W73729  16.331   9.077   1.243
69662W        W73730  18.183   7.588   2.984
69663W        W73731  16.332   9.423   2.578
69664W        W73732  16.549   8.309   2.023
69665W        W73733  17.401   8.607   0.861
69666W        W73734  17.688   8.340   0.503
69667W        W73735  17.497  10.380   0.892
69668W        W73736  17.331   9.983   1.688
69669W        W73737  17.227   9.062   0.666
69670W        W73738  16.660   9.272   1.652
69671W        W73739  17.541   9.060   1.719
69672W        W73740  14.916   8.075   2.143
69673W        W73741  17.694   9.127   2.970
69674W        W73742  18.045  10.745   2.116
69675W        W73743  15.975  10.189   1.518
69676W        W73744  16.982  10.722   2.842
69677W        W73745  16.976   8.052   2.606
69678W        W73746  16.183  10.760   2.667
69679W        W73747  17.880   7.714   1.133
69680W        W73748  17.671   9.033   2.434
69681W        W73749  14.654   8.354   2.472
69682W        W73750  17.514   8.149   1.490
69683W        W73751  17.925   8.300   3.267
69684W        W73752  16.810   9.999   1.485
69685W        W73753  16.066  10.590   1.098
69686W        W73754  15.181   7.770   0.356
69687W        W73755  16.285   7.424   2.166
69688W        W73756  15.313  10.544   0.014
69689W        W73757  15.687   9.010   0.765
69690W        W73758  16.341   9.639   3.078
69691W        W73759  16.171   7.997   1.068
69692W        W73760  17.527   7.594   1.496
69693W        W73761  17.247  10.876   1.824
69694W        W73762  16.659  10.524   2.164
69695W        W73763  16.055   9.561   2.125
69696W        W73764  17.825  10.284   2.251
69697W        W73765  15.519   7.787   1.020
69698W        W73766  16.041  10.084   1.980
69699W        W73767  15.524   8.015   0.045
69700W        W73768  16.325   8.624   2.439
69701W        W73769  17.173   7.490   2.309
69702W        W73770  14.593   9.333   2.194
69703W        W73771  16.297   9.151   0.352
69704W        W73772  15.565   7.466   0.122
69705W        W73773  16.303   8.547   1.173
69706W        W73774  17.273   7.523   2.872
69707W        W73775  15.861   9.535   2.981
69708W        W73776  16.665   9.317   3.198
69709W        W73777  17.282   9.347   3.091
69710W        W73778  16.566   7.487   3.596
69711W        W73779  15.788   8.103   1.989
69712W        W73780  15.214   8.059   1.387
69713W        W73781  15.000  10.771   1.063
69714W        W73782  16.332  10.101   3.188
69715W        W73783  15.367   9.586   0.547
69716W        W73784  17.047   8.971   1.768
69717W        W73785  17.327   8.770   2.167
69718W        W73786  16.532   9.444   2.101
69719W        W73787  17.002   9.818   0.233
69720W        W73788  16.674   7.839   1.561
69721W        W73789  18.153   8.117   0.829
69722W        W73790  14.647  10.706   2.860
69723W        W73791  15.064   9.932   2.392
69724W        W73792  14.631  10.778   0.624
69725W        W73793  16.530   8.048   2.430
69726W        W73794  15.893  10.071   0.279
69727W        W73795  17.798  10.453   0.465
69728W        W73796  16.773   9.106   0.479
69729W        W73797  15.616   8.297   0.996
69730W        W73798  16.448   8.207   0.048
69731W        W73799  17.032   9.772   3.226
69732W        W73800  17.385   7.678   0.843
69733W        W73801  14.715   7.526   0.291
69734W        W73802  16.001   9.845   2.581
69735W        W73803  15.800   9.761   1.673
69736W        W73804  15.542   9.713   0.071
69737W        W73805  14.783   9.954   0.839
69738W        W73806  15.287   9.024   3.281
69739W        W73807  15.991   7.584   3.467
69740W        W73808  16.700   7.726   2.823
69741W        W73809  15.895   7.494   1.104
69742W        W73810  16.954   7.571   0.609
69743W        W73811  14.899   7.503   2.186
69744W        W73812  14.947   8.466   1.556
69745W        W73813  17.636   7.574   1.962
69746W        W73814  15.058   8.072   0.776
69747W        W73815  17.629   7.760   2.392
69748W        W73816  18.025   8.963   0.077
69749W        W73817  15.317   7.721   1.896
69750W        W73818  16.431   8.293   2.836
69751W        W73819  14.579   7.983   0.314
69752W        W73820  15.365   9.372   2.875
69753W        W73821  16.723   8.770   2.054
69754W        W73822  16.590  10.849   0.350
69755W        W73823  14.736   9.356   0.047
69756W        W73824  15.471   9.767   3.173
69757W        W73825  14.992   8.934   2.804
69758W        W73826  15.983   9.039   2.598
69759W        W73827  17.751   7.398   2.860
69760W        W73828  18.149   9.008   2.851
69761W        W73829  18.137   9.208   0.537
69762W        W73830  17.000   9.540   0.636
69763W        W73831  17.474  10.840   0.331
69764W        W73832  16.651   8.830   3.473
69765W        W73833  14.981   9.797   3.513
69766W        W73834  18.187   7.719   3.465
69767W        W73835  17.905   8.647   2.086
69768W        W73836  16.213  10.777   3.563
69769W        W73837  16.068   7.406   0.290
69770W        W73838  17.607  10.005   0.233
69771W        W73839  15.376   8.098   3.119
69772W        W73840  15.810  10.092   2.981
69773W        W73841  17.936   8.083   2.779
69774W        W73842  17.147  10.742   0.747
69775W        W73843  17.386   9.361   2.114
69776W        W73844  15.636   7.777   2.781
69777W        W73845  16.105   8.846   3.538
69778W        W73846  15.608  10.025   0.732
69779W        W73847  17.363   9.523   0.996
69780W        W73848  15.131   8.149   2.720
69781W        W73849  16.460  10.211   1.184
69782W        W73850  18.210   8.771   1.365
69783W        W73851  16.432   7.404   3.084
69784W        W73852  17.212  10.109   2.163
69785W        W73853  17.515  10.453   1.871
69786W        W73854  16.734  10.255   0.299
69787W        W73855  14.744  10.147   3.141
69788W        W73856  15.487   8.139   2.379
69789W        W73857  15.457   7.487   1.489
69790W        W73858  17.078   8.329   2.181
69791W        W73859  15.876   9.500   0.381
69792W        W73860  17.874   9.442   1.880
69793W        W73861  15.201  10.200   3.303
69794W        W73862  17.588  10.882   1.100
69795W        W73863  15.687   7.902   1.545
69796W        W73864  15.456   9.395   1.635
69797W        W73865  15.769  10.806   2.385
69798W        W73866  17.836  10.902   3.417
69799W        W73867  16.995   9.090   2.350
69800W        W73868  14.844   8.888   0.265
69801W        W73869  17.978  10.546   0.962
69802W        W73870  17.815   7.870   0.581
69803W        W73871  15.954   7.389   2.984
69804W        W73872  17.660  10.191   1.442
69805W        W73873  17.689   8.747   1.347
69806W        W73874  15.806   8.420   1.563
69807W        W73875  16.051   8.682   2.887
69808W        W73876  17.162   9.835   2.750
69809W        W73877  15.812   8.289   2.862
69810W        W73878  15.791  10.755   1.478
69811W        W73879  15.108  10.714   3.112
69812W        W73880  15.220  10.075   0.242
69813W        W73881  17.737   9.833   1.052
69814W        W73882  15.341   8.625   2.938
69815W        W73883  18.114   8.555   0.419
69816W        W73884  15.859   9.612   0.890
69817W        W73885  16.958   8.994   2.971
69818W        W73886  16.849   8.622   2.515
69819W        W73887  15.409   8.994   2.544
69820W        W73888  17.619  10.882   2.373
69821W        W73889  17.410   7.516   3.367
69822W        W73890  15.074   7.666   2.954
69823W        W73891  15.413   8.689   2.007
69824W        W73892  15.782   8.503   0.129
69825W        W73893  14.585  10.262   2.674
69826W        W73894  16.170   8.971   2.117
69827W        W73895  15.993   7.996   0.222
69828W        W73896  15.128   8.812   1.003
69829W        W73897  14.899  10.664   2.440
69830W        W73898  17.694   8.890   0.548
69831W        W73899  17.789   7.806   3.234
69832W        W73900  17.225  10.015   1.197
69833W        W73901  14.823   8.939   3.374
69834W        W73902  17.789   7.403   0.670
69835W        W73903  17.309   9.878   0.681
69836W        W73904  16.211   8.936   0.766
69837W        W73905  17.398   7.740   0.289
69838W        W73906  17.463   8.347   2.475
69839W        W73907  15.172   8.940   1.682
69840W        W73908  15.466   9.879   1.331
69841W        W73909  17.229   8.499   1.296
69842W        W73910  16.252   7.878   1.992
69843W        W73911  18.214   9.789   2.503
69844W        W73912  18.132   7.776   2.064
69845W        W73913  14.671  10.606   1.440
69846W        W73914  15.180   9.793   0.976
69847W        W73915  15.095   7.410   3.529
69848W        W73916  16.214  10.263   3.631
69849W        W73917  17.969   9.231   1.421
69850W        W73918  17.323   9.408   0.301
69851W        W73919  16.618  10.929   2.513
69852W        W73920  17.475   9.651   3.550
69853W        W73921  16.290   7.361   0.830
69854W        W73922  17.003   8.230   1.689
69855W        W73923  14.689   9.817   2.021
69856W        W73924  15.942   7.779   0.662
69857W        W73925  15.746   9.263   3.511
69858W        W73926  16.740   8.244   1.225
69859W        W73927  16.945   9.654   2.347
69860W        W73928  15.099  10.259   2.782
69861W        W73929  15.690  10.242   3.505
69862W        W73930  15.541   8.039   0.519
69863W        W73931  17.058   8.181   0.844
69864W        W73932  17.016  10.289   3.081
69865W        W73933  15.701   8.881   1.680
69866W        W73934  15.356  10.579   2.545
69867W        W73935  18.101  10.696   0.146
69868W        W73936  14.964   9.368   3.142
69869W        W73937  16.959   9.630   1.830
69870W        W73938  15.395   9.279   1.072
69871W        W73939  15.766  10.286   2.467
69872W        W73940  16.144   7.705   1.508
69873W        W73941  14.755   9.689   0.438
69874W        W73942  16.274   8.640   0.308
69875W        W73943  14.920   9.189   1.327
69876W        W73944  16.210   7.831   2.791
69877W        W73945  17.882   7.540   0.218
69878W        W73946  17.975   9.286   3.317
69879W        W73947  16.629  10.543   3.469
69880W        W73948  18.187   9.637   2.991
69881W        W73949  17.595  10.435   3.602
69882W        W73950  15.334  10.891   2.080
69883W        W73951  18.193   9.513   0.954
69884W        W73952  16.723   8.780   1.467
69885W        W73953  16.490   7.392   1.357
69886W        W73954  15.549  10.376   1.194
69887W        W73955  16.048   8.117   2.419
69888W        W73956  15.748   7.486   1.888
69889W        W73957  14.811  10.308   0.436
69890W        W73958  16.627   9.672   1.154
69891W        W73959  15.502  10.467   3.033
69892W        W73960  14.979   9.290   0.729
69893W        W73961  14.864   7.833   1.728
69894W        W73962  16.412   9.798   1.785
69895W        W73963  14.664   7.652   0.805
69896W        W73964  17.328   8.858   2.732
69897W        W73965  17.205   8.244   0.304
69898W        W73966  17.722   9.916   1.952
69899W        W73967  16.383  10.400   1.783
69900W        W73968  15.795  10.504   0.694
69901W        W73969  17.077   7.407   0.124
69902W        W73970  14.877  10.667   1.865
69903W        W73971  17.074   8.425   3.500
69904W        W73972  15.057   7.955   3.499
69905W        W73973  14.788   8.555   0.832
69906W        W73974  15.479   8.544   0.557
69907W        W73975  17.242   8.871   3.374
69908W        W73976  15.585   9.152   2.083
69909W        W73977  17.059   7.438   1.203
69910W        W73978  16.190  10.869   1.706
69911W        W73979  17.404  10.331   2.643
69912W        W73980  16.988  10.480   1.754
69913W        W73981  17.007   9.460   1.348
69914W        W73982  16.469   7.685   0.419
69915W        W73983  18.150   7.313   1.141
69916W        W73984  15.838   8.948   0.304
69917W        W73985  18.004   8.285   1.294
69918W        W73986  16.696   9.455   0.171
69919W        W73987  17.632   9.655   2.919
69920W        W73988  17.286  10.356   0.386
69921W        W73989  15.901   8.031   3.292
69922W        W73990  15.721   8.615   2.533
69923W        W73991  17.813  10.110   2.810
69924W        W73992  16.913   8.060   3.187
69925W        W73993  14.757   8.531   2.964
69926W        W73994  16.517   9.008   2.690
69927W        W73995  14.874   9.766   1.347
69928W        W73996  15.021   9.063   2.237
69929W        W73997  17.338   9.349   2.587
69930W        W73998  17.110  10.729   3.398
69931W        W73999  17.006   8.468   2.951
69932W        W74000  17.283  10.522   1.356
69933W        W74001  16.285  10.242   2.679
69934W        W74002  15.770  10.597   1.948
69935W        W74003  17.575   9.768   2.367
69936W        W74004  16.625   9.840   3.504
69937W        W74005  15.230   9.793   1.843
69938W        W74006  17.576   9.552   1.488
69939W        W74007  17.217  10.618   2.239
69940W        W74008  15.195  10.347   2.109
69941W        W74009  16.216   8.399   3.319
69942W        W74010  16.667  10.565   0.830
69943W        W74011  15.975   9.820   3.468
69944W        W74012  16.101  10.058   0.845
69945W        W74013  15.322   8.798   0.104
69946W        W74014  14.661  10.884   7.003
69947W        W74015  15.037   9.777   6.526
69948W        W74016  17.742   9.507   4.296
69949W        W74017  17.872  10.592   6.323
69950W        W74018  15.790  10.583   3.849
69951W        W74019  15.873   8.735   4.832
69952W        W74020  15.388   8.583   4.996
69953W        W74021  16.379   9.398   4.430
69954W        W74022  16.054  10.490   6.785
69955W        W74023  14.703   8.051   6.748
69956W        W74024  15.465   7.331   6.550
69957W        W74025  17.159   7.719   5.437
69958W        W74026  16.808   8.590   4.007
69959W        W74027  17.378   8.024   7.098
69960W        W74028  14.744   7.816   6.223
69961W        W74029  14.843  10.435   7.244
69962W        W74030  16.365   9.825   3.976
69963W        W74031  14.797   8.608   5.669
69964W        W74032  15.690   8.499   6.906
69965W        W74033  18.149   8.358   5.405
69966W        W74034  17.913   9.401   6.264
69967W        W74035  16.221   8.734   5.291
69968W        W74036  16.767  10.073   5.660
69969W        W74037  15.267   9.507   5.892
69970W        W74038  14.626   9.035   5.463
69971W        W74039  15.662   9.007   6.655
69972W        W74040  17.933   8.790   6.909
69973W        W74041  15.549  10.234   5.354
69974W        W74042  16.670   9.923   6.488
69975W        W74043  15.890   8.563   5.713
69976W        W74044  16.182   9.347   5.356
69977W        W74045  17.179  10.120   7.204
69978W        W74046  16.258   9.440   7.214
69979W        W74047  16.239   9.156   6.692
69980W        W74048  14.648   8.547   7.214
69981W        W74049  17.480  10.082   6.813
69982W        W74050  15.061   7.664   4.811
69983W        W74051  15.588   9.922   5.810
69984W        W74052  18.051   9.705   5.100
69985W        W74053  17.464   8.105   5.667
69986W        W74054  17.749   8.058   3.762
69987W        W74055  18.214   8.859   6.068
69988W        W74056  16.181  10.566   5.821
69989W        W74057  17.955  10.032   4.259
69990W        W74058  15.084  10.818   4.013
69991W        W74059  15.477  10.864   4.689
69992W        W74060  15.274   7.618   6.115
69993W        W74061  17.897   8.636   6.390
69994W        W74062  17.302   9.058   4.849
69995W        W74063  17.268   8.746   3.876
69996W        W74064  16.476   9.890   6.016
69997W        W74065  16.282   8.220   5.215
69998W        W74066  16.882  10.307   6.209
69999W        W74067  17.753   9.098   4.631
70000W        W74068  16.655   7.756   4.647
70001W        W74069  15.312  10.450   4.330
70002W        W74070  14.683   7.949   4.929
70003W        W74071  17.469   8.556   5.403
70004W        W74072  14.927  10.173   5.318
70005W        W74073  16.268  10.523   4.188
70006W        W74074  17.660   8.549   3.652
70007W        W74075  14.683  10.307   5.816
70008W        W74076  15.474   9.879   6.296
70009W        W74077  15.847   9.239   4.915
70010W        W74078  15.869   7.644   6.008
70011W        W74079  18.098   7.406   5.305
70012W        W74080  15.317   9.278   3.773
70013W        W74081  14.972   8.311   3.952
70014W        W74082  15.034  10.267   4.746
70015W        W74083  16.165   9.750   4.994
70016W        W74084  17.497  10.609   6.708
70017W        W74085  16.423   8.251   4.392
70018W        W74086  17.806  10.649   5.164
70019W        W74087  17.483   8.502   6.762
70020W        W74088  18.196  10.158   4.896
70021W        W74089  16.823   9.450   6.380
70022W        W74090  14.589   9.001   4.586
70023W        W74091  15.700   9.416   6.159
70024W        W74092  16.904   8.680   4.537
70025W        W74093  16.781   9.170   4.641
70026W        W74094  15.124   8.590   6.115
70027W        W74095  15.109   8.466   7.037
70028W        W74096  14.999   7.383   5.196
70029W        W74097  16.767   7.730   5.757
70030W        W74098  16.415   7.915   6.920
70031W        W74099  16.770   8.064   4.098
70032W        W74100  17.953  10.457   6.852
70033W        W74101  16.920   7.538   6.891
70034W        W74102  17.939   9.839   7.013
70035W        W74103  17.369   8.006   6.609
70036W        W74104  17.169   7.944   4.879
70037W        W74105  17.562   9.078   7.283
70038W        W74106  15.302  10.654   5.269
70039W        W74107  15.960   8.371   4.255
70040W        W74108  15.529   7.655   6.919
70041W        W74109  17.581   8.139   4.600
70042W        W74110  17.948   8.621   4.545
70043W        W74111  15.691  10.838   7.016
70044W        W74112  15.617   7.374   4.251
70045W        W74113  17.938   7.908   5.286
70046W        W74114  18.088  10.157   3.731
70047W        W74115  14.995   9.360   5.433
70048W        W74116  16.912   7.947   3.663
70049W        W74117  18.046  10.279   5.383
70050W        W74118  18.085   7.473   6.133
70051W        W74119  16.530   8.685   6.687
70052W        W74120  16.623  10.024   4.390
70053W        W74121  17.023   9.318   7.130
70054W        W74122  16.697   7.295   5.439
70055W        W74123  15.309   8.198   5.502
70056W        W74124  14.863   9.398   6.276
70057W        W74125  16.722  10.591   4.982
70058W        W74126  17.916   8.188   5.854
70059W        W74127  16.553  10.535   6.621
70060W        W74128  17.896   9.594   3.826
70061W        W74129  16.331   9.077   4.887
70062W        W74130  18.183   7.588   6.628
70063W        W74131  16.332   9.423   6.222
70064W        W74132  16.549   8.309   5.667
70065W        W74133  17.401   8.607   4.505
70066W        W74134  17.688   8.340   4.147
70067W        W74135  17.497  10.380   4.536
70068W        W74136  17.331   9.983   5.332
70069W        W74137  17.227   9.062   4.310
70070W        W74138  16.660   9.272   5.296
70071W        W74139  17.541   9.060   5.363
70072W        W74140  14.916   8.075   5.787
70073W        W74141  17.694   9.127   6.614
70074W        W74142  18.045  10.745   5.760
70075W        W74143  15.975  10.189   5.162
70076W        W74144  16.982  10.722   6.486
70077W        W74145  16.976   8.052   6.250
70078W        W74146  16.183  10.760   6.311
70079W        W74147  17.880   7.714   4.777
70080W        W74148  17.671   9.033   6.078
70081W        W74149  14.654   8.354   6.116
70082W        W74150  17.514   8.149   5.134
70083W        W74151  17.925   8.300   6.911
70084W        W74152  16.810   9.999   5.129
70085W        W74153  16.066  10.590   4.742
70086W        W74154  15.181   7.770   4.000
70087W        W74155  16.285   7.424   5.810
70088W        W74156  15.313  10.544   3.658
70089W        W74157  15.687   9.010   4.409
70090W        W74158  16.341   9.639   6.722
70091W        W74159  16.171   7.997   4.712
70092W        W74160  17.527   7.594   5.140
70093W        W74161  17.247  10.876   5.468
70094W        W74162  16.659  10.524   5.808
70095W        W74163  16.055   9.561   5.769
70096W        W74164  17.825  10.284   5.895
70097W        W74165  15.519   7.787   4.664
70098W        W74166  16.041  10.084   5.624
70099W        W74167  15.524   8.015   3.689
70100W        W74168  16.325   8.624   6.083
70101W        W74169  17.173   7.490   5.953
70102W        W74170  14.593   9.333   5.838
70103W        W74171  16.297   9.151   3.996
70104W        W74172  15.565   7.466   3.766
70105W        W74173  16.303   8.547   4.817
70106W        W74174  17.273   7.523   6.516
70107W        W74175  15.861   9.535   6.625
70108W        W74176  16.665   9.317   6.842
70109W        W74177  17.282   9.347   6.735
70110W        W74178  16.566   7.487   7.240
70111W        W74179  15.788   8.103   5.633
70112W        W74180  15.214   8.059   5.031
70113W        W74181  15.000  10.771   4.707
70114W        W74182  16.332  10.101   6.832
70115W        W74183  15.367   9.586   4.191
70116W        W74184  17.047   8.971   5.412
70117W        W74185  17.327   8.770   5.811
70118W        W74186  16.532   9.444   5.745
70119W        W74187  17.002   9.818   3.877
70120W        W74188  16.674   7.839   5.205
70121W        W74189  18.153   8.117   4.473
70122W        W74190  14.647  10.706   6.504
70123W        W74191  15.064   9.932   6.036
70124W        W74192  14.631  10.778   4.268
70125W        W74193  16.530   8.048   6.074
70126W        W74194  15.893  10.071   3.923
70127W        W74195  17.798  10.453   4.109
70128W        W74196  16.773   9.106   4.123
70129W        W74197  15.616   8.297   4.640
70130W        W74198  16.448   8.207   3.692
70131W        W74199  17.032   9.772   6.870
70132W        W74200  17.385   7.678   4.487
70133W        W74201  14.715   7.526   3.935
70134W        W74202  16.001   9.845   6.225
70135W        W74203  15.800   9.761   5.317
70136W        W74204  15.542   9.713   3.715
70137W        W74205  14.783   9.954   4.483
70138W        W74206  15.287   9.024   6.925
70139W        W74207  15.991   7.584   7.111
70140W        W74208  16.700   7.726   6.467
70141W        W74209  15.895   7.494   4.748
70142W        W74210  16.954   7.571   4.253
70143W        W74211  14.899   7.503   5.830
70144W        W74212  14.947   8.466   5.200
70145W        W74213  17.636   7.574   5.606
70146W        W74214  15.058   8.072   4.420
70147W        W74215  17.629   7.760   6.036
70148W        W74216  18.025   8.963   3.721
70149W        W74217  15.317   7.721   5.540
70150W        W74218  16.431   8.293   6.480
70151W        W74219  14.579   7.983   3.958
70152W        W74220  15.365   9.372   6.519
70153W        W74221  16.723   8.770   5.698
70154W        W74222  16.590  10.849   3.994
70155W        W74223  14.736   9.356   3.691
70156W        W74224  15.471   9.767   6.817
70157W        W74225  14.992   8.934   6.448
70158W        W74226  15.983   9.039   6.242
70159W        W74227  17.751   7.398   6.504
70160W        W74228  18.149   9.008   6.495
70161W        W74229  18.137   9.208   4.181
70162W        W74230  17.000   9.540   4.280
70163W        W74231  17.474  10.840   3.975
70164W        W74232  16.651   8.830   7.117
70165W        W74233  14.981   9.797   7.157
70166W        W74234  18.187   7.719   7.109
70167W        W74235  17.905   8.647   5.730
70168W        W74236  16.213  10.777   7.207
70169W        W74237  16.068   7.406   3.934
70170W        W74238  17.607  10.005   3.877
70171W        W74239  15.376   8.098   6.763
70172W        W74240  15.810  10.092   6.625
70173W        W74241  17.936   8.083   6.423
70174W        W74242  17.147  10.742   4.391
70175W        W74243  17.386   9.361   5.758
70176W        W74244  15.636   7.777   6.425
70177W        W74245  16.105   8.846   7.182
70178W        W74246  15.608  10.025   4.376
70179W        W74247  17.363   9.523   4.640
70180W        W74248  15.131   8.149   6.364
70181W        W74249  16.460  10.211   4.828
70182W        W74250  18.210   8.771   5.009
70183W        W74251  16.432   7.404   6.728
70184W        W74252  17.212  10.109   5.807
70185W        W74253  17.515  10.453   5.515
70186W        W74254  16.734  10.255   3.943
70187W        W74255  14.744  10.147   6.785
70188W        W74256  15.487   8.139   6.023
70189W        W74257  15.457   7.487   5.133
70190W        W74258  17.078   8.329   5.825
70191W        W74259  15.876   9.500   4.025
70192W        W74260  17.874   9.442   5.524
70193W        W74261  15.201  10.200   6.947
70194W        W74262  17.588  10.882   4.744
70195W        W74263  15.687   7.902   5.189
70196W        W74264  15.456   9.395   5.279
70197W        W74265  15.769  10.806   6.029
70198W        W74266  17.836  10.902   7.061
70199W        W74267  16.995   9.090   5.994
70200W        W74268  14.844   8.888   3.909
70201W        W74269  17.978  10.546   4.606
70202W        W74270  17.815   7.870   4.225
70203W        W74271  15.954   7.389   6.628
70204W        W74272  17.660  10.191   5.086
70205W        W74273  17.689   8.747   4.991
70206W        W74274  15.806   8.420   5.207
70207W        W74275  16.051   8.682   6.531
70208W        W74276  17.162   9.835   6.394
70209W        W74277  15.812   8.289   6.506
70210W        W74278  15.791  10.755   5.122
70211W        W74279  15.108  10.714   6.756
70212W        W74280  15.220  10.075   3.886
70213W        W74281  17.737   9.833   4.696
70214W        W74282  15.341   8.625   6.582
70215W        W74283  18.114   8.555   4.063
70216W        W74284  15.859   9.612   4.534
70217W        W74285  16.958   8.994   6.615
70218W        W74286  16.849   8.622   6.159
70219W        W74287  15.409   8.994   6.188
70220W        W74288  17.619  10.882   6.017
70221W        W74289  17.410   7.516   7.011
70222W        W74290  15.074   7.666   6.598
70223W        W74291  15.413   8.689   5.651
70224W        W74292  15.782   8.503   3.773
70225W        W74293  14.585  10.262   6.318
70226W        W74294  16.170   8.971   5.761
70227W        W74295  15.993   7.996   3.866
70228W        W74296  15.128   8.812   4.647
70229W        W74297  14.899  10.664   6.084
70230W        W74298  17.694   8.890   4.192
70231W        W74299  17.789   7.806   6.878
70232W        W74300  17.225  10.015   4.841
70233W        W74301  14.823   8.939   7.018
70234W        W74302  17.789   7.403   4.314
70235W        W74303  17.309   9.878   4.325
70236W        W74304  16.211   8.936   4.410
70237W        W74305  17.398   7.740   3.933
70238W        W74306  17.463   8.347   6.119
70239W        W74307  15.172   8.940   5.326
70240W        W74308  15.466   9.879   4.975
70241W        W74309  17.229   8.499   4.940
70242W        W74310  16.252   7.878   5.636
70243W        W74311  18.214   9.789   6.147
70244W        W74312  18.132   7.776   5.708
70245W        W74313  14.671  10.606   5.084
70246W        W74314  15.180   9.793   4.620
70247W        W74315  15.095   7.410   7.173
70248W        W74316  16.214  10.263   7.275
70249W        W74317  17.969   9.231   5.065
70250W        W74318  17.323   9.408   3.945
70251W        W74319  16.618  10.929   6.157
70252W        W74320  17.475   9.651   7.194
70253W        W74321  16.290   7.361   4.474
70254W        W74322  17.003   8.230   5.333
70255W        W74323  14.689   9.817   5.665
70256W        W74324  15.942   7.779   4.306
70257W        W74325  15.746   9.263   7.155
70258W        W74326  16.740   8.244   4.869
70259W        W74327  16.945   9.654   5.991
70260W        W74328  15.099  10.259   6.426
70261W        W74329  15.690  10.242   7.149
70262W        W74330  15.541   8.039   4.163
70263W        W74331  17.058   8.181   4.488
70264W        W74332  17.016  10.289   6.725
70265W        W74333  15.701   8.881   5.324
70266W        W74334  15.356  10.579   6.189
70267W        W74335  18.101  10.696   3.790
70268W        W74336  14.964   9.368   6.786
70269W        W74337  16.959   9.630   5.474
70270W        W74338  15.395   9.279   4.716
70271W        W74339  15.766  10.286   6.111
70272W        W74340  16.144   7.705   5.152
70273W        W74341  14.755   9.689   4.082
70274W        W74342  16.274   8.640   3.952
70275W        W74343  14.920   9.189   4.971
70276W        W74344  16.210   7.831   6.435
70277W        W74345  17.882   7.540   3.862
70278W        W74346  17.975   9.286   6.961
70279W        W74347  16.629  10.543   7.113
70280W        W74348  18.187   9.637   6.635
70281W        W74349  17.595  10.435   7.246
70282W        W74350  15.334  10.891   5.724
70283W        W74351  18.193   9.513   4.598
70284W        W74352  16.723   8.780   5.111
70285W        W74353  16.490   7.392   5.001
70286W        W74354  15.549  10.376   4.838
70287W        W74355  16.048   8.117   6.063
70288W        W74356  15.748   7.486   5.532
70289W        W74357  14.811  10.308   4.080
70290W        W74358  16.627   9.672   4.798
70291W        W74359  15.502  10.467   6.677
70292W        W74360  14.979   9.290   4.373
70293W        W74361  14.864   7.833   5.372
70294W        W74362  16.412   9.798   5.429
70295W        W74363  14.664   7.652   4.449
70296W        W74364  17.328   8.858   6.376
70297W        W74365  17.205   8.244   3.948
70298W        W74366  17.722   9.916   5.596
70299W        W74367  16.383  10.400   5.427
70300W        W74368  15.795  10.504   4.338
70301W        W74369  17.077   7.407   3.768
70302W        W74370  14.877  10.667   5.509
70303W        W74371  17.074   8.425   7.144
70304W        W74372  15.057   7.955   7.143
70305W        W74373  14.788   8.555   4.476
70306W        W74374  15.479   8.544   4.201
70307W        W74375  17.242   8.871   7.018
70308W        W74376  15.585   9.152   5.727
70309W        W74377  17.059   7.438   4.847
70310W        W74378  16.190  10.869   5.350
70311W        W74379  17.404  10.331   6.287
70312W        W74380  16.988  10.480   5.398
70313W        W74381  17.007   9.460   4.992
70314W        W74382  16.469   7.685   4.063
70315W        W74383  18.150   7.313   4.785
70316W        W74384  15.838   8.948   3.948
70317W        W74385  18.004   8.285   4.938
70318W        W74386  16.696   9.455   3.815
70319W        W74387  17.632   9.655   6.563
70320W        W74388  17.286  10.356   4.030
70321W        W74389  15.901   8.031   6.936
70322W        W74390  15.721   8.615   6.177
70323W        W74391  17.813  10.110   6.454
70324W        W74392  16.913   8.060   6.831
70325W        W74393  14.757   8.531   6.608
70326W        W74394  16.517   9.008   6.334
70327W        W74395  14.874   9.766   4.991
70328W        W74396  15.021   9.063   5.881
70329W        W74397  17.338   9.349   6.231
70330W        W74398  17.110  10.729   7.042
70331W        W74399  17.006   8.468   6.595
70332W        W74400  17.283  10.522   5.000
70333W        W74401  16.285  10.242   6.323
70334W        W74402  15.770  10.597   5.592
70335W        W74403  17.575   9.768   6.011
70336W        W74404  16.625   9.840   7.148
70337W        W74405  15.230   9.793   5.487
70338W        W74406  17.576   9.552   5.132
70339W        W74407  17.217  10.618   5.883
70340W        W74408  15.195  10.347   5.753
70341W        W74409  16.216   8.399   6.963
70342W        W74410  16.667  10.565   4.474
70343W        W74411  15.975   9.820   7.112
70344W        W74412  16.101  10.058   4.489
70345W        W74413  15.322   8.798   3.748
70346W        W74414  14.661  10.884  10.648
70347W        W74415  15.037   9.777  10.171
70348W        W74416  17.742   9.507   7.941
70349W        W74417  17.872  10.592   9.968
70350W        W74418  15.790  10.583   7.494
70351W        W74419  15.873   8.735   8.477
70352W        W74420  15.388   8.583   8.641
70353W        W74421  16.379   9.398   8.075
70354W        W74422  16.054  10.490  10.430
70355W        W74423  14.703   8.051  10.393
70356W        W74424  15.465   7.331  10.195
70357W        W74425  17.159   7.719   9.082
70358W        W74426  16.808   8.590   7.652
70359W        W74427  17.378   8.024  10.743
70360W        W74428  14.744   7.816   9.868
70361W        W74429  14.843  10.435  10.889
70362W        W74430  16.365   9.825   7.621
70363W        W74431  14.797   8.608   9.314
70364W        W74432  15.690   8.499  10.551
70365W        W74433  18.149   8.358   9.050
70366W        W74434  17.913   9.401   9.909
70367W        W74435  16.221   8.734   8.936
70368W        W74436  16.767  10.073   9.305
70369W        W74437  15.267   9.507   9.537
70370W        W74438  14.626   9.035   9.108
70371W        W74439  15.662   9.007  10.300
70372W        W74440  17.933   8.790  10.554
70373W        W74441  15.549  10.234   8.999
70374W        W74442  16.670   9.923  10.133
70375W        W74443  15.890   8.563   9.358
70376W        W74444  16.182   9.347   9.001
70377W        W74445  17.179  10.120  10.849
70378W        W74446  16.258   9.440  10.859
70379W        W74447  16.239   9.156  10.337
70380W        W74448  14.648   8.547  10.859
70381W        W74449  17.480  10.082  10.458
70382W        W74450  15.061   7.664   8.456
70383W        W74451  15.588   9.922   9.455
70384W        W74452  18.051   9.705   8.745
70385W        W74453  17.464   8.105   9.312
70386W        W74454  17.749   8.058   7.407
70387W        W74455  18.214   8.859   9.713
70388W        W74456  16.181  10.566   9.466
70389W        W74457  17.955  10.032   7.904
70390W        W74458  15.084  10.818   7.658
70391W        W74459  15.477  10.864   8.334
70392W        W74460  15.274   7.618   9.760
70393W        W74461  17.897   8.636  10.035
70394W        W74462  17.302   9.058   8.494
70395W        W74463  17.268   8.746   7.521
70396W        W74464  16.476   9.890   9.661
70397W        W74465  16.282   8.220   8.860
70398W        W74466  16.882  10.307   9.854
70399W        W74467  17.753   9.098   8.276
70400W        W74468  16.655   7.756   8.292
70401W        W74469  15.312  10.450   7.975
70402W        W74470  14.683   7.949   8.574
70403W        W74471  17.469   8.556   9.048
70404W        W74472  14.927  10.173   8.963
70405W        W74473  16.268  10.523   7.833
70406W        W74474  17.660   8.549   7.297
70407W        W74475  14.683  10.307   9.461
70408W        W74476  15.474   9.879   9.941
70409W        W74477  15.847   9.239   8.560
70410W        W74478  15.869   7.644   9.653
70411W        W74479  18.098   7.406   8.950
70412W        W74480  15.317   9.278   7.418
70413W        W74481  14.972   8.311   7.597
70414W        W74482  15.034  10.267   8.391
70415W        W74483  16.165   9.750   8.639
70416W        W74484  17.497  10.609  10.353
70417W        W74485  16.423   8.251   8.037
70418W        W74486  17.806  10.649   8.809
70419W        W74487  17.483   8.502  10.407
70420W        W74488  18.196  10.158   8.541
70421W        W74489  16.823   9.450  10.025
70422W        W74490  14.589   9.001   8.231
70423W        W74491  15.700   9.416   9.804
70424W        W74492  16.904   8.680   8.182
70425W        W74493  16.781   9.170   8.286
70426W        W74494  15.124   8.590   9.760
70427W        W74495  15.109   8.466  10.682
70428W        W74496  14.999   7.383   8.841
70429W        W74497  16.767   7.730   9.402
70430W        W74498  16.415   7.915  10.565
70431W        W74499  16.770   8.064   7.743
70432W        W74500  17.953  10.457  10.497
70433W        W74501  16.920   7.538  10.536
70434W        W74502  17.939   9.839  10.658
70435W        W74503  17.369   8.006  10.254
70436W        W74504  17.169   7.944   8.524
70437W        W74505  17.562   9.078  10.928
70438W        W74506  15.302  10.654   8.914
70439W        W74507  15.960   8.371   7.900
70440W        W74508  15.529   7.655  10.564
70441W        W74509  17.581   8.139   8.245
70442W        W74510  17.948   8.621   8.190
70443W        W74511  15.691  10.838  10.661
70444W        W74512  15.617   7.374   7.896
70445W        W74513  17.938   7.908   8.931
70446W        W74514  18.088  10.157   7.376
70447W        W74515  14.995   9.360   9.078
70448W        W74516  16.912   7.947   7.308
70449W        W74517  18.046  10.279   9.028
70450W        W74518  18.085   7.473   9.778
70451W        W74519  16.530   8.685  10.332
70452W        W74520  16.623  10.024   8.035
70453W        W74521  17.023   9.318  10.775
70454W        W74522  16.697   7.295   9.084
70455W        W74523  15.309   8.198   9.147
70456W        W74524  14.863   9.398   9.921
70457W        W74525  16.722  10.591   8.627
70458W        W74526  17.916   8.188   9.499
70459W        W74527  16.553  10.535  10.266
70460W        W74528  17.896   9.594   7.471
70461W        W74529  16.331   9.077   8.532
70462W        W74530  18.183   7.588  10.273
70463W        W74531  16.332   9.423   9.867
70464W        W74532  16.549   8.309   9.312
70465W        W74533  17.401   8.607   8.150
70466W        W74534  17.688   8.340   7.792
70467W        W74535  17.497  10.380   8.181
70468W        W74536  17.331   9.983   8.977
70469W        W74537  17.227   9.062   7.955
70470W        W74538  16.660   9.272   8.941
70471W        W74539  17.541   9.060   9.008
70472W        W74540  14.916   8.075   9.432
70473W        W74541  17.694   9.127  10.259
70474W        W74542  18.045  10.745   9.405
70475W        W74543  15.975  10.189   8.807
70476W        W74544  16.982  10.722  10.131
70477W        W74545  16.976   8.052   9.895
70478W        W74546  16.183  10.760   9.956
70479W        W74547  17.880   7.714   8.422
70480W        W74548  17.671   9.033   9.723
70481W        W74549  14.654   8.354   9.761
70482W        W74550  17.514   8.149   8.779
70483W        W74551  17.925   8.300  10.556
70484W        W74552  16.810   9.999   8.774
70485W        W74553  16.066  10.590   8.387
70486W        W74554  15.181   7.770   7.645
70487W        W74555  16.285   7.424   9.455
70488W        W74556  15.313  10.544   7.303
70489W        W74557  15.687   9.010   8.054
70490W        W74558  16.341   9.639  10.367
70491W        W74559  16.171   7.997   8.357
70492W        W74560  17.527   7.594   8.785
70493W        W74561  17.247  10.876   9.113
70494W        W74562  16.659  10.524   9.453
70495W        W74563  16.055   9.561   9.414
70496W        W74564  17.825  10.284   9.540
70497W        W74565  15.519   7.787   8.309
70498W        W74566  16.041  10.084   9.269
70499W        W74567  15.524   8.015   7.334
70500W        W74568  16.325   8.624   9.728
70501W        W74569  17.173   7.490   9.598
70502W        W74570  14.593   9.333   9.483
70503W        W74571  16.297   9.151   7.641
70504W        W74572  15.565   7.466   7.411
70505W        W74573  16.303   8.547   8.462
70506W        W74574  17.273   7.523  10.161
70507W        W74575  15.861   9.535  10.270
70508W        W74576  16.665   9.317  10.487
70509W        W74577  17.282   9.347  10.380
70510W        W74578  16.566   7.487  10.885
70511W        W74579  15.788   8.103   9.278
70512W        W74580  15.214   8.059   8.676
70513W        W74581  15.000  10.771   8.352
70514W        W74582  16.332  10.101  10.477
70515W        W74583  15.367   9.586   7.836
70516W        W74584  17.047   8.971   9.057
70517W        W74585  17.327   8.770   9.456
70518W        W74586  16.532   9.444   9.390
70519W        W74587  17.002   9.818   7.522
70520W        W74588  16.674   7.839   8.850
70521W        W74589  18.153   8.117   8.118
70522W        W74590  14.647  10.706  10.149
70523W        W74591  15.064   9.932   9.681
70524W        W74592  14.631  10.778   7.913
70525W        W74593  16.530   8.048   9.719
70526W        W74594  15.893  10.071   7.568
70527W        W74595  17.798  10.453   7.754
70528W        W74596  16.773   9.106   7.768
70529W        W74597  15.616   8.297   8.285
70530W        W74598  16.448   8.207   7.337
70531W        W74599  17.032   9.772  10.515
70532W        W74600  17.385   7.678   8.132
70533W        W74601  14.715   7.526   7.580
70534W        W74602  16.001   9.845   9.870
70535W        W74603  15.800   9.761   8.962
70536W        W74604  15.542   9.713   7.360
70537W        W74605  14.783   9.954   8.128
70538W        W74606  15.287   9.024  10.570
70539W        W74607  15.991   7.584  10.756
70540W        W74608  16.700   7.726  10.112
70541W        W74609  15.895   7.494   8.393
70542W        W74610  16.954   7.571   7.898
70543W        W74611  14.899   7.503   9.475
70544W        W74612  14.947   8.466   8.845
70545W        W74613  17.636   7.574   9.251
70546W        W74614  15.058   8.072   8.065
70547W        W74615  17.629   7.760   9.681
70548W        W74616  18.025   8.963   7.366
70549W        W74617  15.317   7.721   9.185
70550W        W74618  16.431   8.293  10.125
70551W        W74619  14.579   7.983   7.603
70552W        W74620  15.365   9.372  10.164
70553W        W74621  16.723   8.770   9.343
70554W        W74622  16.590  10.849   7.639
70555W        W74623  14.736   9.356   7.336
70556W        W74624  15.471   9.767  10.462
70557W        W74625  14.992   8.934  10.093
70558W        W74626  15.983   9.039   9.887
70559W        W74627  17.751   7.398  10.149
70560W        W74628  18.149   9.008  10.140
70561W        W74629  18.137   9.208   7.826
70562W        W74630  17.000   9.540   7.925
70563W        W74631  17.474  10.840   7.620
70564W        W74632  16.651   8.830  10.762
70565W        W74633  14.981   9.797  10.802
70566W        W74634  18.187   7.719  10.754
70567W        W74635  17.905   8.647   9.375
70568W        W74636  16.213  10.777  10.852
70569W        W74637  16.068   7.406   7.579
70570W        W74638  17.607  10.005   7.522
70571W        W74639  15.376   8.098  10.408
70572W        W74640  15.810  10.092  10.270
70573W        W74641  17.936   8.083  10.068
70574W        W74642  17.147  10.742   8.036
70575W        W74643  17.386   9.361   9.403
70576W        W74644  15.636   7.777  10.070
70577W        W74645  16.105   8.846  10.827
70578W        W74646  15.608  10.025   8.021
70579W        W74647  17.363   9.523   8.285
70580W        W74648  15.131   8.149  10.009
70581W        W74649  16.460  10.211   8.473
70582W        W74650  18.210   8.771   8.654
70583W        W74651  16.432   7.404  10.373
70584W        W74652  17.212  10.109   9.452
70585W        W74653  17.515  10.453   9.160
70586W        W74654  16.734  10.255   7.588
70587W        W74655  14.744  10.147  10.430
70588W        W74656  15.487   8.139   9.668
70589W        W74657  15.457   7.487   8.778
70590W        W74658  17.078   8.329   9.470
70591W        W74659  15.876   9.500   7.670
70592W        W74660  17.874   9.442   9.169
70593W        W74661  15.201  10.200  10.592
70594W        W74662  17.588  10.882   8.389
70595W        W74663  15.687   7.902   8.834
70596W        W74664  15.456   9.395   8.924
70597W        W74665  15.769  10.806   9.674
70598W        W74666  17.836  10.902  10.706
70599W        W74667  16.995   9.090   9.639
70600W        W74668  14.844   8.888   7.554
70601W        W74669  17.978  10.546   8.251
70602W        W74670  17.815   7.870   7.870
70603W        W74671  15.954   7.389  10.273
70604W        W74672  17.660  10.191   8.731
70605W        W74673  17.689   8.747   8.636
70606W        W74674  15.806   8.420   8.852
70607W        W74675  16.051   8.682  10.176
70608W        W74676  17.162   9.835  10.039
70609W        W74677  15.812   8.289  10.151
70610W        W74678  15.791  10.755   8.767
70611W        W74679  15.108  10.714  10.401
70612W        W74680  15.220  10.075   7.531
70613W        W74681  17.737   9.833   8.341
70614W        W74682  15.341   8.625  10.227
70615W        W74683  18.114   8.555   7.708
70616W        W74684  15.859   9.612   8.179
70617W        W74685  16.958   8.994  10.260
70618W        W74686  16.849   8.622   9.804
70619W        W74687  15.409   8.994   9.833
70620W        W74688  17.619  10.882   9.662
70621W        W74689  17.410   7.516  10.656
70622W        W74690  15.074   7.666  10.243
70623W        W74691  15.413   8.689   9.296
70624W        W74692  15.782   8.503   7.418
70625W        W74693  14.585  10.262   9.963
70626W        W74694  16.170   8.971   9.406
70627W        W74695  15.993   7.996   7.511
70628W        W74696  15.128   8.812   8.292
70629W        W74697  14.899  10.664   9.729
70630W        W74698  17.694   8.890   7.837
70631W        W74699  17.789   7.806  10.523
70632W        W74700  17.225  10.015   8.486
70633W        W74701  14.823   8.939  10.663
70634W        W74702  17.789   7.403   7.959
70635W        W74703  17.309   9.878   7.970
70636W        W74704  16.211   8.936   8.055
70637W        W74705  17.398   7.740   7.578
70638W        W74706  17.463   8.347   9.764
70639W        W74707  15.172   8.940   8.971
70640W        W74708  15.466   9.879   8.620
70641W        W74709  17.229   8.499   8.585
70642W        W74710  16.252   7.878   9.281
70643W        W74711  18.214   9.789   9.792
70644W        W74712  18.132   7.776   9.353
70645W        W74713  14.671  10.606   8.729
70646W        W74714  15.180   9.793   8.265
70647W        W74715  15.095   7.410  10.818
70648W        W74716  16.214  10.263  10.920
70649W        W74717  17.969   9.231   8.710
70650W        W74718  17.323   9.408   7.590
70651W        W74719  16.618  10.929   9.802
70652W        W74720  17.475   9.651  10.839
70653W        W74721  16.290   7.361   8.119
70654W        W74722  17.003   8.230   8.978
70655W        W74723  14.689   9.817   9.310
70656W        W74724  15.942   7.779   7.951
70657W        W74725  15.746   9.263  10.800
70658W        W74726  16.740   8.244   8.514
70659W        W74727  16.945   9.654   9.636
70660W        W74728  15.099  10.259  10.071
70661W        W74729  15.690  10.242  10.794
70662W        W74730  15.541   8.039   7.808
70663W        W74731  17.058   8.181   8.133
70664W        W74732  17.016  10.289  10.370
70665W        W74733  15.701   8.881   8.969
70666W        W74734  15.356  10.579   9.834
70667W        W74735  18.101  10.696   7.435
70668W        W74736  14.964   9.368  10.431
70669W        W74737  16.959   9.630   9.119
70670W        W74738  15.395   9.279   8.361
70671W        W74739  15.766  10.286   9.756
70672W        W74740  16.144   7.705   8.797
70673W        W74741  14.755   9.689   7.727
70674W        W74742  16.274   8.640   7.597
70675W        W74743  14.920   9.189   8.616
70676W        W74744  16.210   7.831  10.080
70677W        W74745  17.882   7.540   7.507
70678W        W74746  17.975   9.286  10.606
70679W        W74747  16.629  10.543  10.758
70680W        W74748  18.187   9.637  10.280
70681W        W74749  17.595  10.435  10.891
70682W        W74750  15.334  10.891   9.369
70683W        W74751  18.193   9.513   8.243
70684W        W74752  16.723   8.780   8.756
70685W        W74753  16.490   7.392   8.646
70686W        W74754  15.549  10.376   8.483
70687W        W74755  16.048   8.117   9.708
70688W        W74756  15.748   7.486   9.177
70689W        W74757  14.811  10.308   7.725
70690W        W74758  16.627   9.672   8.443
70691W        W74759  15.502  10.467  10.322
70692W        W74760  14.979   9.290   8.018
70693W        W74761  14.864   7.833   9.017
70694W        W74762  16.412   9.798   9.074
70695W        W74763  14.664   7.652   8.094
70696W        W74764  17.328   8.858  10.021
70697W        W74765  17.205   8.244   7.593
70698W        W74766  17.722   9.916   9.241
70699W        W74767  16.383  10.400   9.072
70700W        W74768  15.795  10.504   7.983
70701W        W74769  17.077   7.407   7.413
70702W        W74770  14.877  10.667   9.154
70703W        W74771  17.074   8.425  10.789
70704W        W74772  15.057   7.955  10.788
70705W        W74773  14.788   8.555   8.121
70706W        W74774  15.479   8.544   7.846
70707W        W74775  17.242   8.871  10.663
70708W        W74776  15.585   9.152   9.372
70709W        W74777  17.059   7.438   8.492
70710W        W74778  16.190  10.869   8.995
70711W        W74779  17.404  10.331   9.932
70712W        W74780  16.988  10.480   9.043
70713W        W74781  17.007   9.460   8.637
70714W        W74782  16.469   7.685   7.708
70715W        W74783  18.150   7.313   8.430
70716W        W74784  15.838   8.948   7.593
70717W        W74785  18.004   8.285   8.583
70718W        W74786  16.696   9.455   7.460
70719W        W74787  17.632   9.655  10.208
70720W        W74788  17.286  10.356   7.675
70721W        W74789  15.901   8.031  10.581
70722W        W74790  15.721   8.615   9.822
70723W        W74791  17.813  10.110  10.099
70724W        W74792  16.913   8.060  10.476
70725W        W74793  14.757   8.531  10.253
70726W        W74794  16.517   9.008   9.979
70727W        W74795  14.874   9.766   8.636
70728W        W74796  15.021   9.063   9.526
70729W        W74797  17.338   9.349   9.876
70730W        W74798  17.110  10.729  10.687
70731W        W74799  17.006   8.468  10.240
70732W        W74800  17.283  10.522   8.645
70733W        W74801  16.285  10.242   9.968
70734W        W74802  15.770  10.597   9.237
70735W        W74803  17.575   9.768   9.656
70736W        W74804  16.625   9.840  10.793
70737W        W74805  15.230   9.793   9.132
70738W        W74806  17.576   9.552   8.777
70739W        W74807  17.217  10.618   9.528
70740W        W74808  15.195  10.347   9.398
70741W        W74809  16.216   8.399  10.608
70742W        W74810  16.667  10.565   8.119
70743W        W74811  15.975   9.820  10.757
70744W        W74812  16.101  10.058   8.134
70745W        W74813  15.322   8.798   7.393
70746W        W74814  14.661  10.884  14.292
70747W        W74815  15.037   9.777  13.815
70748W        W74816  17.742   9.507  11.585
70749W        W74817  17.872  10.592  13.612
70750W        W74818  15.790  10.583  11.138
70751W        W74819  15.873   8.735  12.121
70752W        W74820  15.388   8.583  12.285
70753W        W74821  16.379   9.398  11.719
70754W        W74822  16.054  10.490  14.074
70755W        W74823  14.703   8.051  14.037
70756W        W74824  15.465   7.331  13.839
70757W        W74825  17.159   7.719  12.726
70758W        W74826  16.808   8.590  11.296
70759W        W74827  17.378   8.024  14.387
70760W        W74828  14.744   7.816  13.512
70761W        W74829  14.843  10.435  14.533
70762W        W74830  16.365   9.825  11.265
70763W        W74831  14.797   8.608  12.958
70764W        W74832  15.690   8.499  14.195
70765W        W74833  18.149   8.358  12.694
70766W        W74834  17.913   9.401  13.553
70767W        W74835  16.221   8.734  12.580
70768W        W74836  16.767  10.073  12.949
70769W        W74837  15.267   9.507  13.181
70770W        W74838  14.626   9.035  12.752
70771W        W74839  15.662   9.007  13.944
70772W        W74840  17.933   8.790  14.198
70773W        W74841  15.549  10.234  12.643
70774W        W74842  16.670   9.923  13.777
70775W        W74843  15.890   8.563  13.002
70776W        W74844  16.182   9.347  12.645
70777W        W74845  17.179  10.120  14.493
70778W        W74846  16.258   9.440  14.503
70779W        W74847  16.239   9.156  13.981
70780W        W74848  14.648   8.547  14.503
70781W        W74849  17.480  10.082  14.102
70782W        W74850  15.061   7.664  12.100
70783W        W74851  15.588   9.922  13.099
70784W        W74852  18.051   9.705  12.389
70785W        W74853  17.464   8.105  12.956
70786W        W74854  17.749   8.058  11.051
70787W        W74855  18.214   8.859  13.357
70788W        W74856  16.181  10.566  13.110
70789W        W74857  17.955  10.032  11.548
70790W        W74858  15.084  10.818  11.302
70791W        W74859  15.477  10.864  11.978
70792W        W74860  15.274   7.618  13.404
70793W        W74861  17.897   8.636  13.679
70794W        W74862  17.302   9.058  12.138
70795W        W74863  17.268   8.746  11.165
70796W        W74864  16.476   9.890  13.305
70797W        W74865  16.282   8.220  12.504
70798W        W74866  16.882  10.307  13.498
70799W        W74867  17.753   9.098  11.920
70800W        W74868  16.655   7.756  11.936
70801W        W74869  15.312  10.450  11.619
70802W        W74870  14.683   7.949  12.218
70803W        W74871  17.469   8.556  12.692
70804W        W74872  14.927  10.173  12.607
70805W        W74873  16.268  10.523  11.477
70806W        W74874  17.660   8.549  10.941
70807W        W74875  14.683  10.307  13.105
70808W        W74876  15.474   9.879  13.585
70809W        W74877  15.847   9.239  12.204
70810W        W74878  15.869   7.644  13.297
70811W        W74879  18.098   7.406  12.594
70812W        W74880  15.317   9.278  11.062
70813W        W74881  14.972   8.311  11.241
70814W        W74882  15.034  10.267  12.035
70815W        W74883  16.165   9.750  12.283
70816W        W74884  17.497  10.609  13.997
70817W        W74885  16.423   8.251  11.681
70818W        W74886  17.806  10.649  12.453
70819W        W74887  17.483   8.502  14.051
70820W        W74888  18.196  10.158  12.185
70821W        W74889  16.823   9.450  13.669
70822W        W74890  14.589   9.001  11.875
70823W        W74891  15.700   9.416  13.448
70824W        W74892  16.904   8.680  11.826
70825W        W74893  16.781   9.170  11.930
70826W        W74894  15.124   8.590  13.404
70827W        W74895  15.109   8.466  14.326
70828W        W74896  14.999   7.383  12.485
70829W        W74897  16.767   7.730  13.046
70830W        W74898  16.415   7.915  14.209
70831W        W74899  16.770   8.064  11.387
70832W        W74900  17.953  10.457  14.141
70833W        W74901  16.920   7.538  14.180
70834W        W74902  17.939   9.839  14.302
70835W        W74903  17.369   8.006  13.898
70836W        W74904  17.169   7.944  12.168
70837W        W74905  17.562   9.078  14.572
70838W        W74906  15.302  10.654  12.558
70839W        W74907  15.960   8.371  11.544
70840W        W74908  15.529   7.655  14.208
70841W        W74909  17.581   8.139  11.889
70842W        W74910  17.948   8.621  11.834
70843W        W74911  15.691  10.838  14.305
70844W        W74912  15.617   7.374  11.540
70845W        W74913  17.938   7.908  12.575
70846W        W74914  18.088  10.157  11.020
70847W        W74915  14.995   9.360  12.722
70848W        W74916  16.912   7.947  10.952
70849W        W74917  18.046  10.279  12.672
70850W        W74918  18.085   7.473  13.422
70851W        W74919  16.530   8.685  13.976
70852W        W74920  16.623  10.024  11.679
70853W        W74921  17.023   9.318  14.419
70854W        W74922  16.697   7.295  12.728
70855W        W74923  15.309   8.198  12.791
70856W        W74924  14.863   9.398  13.565
70857W        W74925  16.722  10.591  12.271
70858W        W74926  17.916   8.188  13.143
70859W        W74927  16.553  10.535  13.910
70860W        W74928  17.896   9.594  11.115
70861W        W74929  16.331   9.077  12.176
70862W        W74930  18.183   7.588  13.917
70863W        W74931  16.332   9.423  13.511
70864W        W74932  16.549   8.309  12.956
70865W        W74933  17.401   8.607  11.794
70866W        W74934  17.688   8.340  11.436
70867W        W74935  17.497  10.380  11.825
70868W        W74936  17.331   9.983  12.621
70869W        W74937  17.227   9.062  11.599
70870W        W74938  16.660   9.272  12.585
70871W        W74939  17.541   9.060  12.652
70872W        W74940  14.916   8.075  13.076
70873W        W74941  17.694   9.127  13.903
70874W        W74942  18.045  10.745  13.049
70875W        W74943  15.975  10.189  12.451
70876W        W74944  16.982  10.722  13.775
70877W        W74945  16.976   8.052  13.539
70878W        W74946  16.183  10.760  13.600
70879W        W74947  17.880   7.714  12.066
70880W        W74948  17.671   9.033  13.367
70881W        W74949  14.654   8.354  13.405
70882W        W74950  17.514   8.149  12.423
70883W        W74951  17.925   8.300  14.200
70884W        W74952  16.810   9.999  12.418
70885W        W74953  16.066  10.590  12.031
70886W        W74954  15.181   7.770  11.289
70887W        W74955  16.285   7.424  13.099
70888W        W74956  15.313  10.544  10.947
70889W        W74957  15.687   9.010  11.698
70890W        W74958  16.341   9.639  14.011
70891W        W74959  16.171   7.997  12.001
70892W        W74960  17.527   7.594  12.429
70893W        W74961  17.247  10.876  12.757
70894W        W74962  16.659  10.524  13.097
70895W        W74963  16.055   9.561  13.058
70896W        W74964  17.825  10.284  13.184
70897W        W74965  15.519   7.787  11.953
70898W        W74966  16.041  10.084  12.913
70899W        W74967  15.524   8.015  10.978
70900W        W74968  16.325   8.624  13.372
70901W        W74969  17.173   7.490  13.242
70902W        W74970  14.593   9.333  13.127
70903W        W74971  16.297   9.151  11.285
70904W        W74972  15.565   7.466  11.055
70905W        W74973  16.303   8.547  12.106
70906W        W74974  17.273   7.523  13.805
70907W        W74975  15.861   9.535  13.914
70908W        W74976  16.665   9.317  14.131
70909W        W74977  17.282   9.347  14.024
70910W        W74978  16.566   7.487  14.529
70911W        W74979  15.788   8.103  12.922
70912W        W74980  15.214   8.059  12.320
70913W        W74981  15.000  10.771  11.996
70914W        W74982  16.332  10.101  14.121
70915W        W74983  15.367   9.586  11.480
70916W        W74984  17.047   8.971  12.701
70917W        W74985  17.327   8.770  13.100
70918W        W74986  16.532   9.444  13.034
70919W        W74987  17.002   9.818  11.166
70920W        W74988  16.674   7.839  12.494
70921W        W74989  18.153   8.117  11.762
70922W        W74990  14.647  10.706  13.793
70923W        W74991  15.064   9.932  13.325
70924W        W74992  14.631  10.778  11.557
70925W        W74993  16.530   8.048  13.363
70926W        W74994  15.893  10.071  11.212
70927W        W74995  17.798  10.453  11.398
70928W        W74996  16.773   9.106  11.412
70929W        W74997  15.616   8.297  11.929
70930W        W74998  16.448   8.207  10.981
70931W        W74999  17.032   9.772  14.159
70932W        W75000  17.385   7.678  11.776
70933W        W75001  14.715   7.526  11.224
70934W        W75002  16.001   9.845  13.514
70935W        W75003  15.800   9.761  12.606
70936W        W75004  15.542   9.713  11.004
70937W        W75005  14.783   9.954  11.772
70938W        W75006  15.287   9.024  14.214
70939W        W75007  15.991   7.584  14.400
70940W        W75008  16.700   7.726  13.756
70941W        W75009  15.895   7.494  12.037
70942W        W75010  16.954   7.571  11.542
70943W        W75011  14.899   7.503  13.119
70944W        W75012  14.947   8.466  12.489
70945W        W75013  17.636   7.574  12.895
70946W        W75014  15.058   8.072  11.709
70947W        W75015  17.629   7.760  13.325
70948W        W75016  18.025   8.963  11.010
70949W        W75017  15.317   7.721  12.829
70950W        W75018  16.431   8.293  13.769
70951W        W75019  14.579   7.983  11.247
70952W        W75020  15.365   9.372  13.808
70953W        W75021  16.723   8.770  12.987
70954W        W75022  16.590  10.849  11.283
70955W        W75023  14.736   9.356  10.980
70956W        W75024  15.471   9.767  14.106
70957W        W75025  14.992   8.934  13.737
70958W        W75026  15.983   9.039  13.531
70959W        W75027  17.751   7.398  13.793
70960W        W75028  18.149   9.008  13.784
70961W        W75029  18.137   9.208  11.470
70962W        W75030  17.000   9.540  11.569
70963W        W75031  17.474  10.840  11.264
70964W        W75032  16.651   8.830  14.406
70965W        W75033  14.981   9.797  14.446
70966W        W75034  18.187   7.719  14.398
70967W        W75035  17.905   8.647  13.019
70968W        W75036  16.213  10.777  14.496
70969W        W75037  16.068   7.406  11.223
70970W        W75038  17.607  10.005  11.166
70971W        W75039  15.376   8.098  14.052
70972W        W75040  15.810  10.092  13.914
70973W        W75041  17.936   8.083  13.712
70974W        W75042  17.147  10.742  11.680
70975W        W75043  17.386   9.361  13.047
70976W        W75044  15.636   7.777  13.714
70977W        W75045  16.105   8.846  14.471
70978W        W75046  15.608  10.025  11.665
70979W        W75047  17.363   9.523  11.929
70980W        W75048  15.131   8.149  13.653
70981W        W75049  16.460  10.211  12.117
70982W        W75050  18.210   8.771  12.298
70983W        W75051  16.432   7.404  14.017
70984W        W75052  17.212  10.109  13.096
70985W        W75053  17.515  10.453  12.804
70986W        W75054  16.734  10.255  11.232
70987W        W75055  14.744  10.147  14.074
70988W        W75056  15.487   8.139  13.312
70989W        W75057  15.457   7.487  12.422
70990W        W75058  17.078   8.329  13.114
70991W        W75059  15.876   9.500  11.314
70992W        W75060  17.874   9.442  12.813
70993W        W75061  15.201  10.200  14.236
70994W        W75062  17.588  10.882  12.033
70995W        W75063  15.687   7.902  12.478
70996W        W75064  15.456   9.395  12.568
70997W        W75065  15.769  10.806  13.318
70998W        W75066  17.836  10.902  14.350
70999W        W75067  16.995   9.090  13.283
71000W        W75068  14.844   8.888  11.198
71001W        W75069  17.978  10.546  11.895
71002W        W75070  17.815   7.870  11.514
71003W        W75071  15.954   7.389  13.917
71004W        W75072  17.660  10.191  12.375
71005W        W75073  17.689   8.747  12.280
71006W        W75074  15.806   8.420  12.496
71007W        W75075  16.051   8.682  13.820
71008W        W75076  17.162   9.835  13.683
71009W        W75077  15.812   8.289  13.795
71010W        W75078  15.791  10.755  12.411
71011W        W75079  15.108  10.714  14.045
71012W        W75080  15.220  10.075  11.175
71013W        W75081  17.737   9.833  11.985
71014W        W75082  15.341   8.625  13.871
71015W        W75083  18.114   8.555  11.352
71016W        W75084  15.859   9.612  11.823
71017W        W75085  16.958   8.994  13.904
71018W        W75086  16.849   8.622  13.448
71019W        W75087  15.409   8.994  13.477
71020W        W75088  17.619  10.882  13.306
71021W        W75089  17.410   7.516  14.300
71022W        W75090  15.074   7.666  13.887
71023W        W75091  15.413   8.689  12.940
71024W        W75092  15.782   8.503  11.062
71025W        W75093  14.585  10.262  13.607
71026W        W75094  16.170   8.971  13.050
71027W        W75095  15.993   7.996  11.155
71028W        W75096  15.128   8.812  11.936
71029W        W75097  14.899  10.664  13.373
71030W        W75098  17.694   8.890  11.481
71031W        W75099  17.789   7.806  14.167
71032W        W75100  17.225  10.015  12.130
71033W        W75101  14.823   8.939  14.307
71034W        W75102  17.789   7.403  11.603
71035W        W75103  17.309   9.878  11.614
71036W        W75104  16.211   8.936  11.699
71037W        W75105  17.398   7.740  11.222
71038W        W75106  17.463   8.347  13.408
71039W        W75107  15.172   8.940  12.615
71040W        W75108  15.466   9.879  12.264
71041W        W75109  17.229   8.499  12.229
71042W        W75110  16.252   7.878  12.925
71043W        W75111  18.214   9.789  13.436
71044W        W75112  18.132   7.776  12.997
71045W        W75113  14.671  10.606  12.373
71046W        W75114  15.180   9.793  11.909
71047W        W75115  15.095   7.410  14.462
71048W        W75116  16.214  10.263  14.564
71049W        W75117  17.969   9.231  12.354
71050W        W75118  17.323   9.408  11.234
71051W        W75119  16.618  10.929  13.446
71052W        W75120  17.475   9.651  14.483
71053W        W75121  16.290   7.361  11.763
71054W        W75122  17.003   8.230  12.622
71055W        W75123  14.689   9.817  12.954
71056W        W75124  15.942   7.779  11.595
71057W        W75125  15.746   9.263  14.444
71058W        W75126  16.740   8.244  12.158
71059W        W75127  16.945   9.654  13.280
71060W        W75128  15.099  10.259  13.715
71061W        W75129  15.690  10.242  14.438
71062W        W75130  15.541   8.039  11.452
71063W        W75131  17.058   8.181  11.777
71064W        W75132  17.016  10.289  14.014
71065W        W75133  15.701   8.881  12.613
71066W        W75134  15.356  10.579  13.478
71067W        W75135  18.101  10.696  11.079
71068W        W75136  14.964   9.368  14.075
71069W        W75137  16.959   9.630  12.763
71070W        W75138  15.395   9.279  12.005
71071W        W75139  15.766  10.286  13.400
71072W        W75140  16.144   7.705  12.441
71073W        W75141  14.755   9.689  11.371
71074W        W75142  16.274   8.640  11.241
71075W        W75143  14.920   9.189  12.260
71076W        W75144  16.210   7.831  13.724
71077W        W75145  17.882   7.540  11.151
71078W        W75146  17.975   9.286  14.250
71079W        W75147  16.629  10.543  14.402
71080W        W75148  18.187   9.637  13.924
71081W        W75149  17.595  10.435  14.535
71082W        W75150  15.334  10.891  13.013
71083W        W75151  18.193   9.513  11.887
71084W        W75152  16.723   8.780  12.400
71085W        W75153  16.490   7.392  12.290
71086W        W75154  15.549  10.376  12.127
71087W        W75155  16.048   8.117  13.352
71088W        W75156  15.748   7.486  12.821
71089W        W75157  14.811  10.308  11.369
71090W        W75158  16.627   9.672  12.087
71091W        W75159  15.502  10.467  13.966
71092W        W75160  14.979   9.290  11.662
71093W        W75161  14.864   7.833  12.661
71094W        W75162  16.412   9.798  12.718
71095W        W75163  14.664   7.652  11.738
71096W        W75164  17.328   8.858  13.665
71097W        W75165  17.205   8.244  11.237
71098W        W75166  17.722   9.916  12.885
71099W        W75167  16.383  10.400  12.716
71100W        W75168  15.795  10.504  11.627
71101W        W75169  17.077   7.407  11.057
71102W        W75170  14.877  10.667  12.798
71103W        W75171  17.074   8.425  14.433
71104W        W75172  15.057   7.955  14.432
71105W        W75173  14.788   8.555  11.765
71106W        W75174  15.479   8.544  11.490
71107W        W75175  17.242   8.871  14.307
71108W        W75176  15.585   9.152  13.016
71109W        W75177  17.059   7.438  12.136
71110W        W75178  16.190  10.869  12.639
71111W        W75179  17.404  10.331  13.576
71112W        W75180  16.988  10.480  12.687
71113W        W75181  17.007   9.460  12.281
71114W        W75182  16.469   7.685  11.352
71115W        W75183  18.150   7.313  12.074
71116W        W75184  15.838   8.948  11.237
71117W        W75185  18.004   8.285  12.227
71118W        W75186  16.696   9.455  11.104
71119W        W75187  17.632   9.655  13.852
71120W        W75188  17.286  10.356  11.319
71121W        W75189  15.901   8.031  14.225
71122W        W75190  15.721   8.615  13.466
71123W        W75191  17.813  10.110  13.743
71124W        W75192  16.913   8.060  14.120
71125W        W75193  14.757   8.531  13.897
71126W        W75194  16.517   9.008  13.623
71127W        W75195  14.874   9.766  12.280
71128W        W75196  15.021   9.063  13.170
71129W        W75197  17.338   9.349  13.520
71130W        W75198  17.110  10.729  14.331
71131W        W75199  17.006   8.468  13.884
71132W        W75200  17.283  10.522  12.289
71133W        W75201  16.285  10.242  13.612
71134W        W75202  15.770  10.597  12.881
71135W        W75203  17.575   9.768  13.300
71136W        W75204  16.625   9.840  14.437
71137W        W75205  15.230   9.793  12.776
71138W        W75206  17.576   9.552  12.421
71139W        W75207  17.217  10.618  13.172
71140W        W75208  15.195  10.347  13.042
71141W        W75209  16.216   8.399  14.252
71142W        W75210  16.667  10.565  11.763
71143W        W75211  15.975   9.820  14.401
71144W        W75212  16.101  10.058  11.778
71145W        W75213  15.322   8.798  11.037
71146W        W75214  14.661  10.884  17.936
71147W        W75215  15.037   9.777  17.459
71148W        W75216  17.742   9.507  15.229
71149W        W75217  17.872  10.592  17.256
71150W        W75218  15.790  10.583  14.782
71151W        W75219  15.873   8.735  15.765
71152W        W75220  15.388   8.583  15.929
71153W        W75221  16.379   9.398  15.363
71154W        W75222  16.054  10.490  17.718
71155W        W75223  14.703   8.051  17.681
71156W        W75224  15.465   7.331  17.483
71157W        W75225  17.159   7.719  16.370
71158W        W75226  16.808   8.590  14.940
71159W        W75227  17.378   8.024  18.031
71160W        W75228  14.744   7.816  17.156
71161W        W75229  14.843  10.435  18.177
71162W        W75230  16.365   9.825  14.909
71163W        W75231  14.797   8.608  16.602
71164W        W75232  15.690   8.499  17.839
71165W        W75233  18.149   8.358  16.338
71166W        W75234  17.913   9.401  17.197
71167W        W75235  16.221   8.734  16.224
71168W        W75236  16.767  10.073  16.593
71169W        W75237  15.267   9.507  16.825
71170W        W75238  14.626   9.035  16.396
71171W        W75239  15.662   9.007  17.588
71172W        W75240  17.933   8.790  17.842
71173W        W75241  15.549  10.234  16.287
71174W        W75242  16.670   9.923  17.421
71175W        W75243  15.890   8.563  16.646
71176W        W75244  16.182   9.347  16.289
71177W        W75245  17.179  10.120  18.137
71178W        W75246  16.258   9.440  18.147
71179W        W75247  16.239   9.156  17.625
71180W        W75248  14.648   8.547  18.147
71181W        W75249  17.480  10.082  17.746
71182W        W75250  15.061   7.664  15.744
71183W        W75251  15.588   9.922  16.743
71184W        W75252  18.051   9.705  16.033
71185W        W75253  17.464   8.105  16.600
71186W        W75254  17.749   8.058  14.695
71187W        W75255  18.214   8.859  17.001
71188W        W75256  16.181  10.566  16.754
71189W        W75257  17.955  10.032  15.192
71190W        W75258  15.084  10.818  14.946
71191W        W75259  15.477  10.864  15.622
71192W        W75260  15.274   7.618  17.048
71193W        W75261  17.897   8.636  17.323
71194W        W75262  17.302   9.058  15.782
71195W        W75263  17.268   8.746  14.809
71196W        W75264  16.476   9.890  16.949
71197W        W75265  16.282   8.220  16.148
71198W        W75266  16.882  10.307  17.142
71199W        W75267  17.753   9.098  15.564
71200W        W75268  16.655   7.756  15.580
71201W        W75269  15.312  10.450  15.263
71202W        W75270  14.683   7.949  15.862
71203W        W75271  17.469   8.556  16.336
71204W        W75272  14.927  10.173  16.251
71205W        W75273  16.268  10.523  15.121
71206W        W75274  17.660   8.549  14.585
71207W        W75275  14.683  10.307  16.749
71208W        W75276  15.474   9.879  17.229
71209W        W75277  15.847   9.239  15.848
71210W        W75278  15.869   7.644  16.941
71211W        W75279  18.098   7.406  16.238
71212W        W75280  15.317   9.278  14.706
71213W        W75281  14.972   8.311  14.885
71214W        W75282  15.034  10.267  15.679
71215W        W75283  16.165   9.750  15.927
71216W        W75284  17.497  10.609  17.641
71217W        W75285  16.423   8.251  15.325
71218W        W75286  17.806  10.649  16.097
71219W        W75287  17.483   8.502  17.695
71220W        W75288  18.196  10.158  15.829
71221W        W75289  16.823   9.450  17.313
71222W        W75290  14.589   9.001  15.519
71223W        W75291  15.700   9.416  17.092
71224W        W75292  16.904   8.680  15.470
71225W        W75293  16.781   9.170  15.574
71226W        W75294  15.124   8.590  17.048
71227W        W75295  15.109   8.466  17.970
71228W        W75296  14.999   7.383  16.129
71229W        W75297  16.767   7.730  16.690
71230W        W75298  16.415   7.915  17.853
71231W        W75299  16.770   8.064  15.031
71232W        W75300  17.953  10.457  17.785
71233W        W75301  16.920   7.538  17.824
71234W        W75302  17.939   9.839  17.946
71235W        W75303  17.369   8.006  17.542
71236W        W75304  17.169   7.944  15.812
71237W        W75305  17.562   9.078  18.216
71238W        W75306  15.302  10.654  16.202
71239W        W75307  15.960   8.371  15.188
71240W        W75308  15.529   7.655  17.852
71241W        W75309  17.581   8.139  15.533
71242W        W75310  17.948   8.621  15.478
71243W        W75311  15.691  10.838  17.949
71244W        W75312  15.617   7.374  15.184
71245W        W75313  17.938   7.908  16.219
71246W        W75314  18.088  10.157  14.664
71247W        W75315  14.995   9.360  16.366
71248W        W75316  16.912   7.947  14.596
71249W        W75317  18.046  10.279  16.316
71250W        W75318  18.085   7.473  17.066
71251W        W75319  16.530   8.685  17.620
71252W        W75320  16.623  10.024  15.323
71253W        W75321  17.023   9.318  18.063
71254W        W75322  16.697   7.295  16.372
71255W        W75323  15.309   8.198  16.435
71256W        W75324  14.863   9.398  17.209
71257W        W75325  16.722  10.591  15.915
71258W        W75326  17.916   8.188  16.787
71259W        W75327  16.553  10.535  17.554
71260W        W75328  17.896   9.594  14.759
71261W        W75329  16.331   9.077  15.820
71262W        W75330  18.183   7.588  17.561
71263W        W75331  16.332   9.423  17.155
71264W        W75332  16.549   8.309  16.600
71265W        W75333  17.401   8.607  15.438
71266W        W75334  17.688   8.340  15.080
71267W        W75335  17.497  10.380  15.469
71268W        W75336  17.331   9.983  16.265
71269W        W75337  17.227   9.062  15.243
71270W        W75338  16.660   9.272  16.229
71271W        W75339  17.541   9.060  16.296
71272W        W75340  14.916   8.075  16.720
71273W        W75341  17.694   9.127  17.547
71274W        W75342  18.045  10.745  16.693
71275W        W75343  15.975  10.189  16.095
71276W        W75344  16.982  10.722  17.419
71277W        W75345  16.976   8.052  17.183
71278W        W75346  16.183  10.760  17.244
71279W        W75347  17.880   7.714  15.710
71280W        W75348  17.671   9.033  17.011
71281W        W75349  14.654   8.354  17.049
71282W        W75350  17.514   8.149  16.067
71283W        W75351  17.925   8.300  17.844
71284W        W75352  16.810   9.999  16.062
71285W        W75353  16.066  10.590  15.675
71286W        W75354  15.181   7.770  14.933
71287W        W75355  16.285   7.424  16.743
71288W        W75356  15.313  10.544  14.591
71289W        W75357  15.687   9.010  15.342
71290W        W75358  16.341   9.639  17.655
71291W        W75359  16.171   7.997  15.645
71292W        W75360  17.527   7.594  16.073
71293W        W75361  17.247  10.876  16.401
71294W        W75362  16.659  10.524  16.741
71295W        W75363  16.055   9.561  16.702
71296W        W75364  17.825  10.284  16.828
71297W        W75365  15.519   7.787  15.597
71298W        W75366  16.041  10.084  16.557
71299W        W75367  15.524   8.015  14.622
71300W        W75368  16.325   8.624  17.016
71301W        W75369  17.173   7.490  16.886
71302W        W75370  14.593   9.333  16.771
71303W        W75371  16.297   9.151  14.929
71304W        W75372  15.565   7.466  14.699
71305W        W75373  16.303   8.547  15.750
71306W        W75374  17.273   7.523  17.449
71307W        W75375  15.861   9.535  17.558
71308W        W75376  16.665   9.317  17.775
71309W        W75377  17.282   9.347  17.668
71310W        W75378  16.566   7.487  18.173
71311W        W75379  15.788   8.103  16.566
71312W        W75380  15.214   8.059  15.964
71313W        W75381  15.000  10.771  15.640
71314W        W75382  16.332  10.101  17.765
71315W        W75383  15.367   9.586  15.124
71316W        W75384  17.047   8.971  16.345
71317W        W75385  17.327   8.770  16.744
71318W        W75386  16.532   9.444  16.678
71319W        W75387  17.002   9.818  14.810
71320W        W75388  16.674   7.839  16.138
71321W        W75389  18.153   8.117  15.406
71322W        W75390  14.647  10.706  17.437
71323W        W75391  15.064   9.932  16.969
71324W        W75392  14.631  10.778  15.201
71325W        W75393  16.530   8.048  17.007
71326W        W75394  15.893  10.071  14.856
71327W        W75395  17.798  10.453  15.042
71328W        W75396  16.773   9.106  15.056
71329W        W75397  15.616   8.297  15.573
71330W        W75398  16.448   8.207  14.625
71331W        W75399  17.032   9.772  17.803
71332W        W75400  17.385   7.678  15.420
71333W        W75401  14.715   7.526  14.868
71334W        W75402  16.001   9.845  17.158
71335W        W75403  15.800   9.761  16.250
71336W        W75404  15.542   9.713  14.648
71337W        W75405  14.783   9.954  15.416
71338W        W75406  15.287   9.024  17.858
71339W        W75407  15.991   7.584  18.044
71340W        W75408  16.700   7.726  17.400
71341W        W75409  15.895   7.494  15.681
71342W        W75410  16.954   7.571  15.186
71343W        W75411  14.899   7.503  16.763
71344W        W75412  14.947   8.466  16.133
71345W        W75413  17.636   7.574  16.539
71346W        W75414  15.058   8.072  15.353
71347W        W75415  17.629   7.760  16.969
71348W        W75416  18.025   8.963  14.654
71349W        W75417  15.317   7.721  16.473
71350W        W75418  16.431   8.293  17.413
71351W        W75419  14.579   7.983  14.891
71352W        W75420  15.365   9.372  17.452
71353W        W75421  16.723   8.770  16.631
71354W        W75422  16.590  10.849  14.927
71355W        W75423  14.736   9.356  14.624
71356W        W75424  15.471   9.767  17.750
71357W        W75425  14.992   8.934  17.381
71358W        W75426  15.983   9.039  17.175
71359W        W75427  17.751   7.398  17.437
71360W        W75428  18.149   9.008  17.428
71361W        W75429  18.137   9.208  15.114
71362W        W75430  17.000   9.540  15.213
71363W        W75431  17.474  10.840  14.908
71364W        W75432  16.651   8.830  18.050
71365W        W75433  14.981   9.797  18.090
71366W        W75434  18.187   7.719  18.042
71367W        W75435  17.905   8.647  16.663
71368W        W75436  16.213  10.777  18.140
71369W        W75437  16.068   7.406  14.867
71370W        W75438  17.607  10.005  14.810
71371W        W75439  15.376   8.098  17.696
71372W        W75440  15.810  10.092  17.558
71373W        W75441  17.936   8.083  17.356
71374W        W75442  17.147  10.742  15.324
71375W        W75443  17.386   9.361  16.691
71376W        W75444  15.636   7.777  17.358
71377W        W75445  16.105   8.846  18.115
71378W        W75446  15.608  10.025  15.309
71379W        W75447  17.363   9.523  15.573
71380W        W75448  15.131   8.149  17.297
71381W        W75449  16.460  10.211  15.761
71382W        W75450  18.210   8.771  15.942
71383W        W75451  16.432   7.404  17.661
71384W        W75452  17.212  10.109  16.740
71385W        W75453  17.515  10.453  16.448
71386W        W75454  16.734  10.255  14.876
71387W        W75455  14.744  10.147  17.718
71388W        W75456  15.487   8.139  16.956
71389W        W75457  15.457   7.487  16.066
71390W        W75458  17.078   8.329  16.758
71391W        W75459  15.876   9.500  14.958
71392W        W75460  17.874   9.442  16.457
71393W        W75461  15.201  10.200  17.880
71394W        W75462  17.588  10.882  15.677
71395W        W75463  15.687   7.902  16.122
71396W        W75464  15.456   9.395  16.212
71397W        W75465  15.769  10.806  16.962
71398W        W75466  17.836  10.902  17.994
71399W        W75467  16.995   9.090  16.927
71400W        W75468  14.844   8.888  14.842
71401W        W75469  17.978  10.546  15.539
71402W        W75470  17.815   7.870  15.158
71403W        W75471  15.954   7.389  17.561
71404W        W75472  17.660  10.191  16.019
71405W        W75473  17.689   8.747  15.924
71406W        W75474  15.806   8.420  16.140
71407W        W75475  16.051   8.682  17.464
71408W        W75476  17.162   9.835  17.327
71409W        W75477  15.812   8.289  17.439
71410W        W75478  15.791  10.755  16.055
71411W        W75479  15.108  10.714  17.689
71412W        W75480  15.220  10.075  14.819
71413W        W75481  17.737   9.833  15.629
71414W        W75482  15.341   8.625  17.515
71415W        W75483  18.114   8.555  14.996
71416W        W75484  15.859   9.612  15.467
71417W        W75485  16.958   8.994  17.548
71418W        W75486  16.849   8.622  17.092
71419W        W75487  15.409   8.994  17.121
71420W        W75488  17.619  10.882  16.950
71421W        W75489  17.410   7.516  17.944
71422W        W75490  15.074   7.666  17.531
71423W        W75491  15.413   8.689  16.584
71424W        W75492  15.782   8.503  14.706
71425W        W75493  14.585  10.262  17.251
71426W        W75494  16.170   8.971  16.694
71427W        W75495  15.993   7.996  14.799
71428W        W75496  15.128   8.812  15.580
71429W        W75497  14.899  10.664  17.017
71430W        W75498  17.694   8.890  15.125
71431W        W75499  17.789   7.806  17.811
71432W        W75500  17.225  10.015  15.774
71433W        W75501  14.823   8.939  17.951
71434W        W75502  17.789   7.403  15.247
71435W        W75503  17.309   9.878  15.258
71436W        W75504  16.211   8.936  15.343
71437W        W75505  17.398   7.740  14.866
71438W        W75506  17.463   8.347  17.052
71439W        W75507  15.172   8.940  16.259
71440W        W75508  15.466   9.879  15.908
71441W        W75509  17.229   8.499  15.873
71442W        W75510  16.252   7.878  16.569
71443W        W75511  18.214   9.789  17.080
71444W        W75512  18.132   7.776  16.641
71445W        W75513  14.671  10.606  16.017
71446W        W75514  15.180   9.793  15.553
71447W        W75515  15.095   7.410  18.106
71448W        W75516  16.214  10.263  18.208
71449W        W75517  17.969   9.231  15.998
71450W        W75518  17.323   9.408  14.878
71451W        W75519  16.618  10.929  17.090
71452W        W75520  17.475   9.651  18.127
71453W        W75521  16.290   7.361  15.407
71454W        W75522  17.003   8.230  16.266
71455W        W75523  14.689   9.817  16.598
71456W        W75524  15.942   7.779  15.239
71457W        W75525  15.746   9.263  18.088
71458W        W75526  16.740   8.244  15.802
71459W        W75527  16.945   9.654  16.924
71460W        W75528  15.099  10.259  17.359
71461W        W75529  15.690  10.242  18.082
71462W        W75530  15.541   8.039  15.096
71463W        W75531  17.058   8.181  15.421
71464W        W75532  17.016  10.289  17.658
71465W        W75533  15.701   8.881  16.257
71466W        W75534  15.356  10.579  17.122
71467W        W75535  18.101  10.696  14.723
71468W        W75536  14.964   9.368  17.719
71469W        W75537  16.959   9.630  16.407
71470W        W75538  15.395   9.279  15.649
71471W        W75539  15.766  10.286  17.044
71472W        W75540  16.144   7.705  16.085
71473W        W75541  14.755   9.689  15.015
71474W        W75542  16.274   8.640  14.885
71475W        W75543  14.920   9.189  15.904
71476W        W75544  16.210   7.831  17.368
71477W        W75545  17.882   7.540  14.795
71478W        W75546  17.975   9.286  17.894
71479W        W75547  16.629  10.543  18.046
71480W        W75548  18.187   9.637  17.568
71481W        W75549  17.595  10.435  18.179
71482W        W75550  15.334  10.891  16.657
71483W        W75551  18.193   9.513  15.531
71484W        W75552  16.723   8.780  16.044
71485W        W75553  16.490   7.392  15.934
71486W        W75554  15.549  10.376  15.771
71487W        W75555  16.048   8.117  16.996
71488W        W75556  15.748   7.486  16.465
71489W        W75557  14.811  10.308  15.013
71490W        W75558  16.627   9.672  15.731
71491W        W75559  15.502  10.467  17.610
71492W        W75560  14.979   9.290  15.306
71493W        W75561  14.864   7.833  16.305
71494W        W75562  16.412   9.798  16.362
71495W        W75563  14.664   7.652  15.382
71496W        W75564  17.328   8.858  17.309
71497W        W75565  17.205   8.244  14.881
71498W        W75566  17.722   9.916  16.529
71499W        W75567  16.383  10.400  16.360
71500W        W75568  15.795  10.504  15.271
71501W        W75569  17.077   7.407  14.701
71502W        W75570  14.877  10.667  16.442
71503W        W75571  17.074   8.425  18.077
71504W        W75572  15.057   7.955  18.076
71505W        W75573  14.788   8.555  15.409
71506W        W75574  15.479   8.544  15.134
71507W        W75575  17.242   8.871  17.951
71508W        W75576  15.585   9.152  16.660
71509W        W75577  17.059   7.438  15.780
71510W        W75578  16.190  10.869  16.283
71511W        W75579  17.404  10.331  17.220
71512W        W75580  16.988  10.480  16.331
71513W        W75581  17.007   9.460  15.925
71514W        W75582  16.469   7.685  14.996
71515W        W75583  18.150   7.313  15.718
71516W        W75584  15.838   8.948  14.881
71517W        W75585  18.004   8.285  15.871
71518W        W75586  16.696   9.455  14.748
71519W        W75587  17.632   9.655  17.496
71520W        W75588  17.286  10.356  14.963
71521W        W75589  15.901   8.031  17.869
71522W        W75590  15.721   8.615  17.110
71523W        W75591  17.813  10.110  17.387
71524W        W75592  16.913   8.060  17.764
71525W        W75593  14.757   8.531  17.541
71526W        W75594  16.517   9.008  17.267
71527W        W75595  14.874   9.766  15.924
71528W        W75596  15.021   9.063  16.814
71529W        W75597  17.338   9.349  17.164
71530W        W75598  17.110  10.729  17.975
71531W        W75599  17.006   8.468  17.528
71532W        W75600  17.283  10.522  15.933
71533W        W75601  16.285  10.242  17.256
71534W        W75602  15.770  10.597  16.525
71535W        W75603  17.575   9.768  16.944
71536W        W75604  16.625   9.840  18.081
71537W        W75605  15.230   9.793  16.420
71538W        W75606  17.576   9.552  16.065
71539W        W75607  17.217  10.618  16.816
71540W        W75608  15.195  10.347  16.686
71541W        W75609  16.216   8.399  17.896
71542W        W75610  16.667  10.565  15.407
71543W        W75611  15.975   9.820  18.045
71544W        W75612  16.101  10.058  15.422
71545W        W75613  15.322   8.798  14.681
71546W        W75614  14.661  10.884  21.580
71547W        W75615  15.037   9.777  21.103
71548W        W75616  17.742   9.507  18.873
71549W        W75617  17.872  10.592  20.900
71550W        W75618  15.790  10.583  18.426
71551W        W75619  15.873   8.735  19.409
71552W        W75620  15.388   8.583  19.573
71553W        W75621  16.379   9.398  19.007
71554W        W75622  16.054  10.490  21.362
71555W        W75623  14.703   8.051  21.325
71556W        W75624  15.465   7.331  21.127
71557W        W75625  17.159   7.719  20.014
71558W        W75626  16.808   8.590  18.584
71559W        W75627  17.378   8.024  21.675
71560W        W75628  14.744   7.816  20.800
71561W        W75629  14.843  10.435  21.821
71562W        W75630  16.365   9.825  18.553
71563W        W75631  14.797   8.608  20.246
71564W        W75632  15.690   8.499  21.483
71565W        W75633  18.149   8.358  19.982
71566W        W75634  17.913   9.401  20.841
71567W        W75635  16.221   8.734  19.868
71568W        W75636  16.767  10.073  20.237
71569W        W75637  15.267   9.507  20.469
71570W        W75638  14.626   9.035  20.040
71571W        W75639  15.662   9.007  21.232
71572W        W75640  17.933   8.790  21.486
71573W        W75641  15.549  10.234  19.931
71574W        W75642  16.670   9.923  21.065
71575W        W75643  15.890   8.563  20.290
71576W        W75644  16.182   9.347  19.933
71577W        W75645  17.179  10.120  21.781
71578W        W75646  16.258   9.440  21.791
71579W        W75647  16.239   9.156  21.269
71580W        W75648  14.648   8.547  21.791
71581W        W75649  17.480  10.082  21.390
71582W        W75650  15.061   7.664  19.388
71583W        W75651  15.588   9.922  20.387
71584W        W75652  18.051   9.705  19.677
71585W        W75653  17.464   8.105  20.244
71586W        W75654  17.749   8.058  18.339
71587W        W75655  18.214   8.859  20.645
71588W        W75656  16.181  10.566  20.398
71589W        W75657  17.955  10.032  18.836
71590W        W75658  15.084  10.818  18.590
71591W        W75659  15.477  10.864  19.266
71592W        W75660  15.274   7.618  20.692
71593W        W75661  17.897   8.636  20.967
71594W        W75662  17.302   9.058  19.426
71595W        W75663  17.268   8.746  18.453
71596W        W75664  16.476   9.890  20.593
71597W        W75665  16.282   8.220  19.792
71598W        W75666  16.882  10.307  20.786
71599W        W75667  17.753   9.098  19.208
71600W        W75668  16.655   7.756  19.224
71601W        W75669  15.312  10.450  18.907
71602W        W75670  14.683   7.949  19.506
71603W        W75671  17.469   8.556  19.980
71604W        W75672  14.927  10.173  19.895
71605W        W75673  16.268  10.523  18.765
71606W        W75674  17.660   8.549  18.229
71607W        W75675  14.683  10.307  20.393
71608W        W75676  15.474   9.879  20.873
71609W        W75677  15.847   9.239  19.492
71610W        W75678  15.869   7.644  20.585
71611W        W75679  18.098   7.406  19.882
71612W        W75680  15.317   9.278  18.350
71613W        W75681  14.972   8.311  18.529
71614W        W75682  15.034  10.267  19.323
71615W        W75683  16.165   9.750  19.571
71616W        W75684  17.497  10.609  21.285
71617W        W75685  16.423   8.251  18.969
71618W        W75686  17.806  10.649  19.741
71619W        W75687  17.483   8.502  21.339
71620W        W75688  18.196  10.158  19.473
71621W        W75689  16.823   9.450  20.957
71622W        W75690  14.589   9.001  19.163
71623W        W75691  15.700   9.416  20.736
71624W        W75692  16.904   8.680  19.114
71625W        W75693  16.781   9.170  19.218
71626W        W75694  15.124   8.590  20.692
71627W        W75695  15.109   8.466  21.614
71628W        W75696  14.999   7.383  19.773
71629W        W75697  16.767   7.730  20.334
71630W        W75698  16.415   7.915  21.497
71631W        W75699  16.770   8.064  18.675
71632W        W75700  17.953  10.457  21.429
71633W        W75701  16.920   7.538  21.468
71634W        W75702  17.939   9.839  21.590
71635W        W75703  17.369   8.006  21.186
71636W        W75704  17.169   7.944  19.456
71637W        W75705  17.562   9.078  21.860
71638W        W75706  15.302  10.654  19.846
71639W        W75707  15.960   8.371  18.832
71640W        W75708  15.529   7.655  21.496
71641W        W75709  17.581   8.139  19.177
71642W        W75710  17.948   8.621  19.122
71643W        W75711  15.691  10.838  21.593
71644W        W75712  15.617   7.374  18.828
71645W        W75713  17.938   7.908  19.863
71646W        W75714  18.088  10.157  18.308
71647W        W75715  14.995   9.360  20.010
71648W        W75716  16.912   7.947  18.240
71649W        W75717  18.046  10.279  19.960
71650W        W75718  18.085   7.473  20.710
71651W        W75719  16.530   8.685  21.264
71652W        W75720  16.623  10.024  18.967
71653W        W75721  17.023   9.318  21.707
71654W        W75722  16.697   7.295  20.016
71655W        W75723  15.309   8.198  20.079
71656W        W75724  14.863   9.398  20.853
71657W        W75725  16.722  10.591  19.559
71658W        W75726  17.916   8.188  20.431
71659W        W75727  16.553  10.535  21.198
71660W        W75728  17.896   9.594  18.403
71661W        W75729  16.331   9.077  19.464
71662W        W75730  18.183   7.588  21.205
71663W        W75731  16.332   9.423  20.799
71664W        W75732  16.549   8.309  20.244
71665W        W75733  17.401   8.607  19.082
71666W        W75734  17.688   8.340  18.724
71667W        W75735  17.497  10.380  19.113
71668W        W75736  17.331   9.983  19.909
71669W        W75737  17.227   9.062  18.887
71670W        W75738  16.660   9.272  19.873
71671W        W75739  17.541   9.060  19.940
71672W        W75740  14.916   8.075  20.364
71673W        W75741  17.694   9.127  21.191
71674W        W75742  18.045  10.745  20.337
71675W        W75743  15.975  10.189  19.739
71676W        W75744  16.982  10.722  21.063
71677W        W75745  16.976   8.052  20.827
71678W        W75746  16.183  10.760  20.888
71679W        W75747  17.880   7.714  19.354
71680W        W75748  17.671   9.033  20.655
71681W        W75749  14.654   8.354  20.693
71682W        W75750  17.514   8.149  19.711
71683W        W75751  17.925   8.300  21.488
71684W        W75752  16.810   9.999  19.706
71685W        W75753  16.066  10.590  19.319
71686W        W75754  15.181   7.770  18.577
71687W        W75755  16.285   7.424  20.387
71688W        W75756  15.313  10.544  18.235
71689W        W75757  15.687   9.010  18.986
71690W        W75758  16.341   9.639  21.299
71691W        W75759  16.171   7.997  19.289
71692W        W75760  17.527   7.594  19.717
71693W        W75761  17.247  10.876  20.045
71694W        W75762  16.659  10.524  20.385
71695W        W75763  16.055   9.561  20.346
71696W        W75764  17.825  10.284  20.472
71697W        W75765  15.519   7.787  19.241
71698W        W75766  16.041  10.084  20.201
71699W        W75767  15.524   8.015  18.266
71700W        W75768  16.325   8.624  20.660
71701W        W75769  17.173   7.490  20.530
71702W        W75770  14.593   9.333  20.415
71703W        W75771  16.297   9.151  18.573
71704W        W75772  15.565   7.466  18.343
71705W        W75773  16.303   8.547  19.394
71706W        W75774  17.273   7.523  21.093
71707W        W75775  15.861   9.535  21.202
71708W        W75776  16.665   9.317  21.419
71709W        W75777  17.282   9.347  21.312
71710W        W75778  16.566   7.487  21.817
71711W        W75779  15.788   8.103  20.210
71712W        W75780  15.214   8.059  19.608
71713W        W75781  15.000  10.771  19.284
71714W        W75782  16.332  10.101  21.409
71715W        W75783  15.367   9.586  18.768
71716W        W75784  17.047   8.971  19.989
71717W        W75785  17.327   8.770  20.388
71718W        W75786  16.532   9.444  20.322
71719W        W75787  17.002   9.818  18.454
71720W        W75788  16.674   7.839  19.782
71721W        W75789  18.153   8.117  19.050
71722W        W75790  14.647  10.706  21.081
71723W        W75791  15.064   9.932  20.613
71724W        W75792  14.631  10.778  18.845
71725W        W75793  16.530   8.048  20.651
71726W        W75794  15.893  10.071  18.500
71727W        W75795  17.798  10.453  18.686
71728W        W75796  16.773   9.106  18.700
71729W        W75797  15.616   8.297  19.217
71730W        W75798  16.448   8.207  18.269
71731W        W75799  17.032   9.772  21.447
71732W        W75800  17.385   7.678  19.064
71733W        W75801  14.715   7.526  18.512
71734W        W75802  16.001   9.845  20.802
71735W        W75803  15.800   9.761  19.894
71736W        W75804  15.542   9.713  18.292
71737W        W75805  14.783   9.954  19.060
71738W        W75806  15.287   9.024  21.502
71739W        W75807  15.991   7.584  21.688
71740W        W75808  16.700   7.726  21.044
71741W        W75809  15.895   7.494  19.325
71742W        W75810  16.954   7.571  18.830
71743W        W75811  14.899   7.503  20.407
71744W        W75812  14.947   8.466  19.777
71745W        W75813  17.636   7.574  20.183
71746W        W75814  15.058   8.072  18.997
71747W        W75815  17.629   7.760  20.613
71748W        W75816  18.025   8.963  18.298
71749W        W75817  15.317   7.721  20.117
71750W        W75818  16.431   8.293  21.057
71751W        W75819  14.579   7.983  18.535
71752W        W75820  15.365   9.372  21.096
71753W        W75821  16.723   8.770  20.275
71754W        W75822  16.590  10.849  18.571
71755W        W75823  14.736   9.356  18.268
71756W        W75824  15.471   9.767  21.394
71757W        W75825  14.992   8.934  21.025
71758W        W75826  15.983   9.039  20.819
71759W        W75827  17.751   7.398  21.081
71760W        W75828  18.149   9.008  21.072
71761W        W75829  18.137   9.208  18.758
71762W        W75830  17.000   9.540  18.857
71763W        W75831  17.474  10.840  18.552
71764W        W75832  16.651   8.830  21.694
71765W        W75833  14.981   9.797  21.734
71766W        W75834  18.187   7.719  21.686
71767W        W75835  17.905   8.647  20.307
71768W        W75836  16.213  10.777  21.784
71769W        W75837  16.068   7.406  18.511
71770W        W75838  17.607  10.005  18.454
71771W        W75839  15.376   8.098  21.340
71772W        W75840  15.810  10.092  21.202
71773W        W75841  17.936   8.083  21.000
71774W        W75842  17.147  10.742  18.968
71775W        W75843  17.386   9.361  20.335
71776W        W75844  15.636   7.777  21.002
71777W        W75845  16.105   8.846  21.759
71778W        W75846  15.608  10.025  18.953
71779W        W75847  17.363   9.523  19.217
71780W        W75848  15.131   8.149  20.941
71781W        W75849  16.460  10.211  19.405
71782W        W75850  18.210   8.771  19.586
71783W        W75851  16.432   7.404  21.305
71784W        W75852  17.212  10.109  20.384
71785W        W75853  17.515  10.453  20.092
71786W        W75854  16.734  10.255  18.520
71787W        W75855  14.744  10.147  21.362
71788W        W75856  15.487   8.139  20.600
71789W        W75857  15.457   7.487  19.710
71790W        W75858  17.078   8.329  20.402
71791W        W75859  15.876   9.500  18.602
71792W        W75860  17.874   9.442  20.101
71793W        W75861  15.201  10.200  21.524
71794W        W75862  17.588  10.882  19.321
71795W        W75863  15.687   7.902  19.766
71796W        W75864  15.456   9.395  19.856
71797W        W75865  15.769  10.806  20.606
71798W        W75866  17.836  10.902  21.638
71799W        W75867  16.995   9.090  20.571
71800W        W75868  14.844   8.888  18.486
71801W        W75869  17.978  10.546  19.183
71802W        W75870  17.815   7.870  18.802
71803W        W75871  15.954   7.389  21.205
71804W        W75872  17.660  10.191  19.663
71805W        W75873  17.689   8.747  19.568
71806W        W75874  15.806   8.420  19.784
71807W        W75875  16.051   8.682  21.108
71808W        W75876  17.162   9.835  20.971
71809W        W75877  15.812   8.289  21.083
71810W        W75878  15.791  10.755  19.699
71811W        W75879  15.108  10.714  21.333
71812W        W75880  15.220  10.075  18.463
71813W        W75881  17.737   9.833  19.273
71814W        W75882  15.341   8.625  21.159
71815W        W75883  18.114   8.555  18.640
71816W        W75884  15.859   9.612  19.111
71817W        W75885  16.958   8.994  21.192
71818W        W75886  16.849   8.622  20.736
71819W        W75887  15.409   8.994  20.765
71820W        W75888  17.619  10.882  20.594
71821W        W75889  17.410   7.516  21.588
71822W        W75890  15.074   7.666  21.175
71823W        W75891  15.413   8.689  20.228
71824W        W75892  15.782   8.503  18.350
71825W        W75893  14.585  10.262  20.895
71826W        W75894  16.170   8.971  20.338
71827W        W75895  15.993   7.996  18.443
71828W        W75896  15.128   8.812  19.224
71829W        W75897  14.899  10.664  20.661
71830W        W75898  17.694   8.890  18.769
71831W        W75899  17.789   7.806  21.455
71832W        W75900  17.225  10.015  19.418
71833W        W75901  14.823   8.939  21.595
71834W        W75902  17.789   7.403  18.891
71835W        W75903  17.309   9.878  18.902
71836W        W75904  16.211   8.936  18.987
71837W        W75905  17.398   7.740  18.510
71838W        W75906  17.463   8.347  20.696
71839W        W75907  15.172   8.940  19.903
71840W        W75908  15.466   9.879  19.552
71841W        W75909  17.229   8.499  19.517
71842W        W75910  16.252   7.878  20.213
71843W        W75911  18.214   9.789  20.724
71844W        W75912  18.132   7.776  20.285
71845W        W75913  14.671  10.606  19.661
71846W        W75914  15.180   9.793  19.197
71847W        W75915  15.095   7.410  21.750
71848W        W75916  16.214  10.263  21.852
71849W        W75917  17.969   9.231  19.642
71850W        W75918  17.323   9.408  18.522
71851W        W75919  16.618  10.929  20.734
71852W        W75920  17.475   9.651  21.771
71853W        W75921  16.290   7.361  19.051
71854W        W75922  17.003   8.230  19.910
71855W        W75923  14.689   9.817  20.242
71856W        W75924  15.942   7.779  18.883
71857W        W75925  15.746   9.263  21.732
71858W        W75926  16.740   8.244  19.446
71859W        W75927  16.945   9.654  20.568
71860W        W75928  15.099  10.259  21.003
71861W        W75929  15.690  10.242  21.726
71862W        W75930  15.541   8.039  18.740
71863W        W75931  17.058   8.181  19.065
71864W        W75932  17.016  10.289  21.302
71865W        W75933  15.701   8.881  19.901
71866W        W75934  15.356  10.579  20.766
71867W        W75935  18.101  10.696  18.367
71868W        W75936  14.964   9.368  21.363
71869W        W75937  16.959   9.630  20.051
71870W        W75938  15.395   9.279  19.293
71871W        W75939  15.766  10.286  20.688
71872W        W75940  16.144   7.705  19.729
71873W        W75941  14.755   9.689  18.659
71874W        W75942  16.274   8.640  18.529
71875W        W75943  14.920   9.189  19.548
71876W        W75944  16.210   7.831  21.012
71877W        W75945  17.882   7.540  18.439
71878W        W75946  17.975   9.286  21.538
71879W        W75947  16.629  10.543  21.690
71880W        W75948  18.187   9.637  21.212
71881W        W75949  17.595  10.435  21.823
71882W        W75950  15.334  10.891  20.301
71883W        W75951  18.193   9.513  19.175
71884W        W75952  16.723   8.780  19.688
71885W        W75953  16.490   7.392  19.578
71886W        W75954  15.549  10.376  19.415
71887W        W75955  16.048   8.117  20.640
71888W        W75956  15.748   7.486  20.109
71889W        W75957  14.811  10.308  18.657
71890W        W75958  16.627   9.672  19.375
71891W        W75959  15.502  10.467  21.254
71892W        W75960  14.979   9.290  18.950
71893W        W75961  14.864   7.833  19.949
71894W        W75962  16.412   9.798  20.006
71895W        W75963  14.664   7.652  19.026
71896W        W75964  17.328   8.858  20.953
71897W        W75965  17.205   8.244  18.525
71898W        W75966  17.722   9.916  20.173
71899W        W75967  16.383  10.400  20.004
71900W        W75968  15.795  10.504  18.915
71901W        W75969  17.077   7.407  18.345
71902W        W75970  14.877  10.667  20.086
71903W        W75971  17.074   8.425  21.721
71904W        W75972  15.057   7.955  21.720
71905W        W75973  14.788   8.555  19.053
71906W        W75974  15.479   8.544  18.778
71907W        W75975  17.242   8.871  21.595
71908W        W75976  15.585   9.152  20.304
71909W        W75977  17.059   7.438  19.424
71910W        W75978  16.190  10.869  19.927
71911W        W75979  17.404  10.331  20.864
71912W        W75980  16.988  10.480  19.975
71913W        W75981  17.007   9.460  19.569
71914W        W75982  16.469   7.685  18.640
71915W        W75983  18.150   7.313  19.362
71916W        W75984  15.838   8.948  18.525
71917W        W75985  18.004   8.285  19.515
71918W        W75986  16.696   9.455  18.392
71919W        W75987  17.632   9.655  21.140
71920W        W75988  17.286  10.356  18.607
71921W        W75989  15.901   8.031  21.513
71922W        W75990  15.721   8.615  20.754
71923W        W75991  17.813  10.110  21.031
71924W        W75992  16.913   8.060  21.408
71925W        W75993  14.757   8.531  21.185
71926W        W75994  16.517   9.008  20.911
71927W        W75995  14.874   9.766  19.568
71928W        W75996  15.021   9.063  20.458
71929W        W75997  17.338   9.349  20.808
71930W        W75998  17.110  10.729  21.619
71931W        W75999  17.006   8.468  21.172
71932W        W76000  17.283  10.522  19.577
71933W        W76001  16.285  10.242  20.900
71934W        W76002  15.770  10.597  20.169
71935W        W76003  17.575   9.768  20.588
71936W        W76004  16.625   9.840  21.725
71937W        W76005  15.230   9.793  20.064
71938W        W76006  17.576   9.552  19.709
71939W        W76007  17.217  10.618  20.460
71940W        W76008  15.195  10.347  20.330
71941W        W76009  16.216   8.399  21.540
71942W        W76010  16.667  10.565  19.051
71943W        W76011  15.975   9.820  21.689
71944W        W76012  16.101  10.058  19.066
71945W        W76013  15.322   8.798  18.325
71946W        W76014  17.742   9.507  22.518
71947W        W76015  15.790  10.583  22.071
71948W        W76016  15.873   8.735  23.054
71949W        W76017  15.388   8.583  23.218
71950W        W76018  16.379   9.398  22.652
71951W        W76019  16.808   8.590  22.229
71952W        W76020  16.365   9.825  22.198
71953W        W76021  15.061   7.664  23.033
71954W        W76022  17.749   8.058  21.984
71955W        W76023  17.955  10.032  22.481
71956W        W76024  15.084  10.818  22.235
71957W        W76025  15.477  10.864  22.911
71958W        W76026  17.302   9.058  23.071
71959W        W76027  17.268   8.746  22.098
71960W        W76028  17.753   9.098  22.853
71961W        W76029  16.655   7.756  22.869
71962W        W76030  15.312  10.450  22.552
71963W        W76031  16.268  10.523  22.410
71964W        W76032  17.660   8.549  21.874
71965W        W76033  15.847   9.239  23.137
71966W        W76034  15.317   9.278  21.995
71967W        W76035  14.972   8.311  22.174
71968W        W76036  15.034  10.267  22.968
71969W        W76037  16.165   9.750  23.216
71970W        W76038  16.423   8.251  22.614
71971W        W76039  14.589   9.001  22.808
71972W        W76040  16.904   8.680  22.759
71973W        W76041  16.781   9.170  22.863
71974W        W76042  16.770   8.064  22.320
71975W        W76043  17.169   7.944  23.101
71976W        W76044  15.960   8.371  22.477
71977W        W76045  17.581   8.139  22.822
71978W        W76046  17.948   8.621  22.767
71979W        W76047  15.617   7.374  22.473
71980W        W76048  18.088  10.157  21.953
71981W        W76049  16.912   7.947  21.885
71982W        W76050  16.623  10.024  22.612
71983W        W76051  16.722  10.591  23.204
71984W        W76052  17.896   9.594  22.048
71985W        W76053  16.331   9.077  23.109
71986W        W76054  17.401   8.607  22.727
71987W        W76055  17.688   8.340  22.369
71988W        W76056  17.497  10.380  22.758
71989W        W76057  17.227   9.062  22.532
71990W        W76058  17.880   7.714  22.999
71991W        W76059  16.066  10.590  22.964
71992W        W76060  15.181   7.770  22.222
71993W        W76061  15.313  10.544  21.880
71994W        W76062  15.687   9.010  22.631
71995W        W76063  16.171   7.997  22.934
71996W        W76064  15.519   7.787  22.886
71997W        W76065  15.524   8.015  21.911
71998W        W76066  16.297   9.151  22.218
71999W        W76067  15.565   7.466  21.988
72000W        W76068  16.303   8.547  23.039
72001W        W76069  15.214   8.059  23.253
72002W        W76070  15.000  10.771  22.929
72003W        W76071  15.367   9.586  22.413
72004W        W76072  17.002   9.818  22.099
72005W        W76073  18.153   8.117  22.695
72006W        W76074  14.631  10.778  22.490
72007W        W76075  15.893  10.071  22.145
72008W        W76076  17.798  10.453  22.331
72009W        W76077  16.773   9.106  22.345
72010W        W76078  15.616   8.297  22.862
72011W        W76079  16.448   8.207  21.914
72012W        W76080  17.385   7.678  22.709
72013W        W76081  14.715   7.526  22.157
72014W        W76082  15.542   9.713  21.937
72015W        W76083  14.783   9.954  22.705
72016W        W76084  15.895   7.494  22.970
72017W        W76085  16.954   7.571  22.475
72018W        W76086  15.058   8.072  22.642
72019W        W76087  18.025   8.963  21.943
72020W        W76088  14.579   7.983  22.180
72021W        W76089  16.590  10.849  22.216
72022W        W76090  14.736   9.356  21.913
72023W        W76091  18.137   9.208  22.403
72024W        W76092  17.000   9.540  22.502
72025W        W76093  17.474  10.840  22.197
72026W        W76094  16.068   7.406  22.156
72027W        W76095  17.607  10.005  22.099
72028W        W76096  17.147  10.742  22.613
72029W        W76097  15.608  10.025  22.598
72030W        W76098  17.363   9.523  22.862
72031W        W76099  16.460  10.211  23.050
72032W        W76100  18.210   8.771  23.231
72033W        W76101  16.734  10.255  22.165
72034W        W76102  15.876   9.500  22.247
72035W        W76103  17.588  10.882  22.966
72036W        W76104  14.844   8.888  22.131
72037W        W76105  17.978  10.546  22.828
72038W        W76106  17.815   7.870  22.447
72039W        W76107  17.689   8.747  23.213
72040W        W76108  15.220  10.075  22.108
72041W        W76109  17.737   9.833  22.918
72042W        W76110  18.114   8.555  22.285
72043W        W76111  15.859   9.612  22.756
72044W        W76112  15.782   8.503  21.995
72045W        W76113  15.993   7.996  22.088
72046W        W76114  15.128   8.812  22.869
72047W        W76115  17.694   8.890  22.414
72048W        W76116  17.225  10.015  23.063
72049W        W76117  17.789   7.403  22.536
72050W        W76118  17.309   9.878  22.547
72051W        W76119  16.211   8.936  22.632
72052W        W76120  17.398   7.740  22.155
72053W        W76121  15.466   9.879  23.197
72054W        W76122  17.229   8.499  23.162
72055W        W76123  14.671  10.606  23.306
72056W        W76124  15.180   9.793  22.842
72057W        W76125  17.969   9.231  23.287
72058W        W76126  17.323   9.408  22.167
72059W        W76127  16.290   7.361  22.696
72060W        W76128  15.942   7.779  22.528
72061W        W76129  16.740   8.244  23.091
72062W        W76130  15.541   8.039  22.385
72063W        W76131  17.058   8.181  22.710
72064W        W76132  18.101  10.696  22.012
72065W        W76133  14.755   9.689  22.304
72066W        W76134  16.274   8.640  22.174
72067W        W76135  14.920   9.189  23.193
72068W        W76136  17.882   7.540  22.084
72069W        W76137  18.193   9.513  22.820
72070W        W76138  16.490   7.392  23.223
72071W        W76139  15.549  10.376  23.060
72072W        W76140  14.811  10.308  22.302
72073W        W76141  16.627   9.672  23.020
72074W        W76142  14.979   9.290  22.595
72075W        W76143  14.664   7.652  22.671
72076W        W76144  17.205   8.244  22.170
72077W        W76145  15.795  10.504  22.560
72078W        W76146  17.077   7.407  21.990
72079W        W76147  14.788   8.555  22.698
72080W        W76148  15.479   8.544  22.423
72081W        W76149  17.007   9.460  23.214
72082W        W76150  16.469   7.685  22.285
72083W        W76151  18.150   7.313  23.007
72084W        W76152  15.838   8.948  22.170
72085W        W76153  18.004   8.285  23.160
72086W        W76154  16.696   9.455  22.037
72087W        W76155  17.286  10.356  22.252
72088W        W76156  14.874   9.766  23.213
72089W        W76157  17.283  10.522  23.222
72090W        W76158  16.667  10.565  22.696
72091W        W76159  16.101  10.058  22.711
72092W        W76160  15.322   8.798  21.970
72093W        W76161  14.661  14.528   3.359
72094W        W76162  15.037  13.421   2.882
72095W        W76163  17.742  13.151   0.652
72096W        W76164  17.872  14.236   2.679
72097W        W76165  15.790  14.227   0.205
72098W        W76166  15.873  12.379   1.188
72099W        W76167  15.388  12.227   1.352
72100W        W76168  16.379  13.042   0.786
72101W        W76169  16.054  14.134   3.141
72102W        W76170  14.703  11.695   3.104
72103W        W76171  15.465  10.975   2.906
72104W        W76172  17.159  11.363   1.793
72105W        W76173  16.808  12.234   0.363
72106W        W76174  17.378  11.668   3.454
72107W        W76175  14.744  11.460   2.579
72108W        W76176  14.843  14.079   3.600
72109W        W76177  16.365  13.469   0.332
72110W        W76178  14.797  12.252   2.025
72111W        W76179  15.690  12.143   3.262
72112W        W76180  18.149  12.002   1.761
72113W        W76181  17.913  13.045   2.620
72114W        W76182  16.221  12.378   1.647
72115W        W76183  16.767  13.717   2.016
72116W        W76184  15.267  13.151   2.248
72117W        W76185  14.626  12.679   1.819
72118W        W76186  15.662  12.651   3.011
72119W        W76187  17.933  12.434   3.265
72120W        W76188  15.549  13.878   1.710
72121W        W76189  16.670  13.567   2.844
72122W        W76190  15.890  12.207   2.069
72123W        W76191  16.182  12.991   1.712
72124W        W76192  17.179  13.764   3.560
72125W        W76193  16.258  13.084   3.570
72126W        W76194  16.239  12.800   3.048
72127W        W76195  14.648  12.191   3.570
72128W        W76196  17.480  13.726   3.169
72129W        W76197  15.061  11.308   1.167
72130W        W76198  15.588  13.566   2.166
72131W        W76199  18.051  13.349   1.456
72132W        W76200  17.464  11.749   2.023
72133W        W76201  17.749  11.702   0.118
72134W        W76202  18.214  12.503   2.424
72135W        W76203  16.181  14.210   2.177
72136W        W76204  17.955  13.676   0.615
72137W        W76205  15.084  14.462   0.369
72138W        W76206  15.477  14.508   1.045
72139W        W76207  15.274  11.262   2.471
72140W        W76208  17.897  12.280   2.746
72141W        W76209  17.302  12.702   1.205
72142W        W76210  17.268  12.390   0.232
72143W        W76211  16.476  13.534   2.372
72144W        W76212  16.282  11.864   1.571
72145W        W76213  16.882  13.951   2.565
72146W        W76214  17.753  12.742   0.987
72147W        W76215  16.655  11.400   1.003
72148W        W76216  15.312  14.094   0.686
72149W        W76217  14.683  11.593   1.285
72150W        W76218  17.469  12.200   1.759
72151W        W76219  14.927  13.817   1.674
72152W        W76220  16.268  14.167   0.544
72153W        W76221  17.660  12.193   0.008
72154W        W76222  14.683  13.951   2.172
72155W        W76223  15.474  13.523   2.652
72156W        W76224  15.847  12.883   1.271
72157W        W76225  15.869  11.288   2.364
72158W        W76226  18.098  11.050   1.661
72159W        W76227  15.317  12.922   0.129
72160W        W76228  14.972  11.955   0.308
72161W        W76229  15.034  13.911   1.102
72162W        W76230  16.165  13.394   1.350
72163W        W76231  17.497  14.253   3.064
72164W        W76232  16.423  11.895   0.748
72165W        W76233  17.806  14.293   1.520
72166W        W76234  17.483  12.146   3.118
72167W        W76235  18.196  13.802   1.252
72168W        W76236  16.823  13.094   2.736
72169W        W76237  14.589  12.645   0.942
72170W        W76238  15.700  13.060   2.515
72171W        W76239  16.904  12.324   0.893
72172W        W76240  16.781  12.814   0.997
72173W        W76241  15.124  12.234   2.471
72174W        W76242  15.109  12.110   3.393
72175W        W76243  14.999  11.027   1.552
72176W        W76244  16.767  11.374   2.113
72177W        W76245  16.415  11.559   3.276
72178W        W76246  16.770  11.708   0.454
72179W        W76247  17.953  14.101   3.208
72180W        W76248  16.920  11.182   3.247
72181W        W76249  17.939  13.483   3.369
72182W        W76250  17.369  11.650   2.965
72183W        W76251  17.169  11.588   1.235
72184W        W76252  17.562  12.722   3.639
72185W        W76253  15.302  14.298   1.625
72186W        W76254  15.960  12.015   0.611
72187W        W76255  15.529  11.299   3.275
72188W        W76256  17.581  11.783   0.956
72189W        W76257  17.948  12.265   0.901
72190W        W76258  15.691  14.482   3.372
72191W        W76259  15.617  11.018   0.607
72192W        W76260  17.938  11.552   1.642
72193W        W76261  18.088  13.801   0.087
72194W        W76262  14.995  13.004   1.789
72195W        W76263  16.912  11.591   0.019
72196W        W76264  18.046  13.923   1.739
72197W        W76265  18.085  11.117   2.489
72198W        W76266  16.530  12.329   3.043
72199W        W76267  16.623  13.668   0.746
72200W        W76268  17.023  12.962   3.486
72201W        W76269  16.697  10.939   1.795
72202W        W76270  15.309  11.842   1.858
72203W        W76271  14.863  13.042   2.632
72204W        W76272  16.722  14.235   1.338
72205W        W76273  17.916  11.832   2.210
72206W        W76274  16.553  14.179   2.977
72207W        W76275  17.896  13.238   0.182
72208W        W76276  16.331  12.721   1.243
72209W        W76277  18.183  11.232   2.984
72210W        W76278  16.332  13.067   2.578
72211W        W76279  16.549  11.953   2.023
72212W        W76280  17.401  12.251   0.861
72213W        W76281  17.688  11.984   0.503
72214W        W76282  17.497  14.024   0.892
72215W        W76283  17.331  13.627   1.688
72216W        W76284  17.227  12.706   0.666
72217W        W76285  16.660  12.916   1.652
72218W        W76286  17.541  12.704   1.719
72219W        W76287  14.916  11.719   2.143
72220W        W76288  17.694  12.771   2.970
72221W        W76289  18.045  14.389   2.116
72222W        W76290  15.975  13.833   1.518
72223W        W76291  16.982  14.366   2.842
72224W        W76292  16.976  11.696   2.606
72225W        W76293  16.183  14.404   2.667
72226W        W76294  17.880  11.358   1.133
72227W        W76295  17.671  12.677   2.434
72228W        W76296  14.654  11.998   2.472
72229W        W76297  17.514  11.793   1.490
72230W        W76298  17.925  11.944   3.267
72231W        W76299  16.810  13.643   1.485
72232W        W76300  16.066  14.234   1.098
72233W        W76301  15.181  11.414   0.356
72234W        W76302  16.285  11.068   2.166
72235W        W76303  15.313  14.188   0.014
72236W        W76304  15.687  12.654   0.765
72237W        W76305  16.341  13.283   3.078
72238W        W76306  16.171  11.641   1.068
72239W        W76307  17.527  11.238   1.496
72240W        W76308  17.247  14.520   1.824
72241W        W76309  16.659  14.168   2.164
72242W        W76310  16.055  13.205   2.125
72243W        W76311  17.825  13.928   2.251
72244W        W76312  15.519  11.431   1.020
72245W        W76313  16.041  13.728   1.980
72246W        W76314  15.524  11.659   0.045
72247W        W76315  16.325  12.268   2.439
72248W        W76316  17.173  11.134   2.309
72249W        W76317  14.593  12.977   2.194
72250W        W76318  16.297  12.795   0.352
72251W        W76319  15.565  11.110   0.122
72252W        W76320  16.303  12.191   1.173
72253W        W76321  17.273  11.167   2.872
72254W        W76322  15.861  13.179   2.981
72255W        W76323  16.665  12.961   3.198
72256W        W76324  17.282  12.991   3.091
72257W        W76325  16.566  11.131   3.596
72258W        W76326  15.788  11.747   1.989
72259W        W76327  15.214  11.703   1.387
72260W        W76328  15.000  14.415   1.063
72261W        W76329  16.332  13.745   3.188
72262W        W76330  15.367  13.230   0.547
72263W        W76331  17.047  12.615   1.768
72264W        W76332  17.327  12.414   2.167
72265W        W76333  16.532  13.088   2.101
72266W        W76334  17.002  13.462   0.233
72267W        W76335  16.674  11.483   1.561
72268W        W76336  18.153  11.761   0.829
72269W        W76337  14.647  14.350   2.860
72270W        W76338  15.064  13.576   2.392
72271W        W76339  14.631  14.422   0.624
72272W        W76340  16.530  11.692   2.430
72273W        W76341  15.893  13.715   0.279
72274W        W76342  17.798  14.097   0.465
72275W        W76343  16.773  12.750   0.479
72276W        W76344  15.616  11.941   0.996
72277W        W76345  16.448  11.851   0.048
72278W        W76346  17.032  13.416   3.226
72279W        W76347  17.385  11.322   0.843
72280W        W76348  14.715  11.170   0.291
72281W        W76349  16.001  13.489   2.581
72282W        W76350  15.800  13.405   1.673
72283W        W76351  15.542  13.357   0.071
72284W        W76352  14.783  13.598   0.839
72285W        W76353  15.287  12.668   3.281
72286W        W76354  15.991  11.228   3.467
72287W        W76355  16.700  11.370   2.823
72288W        W76356  15.895  11.138   1.104
72289W        W76357  16.954  11.215   0.609
72290W        W76358  14.899  11.147   2.186
72291W        W76359  14.947  12.110   1.556
72292W        W76360  17.636  11.218   1.962
72293W        W76361  15.058  11.716   0.776
72294W        W76362  17.629  11.404   2.392
72295W        W76363  18.025  12.607   0.077
72296W        W76364  15.317  11.365   1.896
72297W        W76365  16.431  11.937   2.836
72298W        W76366  14.579  11.627   0.314
72299W        W76367  15.365  13.016   2.875
72300W        W76368  16.723  12.414   2.054
72301W        W76369  16.590  14.493   0.350
72302W        W76370  14.736  13.000   0.047
72303W        W76371  15.471  13.411   3.173
72304W        W76372  14.992  12.578   2.804
72305W        W76373  15.983  12.683   2.598
72306W        W76374  17.751  11.042   2.860
72307W        W76375  18.149  12.652   2.851
72308W        W76376  18.137  12.852   0.537
72309W        W76377  17.000  13.184   0.636
72310W        W76378  17.474  14.484   0.331
72311W        W76379  16.651  12.474   3.473
72312W        W76380  14.981  13.441   3.513
72313W        W76381  18.187  11.363   3.465
72314W        W76382  17.905  12.291   2.086
72315W        W76383  16.213  14.421   3.563
72316W        W76384  16.068  11.050   0.290
72317W        W76385  17.607  13.649   0.233
72318W        W76386  15.376  11.742   3.119
72319W        W76387  15.810  13.736   2.981
72320W        W76388  17.936  11.727   2.779
72321W        W76389  17.147  14.386   0.747
72322W        W76390  17.386  13.005   2.114
72323W        W76391  15.636  11.421   2.781
72324W        W76392  16.105  12.490   3.538
72325W        W76393  15.608  13.669   0.732
72326W        W76394  17.363  13.167   0.996
72327W        W76395  15.131  11.793   2.720
72328W        W76396  16.460  13.855   1.184
72329W        W76397  18.210  12.415   1.365
72330W        W76398  16.432  11.048   3.084
72331W        W76399  17.212  13.753   2.163
72332W        W76400  17.515  14.097   1.871
72333W        W76401  16.734  13.899   0.299
72334W        W76402  14.744  13.791   3.141
72335W        W76403  15.487  11.783   2.379
72336W        W76404  15.457  11.131   1.489
72337W        W76405  17.078  11.973   2.181
72338W        W76406  15.876  13.144   0.381
72339W        W76407  17.874  13.086   1.880
72340W        W76408  15.201  13.844   3.303
72341W        W76409  17.588  14.526   1.100
72342W        W76410  15.687  11.546   1.545
72343W        W76411  15.456  13.039   1.635
72344W        W76412  15.769  14.450   2.385
72345W        W76413  17.836  14.546   3.417
72346W        W76414  16.995  12.734   2.350
72347W        W76415  14.844  12.532   0.265
72348W        W76416  17.978  14.190   0.962
72349W        W76417  17.815  11.514   0.581
72350W        W76418  15.954  11.033   2.984
72351W        W76419  17.660  13.835   1.442
72352W        W76420  17.689  12.391   1.347
72353W        W76421  15.806  12.064   1.563
72354W        W76422  16.051  12.326   2.887
72355W        W76423  17.162  13.479   2.750
72356W        W76424  15.812  11.933   2.862
72357W        W76425  15.791  14.399   1.478
72358W        W76426  15.108  14.358   3.112
72359W        W76427  15.220  13.719   0.242
72360W        W76428  17.737  13.477   1.052
72361W        W76429  15.341  12.269   2.938
72362W        W76430  18.114  12.199   0.419
72363W        W76431  15.859  13.256   0.890
72364W        W76432  16.958  12.638   2.971
72365W        W76433  16.849  12.266   2.515
72366W        W76434  15.409  12.638   2.544
72367W        W76435  17.619  14.526   2.373
72368W        W76436  17.410  11.160   3.367
72369W        W76437  15.074  11.310   2.954
72370W        W76438  15.413  12.333   2.007
72371W        W76439  15.782  12.147   0.129
72372W        W76440  14.585  13.906   2.674
72373W        W76441  16.170  12.615   2.117
72374W        W76442  15.993  11.640   0.222
72375W        W76443  15.128  12.456   1.003
72376W        W76444  14.899  14.308   2.440
72377W        W76445  17.694  12.534   0.548
72378W        W76446  17.789  11.450   3.234
72379W        W76447  17.225  13.659   1.197
72380W        W76448  14.823  12.583   3.374
72381W        W76449  17.789  11.047   0.670
72382W        W76450  17.309  13.522   0.681
72383W        W76451  16.211  12.580   0.766
72384W        W76452  17.398  11.384   0.289
72385W        W76453  17.463  11.991   2.475
72386W        W76454  15.172  12.584   1.682
72387W        W76455  15.466  13.523   1.331
72388W        W76456  17.229  12.143   1.296
72389W        W76457  16.252  11.522   1.992
72390W        W76458  18.214  13.433   2.503
72391W        W76459  18.132  11.420   2.064
72392W        W76460  14.671  14.250   1.440
72393W        W76461  15.180  13.437   0.976
72394W        W76462  15.095  11.054   3.529
72395W        W76463  16.214  13.907   3.631
72396W        W76464  17.969  12.875   1.421
72397W        W76465  17.323  13.052   0.301
72398W        W76466  16.618  14.573   2.513
72399W        W76467  17.475  13.295   3.550
72400W        W76468  16.290  11.005   0.830
72401W        W76469  17.003  11.874   1.689
72402W        W76470  14.689  13.461   2.021
72403W        W76471  15.942  11.423   0.662
72404W        W76472  15.746  12.907   3.511
72405W        W76473  16.740  11.888   1.225
72406W        W76474  16.945  13.298   2.347
72407W        W76475  15.099  13.903   2.782
72408W        W76476  15.690  13.886   3.505
72409W        W76477  15.541  11.683   0.519
72410W        W76478  17.058  11.825   0.844
72411W        W76479  17.016  13.933   3.081
72412W        W76480  15.701  12.525   1.680
72413W        W76481  15.356  14.223   2.545
72414W        W76482  18.101  14.340   0.146
72415W        W76483  14.964  13.012   3.142
72416W        W76484  16.959  13.274   1.830
72417W        W76485  15.395  12.923   1.072
72418W        W76486  15.766  13.930   2.467
72419W        W76487  16.144  11.349   1.508
72420W        W76488  14.755  13.333   0.438
72421W        W76489  16.274  12.284   0.308
72422W        W76490  14.920  12.833   1.327
72423W        W76491  16.210  11.475   2.791
72424W        W76492  17.882  11.184   0.218
72425W        W76493  17.975  12.930   3.317
72426W        W76494  16.629  14.187   3.469
72427W        W76495  18.187  13.281   2.991
72428W        W76496  17.595  14.079   3.602
72429W        W76497  15.334  14.535   2.080
72430W        W76498  18.193  13.157   0.954
72431W        W76499  16.723  12.424   1.467
72432W        W76500  16.490  11.036   1.357
72433W        W76501  15.549  14.020   1.194
72434W        W76502  16.048  11.761   2.419
72435W        W76503  15.748  11.130   1.888
72436W        W76504  14.811  13.952   0.436
72437W        W76505  16.627  13.316   1.154
72438W        W76506  15.502  14.111   3.033
72439W        W76507  14.979  12.934   0.729
72440W        W76508  14.864  11.477   1.728
72441W        W76509  16.412  13.442   1.785
72442W        W76510  14.664  11.296   0.805
72443W        W76511  17.328  12.502   2.732
72444W        W76512  17.205  11.888   0.304
72445W        W76513  17.722  13.560   1.952
72446W        W76514  16.383  14.044   1.783
72447W        W76515  15.795  14.148   0.694
72448W        W76516  17.077  11.051   0.124
72449W        W76517  14.877  14.311   1.865
72450W        W76518  17.074  12.069   3.500
72451W        W76519  15.057  11.599   3.499
72452W        W76520  14.788  12.199   0.832
72453W        W76521  15.479  12.188   0.557
72454W        W76522  17.242  12.515   3.374
72455W        W76523  15.585  12.796   2.083
72456W        W76524  17.059  11.082   1.203
72457W        W76525  16.190  14.513   1.706
72458W        W76526  17.404  13.975   2.643
72459W        W76527  16.988  14.124   1.754
72460W        W76528  17.007  13.104   1.348
72461W        W76529  16.469  11.329   0.419
72462W        W76530  18.150  10.957   1.141
72463W        W76531  15.838  12.592   0.304
72464W        W76532  18.004  11.929   1.294
72465W        W76533  16.696  13.099   0.171
72466W        W76534  17.632  13.299   2.919
72467W        W76535  17.286  14.000   0.386
72468W        W76536  15.901  11.675   3.292
72469W        W76537  15.721  12.259   2.533
72470W        W76538  17.813  13.754   2.810
72471W        W76539  16.913  11.704   3.187
72472W        W76540  14.757  12.175   2.964
72473W        W76541  16.517  12.652   2.690
72474W        W76542  14.874  13.410   1.347
72475W        W76543  15.021  12.707   2.237
72476W        W76544  17.338  12.993   2.587
72477W        W76545  17.110  14.373   3.398
72478W        W76546  17.006  12.112   2.951
72479W        W76547  17.283  14.166   1.356
72480W        W76548  16.285  13.886   2.679
72481W        W76549  15.770  14.241   1.948
72482W        W76550  17.575  13.412   2.367
72483W        W76551  16.625  13.484   3.504
72484W        W76552  15.230  13.437   1.843
72485W        W76553  17.576  13.196   1.488
72486W        W76554  17.217  14.262   2.239
72487W        W76555  15.195  13.991   2.109
72488W        W76556  16.216  12.043   3.319
72489W        W76557  16.667  14.209   0.830
72490W        W76558  15.975  13.464   3.468
72491W        W76559  16.101  13.702   0.845
72492W        W76560  15.322  12.442   0.104
72493W        W76561  14.661  14.528   7.003
72494W        W76562  15.037  13.421   6.526
72495W        W76563  17.742  13.151   4.296
72496W        W76564  17.872  14.236   6.323
72497W        W76565  15.790  14.227   3.849
72498W        W76566  15.873  12.379   4.832
72499W        W76567  15.388  12.227   4.996
72500W        W76568  16.379  13.042   4.430
72501W        W76569  16.054  14.134   6.785
72502W        W76570  14.703  11.695   6.748
72503W        W76571  15.465  10.975   6.550
72504W        W76572  17.159  11.363   5.437
72505W        W76573  16.808  12.234   4.007
72506W        W76574  17.378  11.668   7.098
72507W        W76575  14.744  11.460   6.223
72508W        W76576  14.843  14.079   7.244
72509W        W76577  16.365  13.469   3.976
72510W        W76578  14.797  12.252   5.669
72511W        W76579  15.690  12.143   6.906
72512W        W76580  18.149  12.002   5.405
72513W        W76581  17.913  13.045   6.264
72514W        W76582  16.221  12.378   5.291
72515W        W76583  16.767  13.717   5.660
72516W        W76584  15.267  13.151   5.892
72517W        W76585  14.626  12.679   5.463
72518W        W76586  15.662  12.651   6.655
72519W        W76587  17.933  12.434   6.909
72520W        W76588  15.549  13.878   5.354
72521W        W76589  16.670  13.567   6.488
72522W        W76590  15.890  12.207   5.713
72523W        W76591  16.182  12.991   5.356
72524W        W76592  17.179  13.764   7.204
72525W        W76593  16.258  13.084   7.214
72526W        W76594  16.239  12.800   6.692
72527W        W76595  14.648  12.191   7.214
72528W        W76596  17.480  13.726   6.813
72529W        W76597  15.061  11.308   4.811
72530W        W76598  15.588  13.566   5.810
72531W        W76599  18.051  13.349   5.100
72532W        W76600  17.464  11.749   5.667
72533W        W76601  17.749  11.702   3.762
72534W        W76602  18.214  12.503   6.068
72535W        W76603  16.181  14.210   5.821
72536W        W76604  17.955  13.676   4.259
72537W        W76605  15.084  14.462   4.013
72538W        W76606  15.477  14.508   4.689
72539W        W76607  15.274  11.262   6.115
72540W        W76608  17.897  12.280   6.390
72541W        W76609  17.302  12.702   4.849
72542W        W76610  17.268  12.390   3.876
72543W        W76611  16.476  13.534   6.016
72544W        W76612  16.282  11.864   5.215
72545W        W76613  16.882  13.951   6.209
72546W        W76614  17.753  12.742   4.631
72547W        W76615  16.655  11.400   4.647
72548W        W76616  15.312  14.094   4.330
72549W        W76617  14.683  11.593   4.929
72550W        W76618  17.469  12.200   5.403
72551W        W76619  14.927  13.817   5.318
72552W        W76620  16.268  14.167   4.188
72553W        W76621  17.660  12.193   3.652
72554W        W76622  14.683  13.951   5.816
72555W        W76623  15.474  13.523   6.296
72556W        W76624  15.847  12.883   4.915
72557W        W76625  15.869  11.288   6.008
72558W        W76626  18.098  11.050   5.305
72559W        W76627  15.317  12.922   3.773
72560W        W76628  14.972  11.955   3.952
72561W        W76629  15.034  13.911   4.746
72562W        W76630  16.165  13.394   4.994
72563W        W76631  17.497  14.253   6.708
72564W        W76632  16.423  11.895   4.392
72565W        W76633  17.806  14.293   5.164
72566W        W76634  17.483  12.146   6.762
72567W        W76635  18.196  13.802   4.896
72568W        W76636  16.823  13.094   6.380
72569W        W76637  14.589  12.645   4.586
72570W        W76638  15.700  13.060   6.159
72571W        W76639  16.904  12.324   4.537
72572W        W76640  16.781  12.814   4.641
72573W        W76641  15.124  12.234   6.115
72574W        W76642  15.109  12.110   7.037
72575W        W76643  14.999  11.027   5.196
72576W        W76644  16.767  11.374   5.757
72577W        W76645  16.415  11.559   6.920
72578W        W76646  16.770  11.708   4.098
72579W        W76647  17.953  14.101   6.852
72580W        W76648  16.920  11.182   6.891
72581W        W76649  17.939  13.483   7.013
72582W        W76650  17.369  11.650   6.609
72583W        W76651  17.169  11.588   4.879
72584W        W76652  17.562  12.722   7.283
72585W        W76653  15.302  14.298   5.269
72586W        W76654  15.960  12.015   4.255
72587W        W76655  15.529  11.299   6.919
72588W        W76656  17.581  11.783   4.600
72589W        W76657  17.948  12.265   4.545
72590W        W76658  15.691  14.482   7.016
72591W        W76659  15.617  11.018   4.251
72592W        W76660  17.938  11.552   5.286
72593W        W76661  18.088  13.801   3.731
72594W        W76662  14.995  13.004   5.433
72595W        W76663  16.912  11.591   3.663
72596W        W76664  18.046  13.923   5.383
72597W        W76665  18.085  11.117   6.133
72598W        W76666  16.530  12.329   6.687
72599W        W76667  16.623  13.668   4.390
72600W        W76668  17.023  12.962   7.130
72601W        W76669  16.697  10.939   5.439
72602W        W76670  15.309  11.842   5.502
72603W        W76671  14.863  13.042   6.276
72604W        W76672  16.722  14.235   4.982
72605W        W76673  17.916  11.832   5.854
72606W        W76674  16.553  14.179   6.621
72607W        W76675  17.896  13.238   3.826
72608W        W76676  16.331  12.721   4.887
72609W        W76677  18.183  11.232   6.628
72610W        W76678  16.332  13.067   6.222
72611W        W76679  16.549  11.953   5.667
72612W        W76680  17.401  12.251   4.505
72613W        W76681  17.688  11.984   4.147
72614W        W76682  17.497  14.024   4.536
72615W        W76683  17.331  13.627   5.332
72616W        W76684  17.227  12.706   4.310
72617W        W76685  16.660  12.916   5.296
72618W        W76686  17.541  12.704   5.363
72619W        W76687  14.916  11.719   5.787
72620W        W76688  17.694  12.771   6.614
72621W        W76689  18.045  14.389   5.760
72622W        W76690  15.975  13.833   5.162
72623W        W76691  16.982  14.366   6.486
72624W        W76692  16.976  11.696   6.250
72625W        W76693  16.183  14.404   6.311
72626W        W76694  17.880  11.358   4.777
72627W        W76695  17.671  12.677   6.078
72628W        W76696  14.654  11.998   6.116
72629W        W76697  17.514  11.793   5.134
72630W        W76698  17.925  11.944   6.911
72631W        W76699  16.810  13.643   5.129
72632W        W76700  16.066  14.234   4.742
72633W        W76701  15.181  11.414   4.000
72634W        W76702  16.285  11.068   5.810
72635W        W76703  15.313  14.188   3.658
72636W        W76704  15.687  12.654   4.409
72637W        W76705  16.341  13.283   6.722
72638W        W76706  16.171  11.641   4.712
72639W        W76707  17.527  11.238   5.140
72640W        W76708  17.247  14.520   5.468
72641W        W76709  16.659  14.168   5.808
72642W        W76710  16.055  13.205   5.769
72643W        W76711  17.825  13.928   5.895
72644W        W76712  15.519  11.431   4.664
72645W        W76713  16.041  13.728   5.624
72646W        W76714  15.524  11.659   3.689
72647W        W76715  16.325  12.268   6.083
72648W        W76716  17.173  11.134   5.953
72649W        W76717  14.593  12.977   5.838
72650W        W76718  16.297  12.795   3.996
72651W        W76719  15.565  11.110   3.766
72652W        W76720  16.303  12.191   4.817
72653W        W76721  17.273  11.167   6.516
72654W        W76722  15.861  13.179   6.625
72655W        W76723  16.665  12.961   6.842
72656W        W76724  17.282  12.991   6.735
72657W        W76725  16.566  11.131   7.240
72658W        W76726  15.788  11.747   5.633
72659W        W76727  15.214  11.703   5.031
72660W        W76728  15.000  14.415   4.707
72661W        W76729  16.332  13.745   6.832
72662W        W76730  15.367  13.230   4.191
72663W        W76731  17.047  12.615   5.412
72664W        W76732  17.327  12.414   5.811
72665W        W76733  16.532  13.088   5.745
72666W        W76734  17.002  13.462   3.877
72667W        W76735  16.674  11.483   5.205
72668W        W76736  18.153  11.761   4.473
72669W        W76737  14.647  14.350   6.504
72670W        W76738  15.064  13.576   6.036
72671W        W76739  14.631  14.422   4.268
72672W        W76740  16.530  11.692   6.074
72673W        W76741  15.893  13.715   3.923
72674W        W76742  17.798  14.097   4.109
72675W        W76743  16.773  12.750   4.123
72676W        W76744  15.616  11.941   4.640
72677W        W76745  16.448  11.851   3.692
72678W        W76746  17.032  13.416   6.870
72679W        W76747  17.385  11.322   4.487
72680W        W76748  14.715  11.170   3.935
72681W        W76749  16.001  13.489   6.225
72682W        W76750  15.800  13.405   5.317
72683W        W76751  15.542  13.357   3.715
72684W        W76752  14.783  13.598   4.483
72685W        W76753  15.287  12.668   6.925
72686W        W76754  15.991  11.228   7.111
72687W        W76755  16.700  11.370   6.467
72688W        W76756  15.895  11.138   4.748
72689W        W76757  16.954  11.215   4.253
72690W        W76758  14.899  11.147   5.830
72691W        W76759  14.947  12.110   5.200
72692W        W76760  17.636  11.218   5.606
72693W        W76761  15.058  11.716   4.420
72694W        W76762  17.629  11.404   6.036
72695W        W76763  18.025  12.607   3.721
72696W        W76764  15.317  11.365   5.540
72697W        W76765  16.431  11.937   6.480
72698W        W76766  14.579  11.627   3.958
72699W        W76767  15.365  13.016   6.519
72700W        W76768  16.723  12.414   5.698
72701W        W76769  16.590  14.493   3.994
72702W        W76770  14.736  13.000   3.691
72703W        W76771  15.471  13.411   6.817
72704W        W76772  14.992  12.578   6.448
72705W        W76773  15.983  12.683   6.242
72706W        W76774  17.751  11.042   6.504
72707W        W76775  18.149  12.652   6.495
72708W        W76776  18.137  12.852   4.181
72709W        W76777  17.000  13.184   4.280
72710W        W76778  17.474  14.484   3.975
72711W        W76779  16.651  12.474   7.117
72712W        W76780  14.981  13.441   7.157
72713W        W76781  18.187  11.363   7.109
72714W        W76782  17.905  12.291   5.730
72715W        W76783  16.213  14.421   7.207
72716W        W76784  16.068  11.050   3.934
72717W        W76785  17.607  13.649   3.877
72718W        W76786  15.376  11.742   6.763
72719W        W76787  15.810  13.736   6.625
72720W        W76788  17.936  11.727   6.423
72721W        W76789  17.147  14.386   4.391
72722W        W76790  17.386  13.005   5.758
72723W        W76791  15.636  11.421   6.425
72724W        W76792  16.105  12.490   7.182
72725W        W76793  15.608  13.669   4.376
72726W        W76794  17.363  13.167   4.640
72727W        W76795  15.131  11.793   6.364
72728W        W76796  16.460  13.855   4.828
72729W        W76797  18.210  12.415   5.009
72730W        W76798  16.432  11.048   6.728
72731W        W76799  17.212  13.753   5.807
72732W        W76800  17.515  14.097   5.515
72733W        W76801  16.734  13.899   3.943
72734W        W76802  14.744  13.791   6.785
72735W        W76803  15.487  11.783   6.023
72736W        W76804  15.457  11.131   5.133
72737W        W76805  17.078  11.973   5.825
72738W        W76806  15.876  13.144   4.025
72739W        W76807  17.874  13.086   5.524
72740W        W76808  15.201  13.844   6.947
72741W        W76809  17.588  14.526   4.744
72742W        W76810  15.687  11.546   5.189
72743W        W76811  15.456  13.039   5.279
72744W        W76812  15.769  14.450   6.029
72745W        W76813  17.836  14.546   7.061
72746W        W76814  16.995  12.734   5.994
72747W        W76815  14.844  12.532   3.909
72748W        W76816  17.978  14.190   4.606
72749W        W76817  17.815  11.514   4.225
72750W        W76818  15.954  11.033   6.628
72751W        W76819  17.660  13.835   5.086
72752W        W76820  17.689  12.391   4.991
72753W        W76821  15.806  12.064   5.207
72754W        W76822  16.051  12.326   6.531
72755W        W76823  17.162  13.479   6.394
72756W        W76824  15.812  11.933   6.506
72757W        W76825  15.791  14.399   5.122
72758W        W76826  15.108  14.358   6.756
72759W        W76827  15.220  13.719   3.886
72760W        W76828  17.737  13.477   4.696
72761W        W76829  15.341  12.269   6.582
72762W        W76830  18.114  12.199   4.063
72763W        W76831  15.859  13.256   4.534
72764W        W76832  16.958  12.638   6.615
72765W        W76833  16.849  12.266   6.159
72766W        W76834  15.409  12.638   6.188
72767W        W76835  17.619  14.526   6.017
72768W        W76836  17.410  11.160   7.011
72769W        W76837  15.074  11.310   6.598
72770W        W76838  15.413  12.333   5.651
72771W        W76839  15.782  12.147   3.773
72772W        W76840  14.585  13.906   6.318
72773W        W76841  16.170  12.615   5.761
72774W        W76842  15.993  11.640   3.866
72775W        W76843  15.128  12.456   4.647
72776W        W76844  14.899  14.308   6.084
72777W        W76845  17.694  12.534   4.192
72778W        W76846  17.789  11.450   6.878
72779W        W76847  17.225  13.659   4.841
72780W        W76848  14.823  12.583   7.018
72781W        W76849  17.789  11.047   4.314
72782W        W76850  17.309  13.522   4.325
72783W        W76851  16.211  12.580   4.410
72784W        W76852  17.398  11.384   3.933
72785W        W76853  17.463  11.991   6.119
72786W        W76854  15.172  12.584   5.326
72787W        W76855  15.466  13.523   4.975
72788W        W76856  17.229  12.143   4.940
72789W        W76857  16.252  11.522   5.636
72790W        W76858  18.214  13.433   6.147
72791W        W76859  18.132  11.420   5.708
72792W        W76860  14.671  14.250   5.084
72793W        W76861  15.180  13.437   4.620
72794W        W76862  15.095  11.054   7.173
72795W        W76863  16.214  13.907   7.275
72796W        W76864  17.969  12.875   5.065
72797W        W76865  17.323  13.052   3.945
72798W        W76866  16.618  14.573   6.157
72799W        W76867  17.475  13.295   7.194
72800W        W76868  16.290  11.005   4.474
72801W        W76869  17.003  11.874   5.333
72802W        W76870  14.689  13.461   5.665
72803W        W76871  15.942  11.423   4.306
72804W        W76872  15.746  12.907   7.155
72805W        W76873  16.740  11.888   4.869
72806W        W76874  16.945  13.298   5.991
72807W        W76875  15.099  13.903   6.426
72808W        W76876  15.690  13.886   7.149
72809W        W76877  15.541  11.683   4.163
72810W        W76878  17.058  11.825   4.488
72811W        W76879  17.016  13.933   6.725
72812W        W76880  15.701  12.525   5.324
72813W        W76881  15.356  14.223   6.189
72814W        W76882  18.101  14.340   3.790
72815W        W76883  14.964  13.012   6.786
72816W        W76884  16.959  13.274   5.474
72817W        W76885  15.395  12.923   4.716
72818W        W76886  15.766  13.930   6.111
72819W        W76887  16.144  11.349   5.152
72820W        W76888  14.755  13.333   4.082
72821W        W76889  16.274  12.284   3.952
72822W        W76890  14.920  12.833   4.971
72823W        W76891  16.210  11.475   6.435
72824W        W76892  17.882  11.184   3.862
72825W        W76893  17.975  12.930   6.961
72826W        W76894  16.629  14.187   7.113
72827W        W76895  18.187  13.281   6.635
72828W        W76896  17.595  14.079   7.246
72829W        W76897  15.334  14.535   5.724
72830W        W76898  18.193  13.157   4.598
72831W        W76899  16.723  12.424   5.111
72832W        W76900  16.490  11.036   5.001
72833W        W76901  15.549  14.020   4.838
72834W        W76902  16.048  11.761   6.063
72835W        W76903  15.748  11.130   5.532
72836W        W76904  14.811  13.952   4.080
72837W        W76905  16.627  13.316   4.798
72838W        W76906  15.502  14.111   6.677
72839W        W76907  14.979  12.934   4.373
72840W        W76908  14.864  11.477   5.372
72841W        W76909  16.412  13.442   5.429
72842W        W76910  14.664  11.296   4.449
72843W        W76911  17.328  12.502   6.376
72844W        W76912  17.205  11.888   3.948
72845W        W76913  17.722  13.560   5.596
72846W        W76914  16.383  14.044   5.427
72847W        W76915  15.795  14.148   4.338
72848W        W76916  17.077  11.051   3.768
72849W        W76917  14.877  14.311   5.509
72850W        W76918  17.074  12.069   7.144
72851W        W76919  15.057  11.599   7.143
72852W        W76920  14.788  12.199   4.476
72853W        W76921  15.479  12.188   4.201
72854W        W76922  17.242  12.515   7.018
72855W        W76923  15.585  12.796   5.727
72856W        W76924  17.059  11.082   4.847
72857W        W76925  16.190  14.513   5.350
72858W        W76926  17.404  13.975   6.287
72859W        W76927  16.988  14.124   5.398
72860W        W76928  17.007  13.104   4.992
72861W        W76929  16.469  11.329   4.063
72862W        W76930  18.150  10.957   4.785
72863W        W76931  15.838  12.592   3.948
72864W        W76932  18.004  11.929   4.938
72865W        W76933  16.696  13.099   3.815
72866W        W76934  17.632  13.299   6.563
72867W        W76935  17.286  14.000   4.030
72868W        W76936  15.901  11.675   6.936
72869W        W76937  15.721  12.259   6.177
72870W        W76938  17.813  13.754   6.454
72871W        W76939  16.913  11.704   6.831
72872W        W76940  14.757  12.175   6.608
72873W        W76941  16.517  12.652   6.334
72874W        W76942  14.874  13.410   4.991
72875W        W76943  15.021  12.707   5.881
72876W        W76944  17.338  12.993   6.231
72877W        W76945  17.110  14.373   7.042
72878W        W76946  17.006  12.112   6.595
72879W        W76947  17.283  14.166   5.000
72880W        W76948  16.285  13.886   6.323
72881W        W76949  15.770  14.241   5.592
72882W        W76950  17.575  13.412   6.011
72883W        W76951  16.625  13.484   7.148
72884W        W76952  15.230  13.437   5.487
72885W        W76953  17.576  13.196   5.132
72886W        W76954  17.217  14.262   5.883
72887W        W76955  15.195  13.991   5.753
72888W        W76956  16.216  12.043   6.963
72889W        W76957  16.667  14.209   4.474
72890W        W76958  15.975  13.464   7.112
72891W        W76959  16.101  13.702   4.489
72892W        W76960  15.322  12.442   3.748
72893W        W76961  14.661  14.528  10.648
72894W        W76962  15.037  13.421  10.171
72895W        W76963  17.742  13.151   7.941
72896W        W76964  17.872  14.236   9.968
72897W        W76965  15.790  14.227   7.494
72898W        W76966  15.873  12.379   8.477
72899W        W76967  15.388  12.227   8.641
72900W        W76968  16.379  13.042   8.075
72901W        W76969  16.054  14.134  10.430
72902W        W76970  14.703  11.695  10.393
72903W        W76971  15.465  10.975  10.195
72904W        W76972  17.159  11.363   9.082
72905W        W76973  16.808  12.234   7.652
72906W        W76974  17.378  11.668  10.743
72907W        W76975  14.744  11.460   9.868
72908W        W76976  14.843  14.079  10.889
72909W        W76977  16.365  13.469   7.621
72910W        W76978  14.797  12.252   9.314
72911W        W76979  15.690  12.143  10.551
72912W        W76980  18.149  12.002   9.050
72913W        W76981  17.913  13.045   9.909
72914W        W76982  16.221  12.378   8.936
72915W        W76983  16.767  13.717   9.305
72916W        W76984  15.267  13.151   9.537
72917W        W76985  14.626  12.679   9.108
72918W        W76986  15.662  12.651  10.300
72919W        W76987  17.933  12.434  10.554
72920W        W76988  15.549  13.878   8.999
72921W        W76989  16.670  13.567  10.133
72922W        W76990  15.890  12.207   9.358
72923W        W76991  16.182  12.991   9.001
72924W        W76992  17.179  13.764  10.849
72925W        W76993  16.258  13.084  10.859
72926W        W76994  16.239  12.800  10.337
72927W        W76995  14.648  12.191  10.859
72928W        W76996  17.480  13.726  10.458
72929W        W76997  15.061  11.308   8.456
72930W        W76998  15.588  13.566   9.455
72931W        W76999  18.051  13.349   8.745
72932W        W77000  17.464  11.749   9.312
72933W        W77001  17.749  11.702   7.407
72934W        W77002  18.214  12.503   9.713
72935W        W77003  16.181  14.210   9.466
72936W        W77004  17.955  13.676   7.904
72937W        W77005  15.084  14.462   7.658
72938W        W77006  15.477  14.508   8.334
72939W        W77007  15.274  11.262   9.760
72940W        W77008  17.897  12.280  10.035
72941W        W77009  17.302  12.702   8.494
72942W        W77010  17.268  12.390   7.521
72943W        W77011  16.476  13.534   9.661
72944W        W77012  16.282  11.864   8.860
72945W        W77013  16.882  13.951   9.854
72946W        W77014  17.753  12.742   8.276
72947W        W77015  16.655  11.400   8.292
72948W        W77016  15.312  14.094   7.975
72949W        W77017  14.683  11.593   8.574
72950W        W77018  17.469  12.200   9.048
72951W        W77019  14.927  13.817   8.963
72952W        W77020  16.268  14.167   7.833
72953W        W77021  17.660  12.193   7.297
72954W        W77022  14.683  13.951   9.461
72955W        W77023  15.474  13.523   9.941
72956W        W77024  15.847  12.883   8.560
72957W        W77025  15.869  11.288   9.653
72958W        W77026  18.098  11.050   8.950
72959W        W77027  15.317  12.922   7.418
72960W        W77028  14.972  11.955   7.597
72961W        W77029  15.034  13.911   8.391
72962W        W77030  16.165  13.394   8.639
72963W        W77031  17.497  14.253  10.353
72964W        W77032  16.423  11.895   8.037
72965W        W77033  17.806  14.293   8.809
72966W        W77034  17.483  12.146  10.407
72967W        W77035  18.196  13.802   8.541
72968W        W77036  16.823  13.094  10.025
72969W        W77037  14.589  12.645   8.231
72970W        W77038  15.700  13.060   9.804
72971W        W77039  16.904  12.324   8.182
72972W        W77040  16.781  12.814   8.286
72973W        W77041  15.124  12.234   9.760
72974W        W77042  15.109  12.110  10.682
72975W        W77043  14.999  11.027   8.841
72976W        W77044  16.767  11.374   9.402
72977W        W77045  16.415  11.559  10.565
72978W        W77046  16.770  11.708   7.743
72979W        W77047  17.953  14.101  10.497
72980W        W77048  16.920  11.182  10.536
72981W        W77049  17.939  13.483  10.658
72982W        W77050  17.369  11.650  10.254
72983W        W77051  17.169  11.588   8.524
72984W        W77052  17.562  12.722  10.928
72985W        W77053  15.302  14.298   8.914
72986W        W77054  15.960  12.015   7.900
72987W        W77055  15.529  11.299  10.564
72988W        W77056  17.581  11.783   8.245
72989W        W77057  17.948  12.265   8.190
72990W        W77058  15.691  14.482  10.661
72991W        W77059  15.617  11.018   7.896
72992W        W77060  17.938  11.552   8.931
72993W        W77061  18.088  13.801   7.376
72994W        W77062  14.995  13.004   9.078
72995W        W77063  16.912  11.591   7.308
72996W        W77064  18.046  13.923   9.028
72997W        W77065  18.085  11.117   9.778
72998W        W77066  16.530  12.329  10.332
72999W        W77067  16.623  13.668   8.035
73000W        W77068  17.023  12.962  10.775
73001W        W77069  16.697  10.939   9.084
73002W        W77070  15.309  11.842   9.147
73003W        W77071  14.863  13.042   9.921
73004W        W77072  16.722  14.235   8.627
73005W        W77073  17.916  11.832   9.499
73006W        W77074  16.553  14.179  10.266
73007W        W77075  17.896  13.238   7.471
73008W        W77076  16.331  12.721   8.532
73009W        W77077  18.183  11.232  10.273
73010W        W77078  16.332  13.067   9.867
73011W        W77079  16.549  11.953   9.312
73012W        W77080  17.401  12.251   8.150
73013W        W77081  17.688  11.984   7.792
73014W        W77082  17.497  14.024   8.181
73015W        W77083  17.331  13.627   8.977
73016W        W77084  17.227  12.706   7.955
73017W        W77085  16.660  12.916   8.941
73018W        W77086  17.541  12.704   9.008
73019W        W77087  14.916  11.719   9.432
73020W        W77088  17.694  12.771  10.259
73021W        W77089  18.045  14.389   9.405
73022W        W77090  15.975  13.833   8.807
73023W        W77091  16.982  14.366  10.131
73024W        W77092  16.976  11.696   9.895
73025W        W77093  16.183  14.404   9.956
73026W        W77094  17.880  11.358   8.422
73027W        W77095  17.671  12.677   9.723
73028W        W77096  14.654  11.998   9.761
73029W        W77097  17.514  11.793   8.779
73030W        W77098  17.925  11.944  10.556
73031W        W77099  16.810  13.643   8.774
73032W        W77100  16.066  14.234   8.387
73033W        W77101  15.181  11.414   7.645
73034W        W77102  16.285  11.068   9.455
73035W        W77103  15.313  14.188   7.303
73036W        W77104  15.687  12.654   8.054
73037W        W77105  16.341  13.283  10.367
73038W        W77106  16.171  11.641   8.357
73039W        W77107  17.527  11.238   8.785
73040W        W77108  17.247  14.520   9.113
73041W        W77109  16.659  14.168   9.453
73042W        W77110  16.055  13.205   9.414
73043W        W77111  17.825  13.928   9.540
73044W        W77112  15.519  11.431   8.309
73045W        W77113  16.041  13.728   9.269
73046W        W77114  15.524  11.659   7.334
73047W        W77115  16.325  12.268   9.728
73048W        W77116  17.173  11.134   9.598
73049W        W77117  14.593  12.977   9.483
73050W        W77118  16.297  12.795   7.641
73051W        W77119  15.565  11.110   7.411
73052W        W77120  16.303  12.191   8.462
73053W        W77121  17.273  11.167  10.161
73054W        W77122  15.861  13.179  10.270
73055W        W77123  16.665  12.961  10.487
73056W        W77124  17.282  12.991  10.380
73057W        W77125  16.566  11.131  10.885
73058W        W77126  15.788  11.747   9.278
73059W        W77127  15.214  11.703   8.676
73060W        W77128  15.000  14.415   8.352
73061W        W77129  16.332  13.745  10.477
73062W        W77130  15.367  13.230   7.836
73063W        W77131  17.047  12.615   9.057
73064W        W77132  17.327  12.414   9.456
73065W        W77133  16.532  13.088   9.390
73066W        W77134  17.002  13.462   7.522
73067W        W77135  16.674  11.483   8.850
73068W        W77136  18.153  11.761   8.118
73069W        W77137  14.647  14.350  10.149
73070W        W77138  15.064  13.576   9.681
73071W        W77139  14.631  14.422   7.913
73072W        W77140  16.530  11.692   9.719
73073W        W77141  15.893  13.715   7.568
73074W        W77142  17.798  14.097   7.754
73075W        W77143  16.773  12.750   7.768
73076W        W77144  15.616  11.941   8.285
73077W        W77145  16.448  11.851   7.337
73078W        W77146  17.032  13.416  10.515
73079W        W77147  17.385  11.322   8.132
73080W        W77148  14.715  11.170   7.580
73081W        W77149  16.001  13.489   9.870
73082W        W77150  15.800  13.405   8.962
73083W        W77151  15.542  13.357   7.360
73084W        W77152  14.783  13.598   8.128
73085W        W77153  15.287  12.668  10.570
73086W        W77154  15.991  11.228  10.756
73087W        W77155  16.700  11.370  10.112
73088W        W77156  15.895  11.138   8.393
73089W        W77157  16.954  11.215   7.898
73090W        W77158  14.899  11.147   9.475
73091W        W77159  14.947  12.110   8.845
73092W        W77160  17.636  11.218   9.251
73093W        W77161  15.058  11.716   8.065
73094W        W77162  17.629  11.404   9.681
73095W        W77163  18.025  12.607   7.366
73096W        W77164  15.317  11.365   9.185
73097W        W77165  16.431  11.937  10.125
73098W        W77166  14.579  11.627   7.603
73099W        W77167  15.365  13.016  10.164
73100W        W77168  16.723  12.414   9.343
73101W        W77169  16.590  14.493   7.639
73102W        W77170  14.736  13.000   7.336
73103W        W77171  15.471  13.411  10.462
73104W        W77172  14.992  12.578  10.093
73105W        W77173  15.983  12.683   9.887
73106W        W77174  17.751  11.042  10.149
73107W        W77175  18.149  12.652  10.140
73108W        W77176  18.137  12.852   7.826
73109W        W77177  17.000  13.184   7.925
73110W        W77178  17.474  14.484   7.620
73111W        W77179  16.651  12.474  10.762
73112W        W77180  14.981  13.441  10.802
73113W        W77181  18.187  11.363  10.754
73114W        W77182  17.905  12.291   9.375
73115W        W77183  16.213  14.421  10.852
73116W        W77184  16.068  11.050   7.579
73117W        W77185  17.607  13.649   7.522
73118W        W77186  15.376  11.742  10.408
73119W        W77187  15.810  13.736  10.270
73120W        W77188  17.936  11.727  10.068
73121W        W77189  17.147  14.386   8.036
73122W        W77190  17.386  13.005   9.403
73123W        W77191  15.636  11.421  10.070
73124W        W77192  16.105  12.490  10.827
73125W        W77193  15.608  13.669   8.021
73126W        W77194  17.363  13.167   8.285
73127W        W77195  15.131  11.793  10.009
73128W        W77196  16.460  13.855   8.473
73129W        W77197  18.210  12.415   8.654
73130W        W77198  16.432  11.048  10.373
73131W        W77199  17.212  13.753   9.452
73132W        W77200  17.515  14.097   9.160
73133W        W77201  16.734  13.899   7.588
73134W        W77202  14.744  13.791  10.430
73135W        W77203  15.487  11.783   9.668
73136W        W77204  15.457  11.131   8.778
73137W        W77205  17.078  11.973   9.470
73138W        W77206  15.876  13.144   7.670
73139W        W77207  17.874  13.086   9.169
73140W        W77208  15.201  13.844  10.592
73141W        W77209  17.588  14.526   8.389
73142W        W77210  15.687  11.546   8.834
73143W        W77211  15.456  13.039   8.924
73144W        W77212  15.769  14.450   9.674
73145W        W77213  17.836  14.546  10.706
73146W        W77214  16.995  12.734   9.639
73147W        W77215  14.844  12.532   7.554
73148W        W77216  17.978  14.190   8.251
73149W        W77217  17.815  11.514   7.870
73150W        W77218  15.954  11.033  10.273
73151W        W77219  17.660  13.835   8.731
73152W        W77220  17.689  12.391   8.636
73153W        W77221  15.806  12.064   8.852
73154W        W77222  16.051  12.326  10.176
73155W        W77223  17.162  13.479  10.039
73156W        W77224  15.812  11.933  10.151
73157W        W77225  15.791  14.399   8.767
73158W        W77226  15.108  14.358  10.401
73159W        W77227  15.220  13.719   7.531
73160W        W77228  17.737  13.477   8.341
73161W        W77229  15.341  12.269  10.227
73162W        W77230  18.114  12.199   7.708
73163W        W77231  15.859  13.256   8.179
73164W        W77232  16.958  12.638  10.260
73165W        W77233  16.849  12.266   9.804
73166W        W77234  15.409  12.638   9.833
73167W        W77235  17.619  14.526   9.662
73168W        W77236  17.410  11.160  10.656
73169W        W77237  15.074  11.310  10.243
73170W        W77238  15.413  12.333   9.296
73171W        W77239  15.782  12.147   7.418
73172W        W77240  14.585  13.906   9.963
73173W        W77241  16.170  12.615   9.406
73174W        W77242  15.993  11.640   7.511
73175W        W77243  15.128  12.456   8.292
73176W        W77244  14.899  14.308   9.729
73177W        W77245  17.694  12.534   7.837
73178W        W77246  17.789  11.450  10.523
73179W        W77247  17.225  13.659   8.486
73180W        W77248  14.823  12.583  10.663
73181W        W77249  17.789  11.047   7.959
73182W        W77250  17.309  13.522   7.970
73183W        W77251  16.211  12.580   8.055
73184W        W77252  17.398  11.384   7.578
73185W        W77253  17.463  11.991   9.764
73186W        W77254  15.172  12.584   8.971
73187W        W77255  15.466  13.523   8.620
73188W        W77256  17.229  12.143   8.585
73189W        W77257  16.252  11.522   9.281
73190W        W77258  18.214  13.433   9.792
73191W        W77259  18.132  11.420   9.353
73192W        W77260  14.671  14.250   8.729
73193W        W77261  15.180  13.437   8.265
73194W        W77262  15.095  11.054  10.818
73195W        W77263  16.214  13.907  10.920
73196W        W77264  17.969  12.875   8.710
73197W        W77265  17.323  13.052   7.590
73198W        W77266  16.618  14.573   9.802
73199W        W77267  17.475  13.295  10.839
73200W        W77268  16.290  11.005   8.119
73201W        W77269  17.003  11.874   8.978
73202W        W77270  14.689  13.461   9.310
73203W        W77271  15.942  11.423   7.951
73204W        W77272  15.746  12.907  10.800
73205W        W77273  16.740  11.888   8.514
73206W        W77274  16.945  13.298   9.636
73207W        W77275  15.099  13.903  10.071
73208W        W77276  15.690  13.886  10.794
73209W        W77277  15.541  11.683   7.808
73210W        W77278  17.058  11.825   8.133
73211W        W77279  17.016  13.933  10.370
73212W        W77280  15.701  12.525   8.969
73213W        W77281  15.356  14.223   9.834
73214W        W77282  18.101  14.340   7.435
73215W        W77283  14.964  13.012  10.431
73216W        W77284  16.959  13.274   9.119
73217W        W77285  15.395  12.923   8.361
73218W        W77286  15.766  13.930   9.756
73219W        W77287  16.144  11.349   8.797
73220W        W77288  14.755  13.333   7.727
73221W        W77289  16.274  12.284   7.597
73222W        W77290  14.920  12.833   8.616
73223W        W77291  16.210  11.475  10.080
73224W        W77292  17.882  11.184   7.507
73225W        W77293  17.975  12.930  10.606
73226W        W77294  16.629  14.187  10.758
73227W        W77295  18.187  13.281  10.280
73228W        W77296  17.595  14.079  10.891
73229W        W77297  15.334  14.535   9.369
73230W        W77298  18.193  13.157   8.243
73231W        W77299  16.723  12.424   8.756
73232W        W77300  16.490  11.036   8.646
73233W        W77301  15.549  14.020   8.483
73234W        W77302  16.048  11.761   9.708
73235W        W77303  15.748  11.130   9.177
73236W        W77304  14.811  13.952   7.725
73237W        W77305  16.627  13.316   8.443
73238W        W77306  15.502  14.111  10.322
73239W        W77307  14.979  12.934   8.018
73240W        W77308  14.864  11.477   9.017
73241W        W77309  16.412  13.442   9.074
73242W        W77310  14.664  11.296   8.094
73243W        W77311  17.328  12.502  10.021
73244W        W77312  17.205  11.888   7.593
73245W        W77313  17.722  13.560   9.241
73246W        W77314  16.383  14.044   9.072
73247W        W77315  15.795  14.148   7.983
73248W        W77316  17.077  11.051   7.413
73249W        W77317  14.877  14.311   9.154
73250W        W77318  17.074  12.069  10.789
73251W        W77319  15.057  11.599  10.788
73252W        W77320  14.788  12.199   8.121
73253W        W77321  15.479  12.188   7.846
73254W        W77322  17.242  12.515  10.663
73255W        W77323  15.585  12.796   9.372
73256W        W77324  17.059  11.082   8.492
73257W        W77325  16.190  14.513   8.995
73258W        W77326  17.404  13.975   9.932
73259W        W77327  16.988  14.124   9.043
73260W        W77328  17.007  13.104   8.637
73261W        W77329  16.469  11.329   7.708
73262W        W77330  18.150  10.957   8.430
73263W        W77331  15.838  12.592   7.593
73264W        W77332  18.004  11.929   8.583
73265W        W77333  16.696  13.099   7.460
73266W        W77334  17.632  13.299  10.208
73267W        W77335  17.286  14.000   7.675
73268W        W77336  15.901  11.675  10.581
73269W        W77337  15.721  12.259   9.822
73270W        W77338  17.813  13.754  10.099
73271W        W77339  16.913  11.704  10.476
73272W        W77340  14.757  12.175  10.253
73273W        W77341  16.517  12.652   9.979
73274W        W77342  14.874  13.410   8.636
73275W        W77343  15.021  12.707   9.526
73276W        W77344  17.338  12.993   9.876
73277W        W77345  17.110  14.373  10.687
73278W        W77346  17.006  12.112  10.240
73279W        W77347  17.283  14.166   8.645
73280W        W77348  16.285  13.886   9.968
73281W        W77349  15.770  14.241   9.237
73282W        W77350  17.575  13.412   9.656
73283W        W77351  16.625  13.484  10.793
73284W        W77352  15.230  13.437   9.132
73285W        W77353  17.576  13.196   8.777
73286W        W77354  17.217  14.262   9.528
73287W        W77355  15.195  13.991   9.398
73288W        W77356  16.216  12.043  10.608
73289W        W77357  16.667  14.209   8.119
73290W        W77358  15.975  13.464  10.757
73291W        W77359  16.101  13.702   8.134
73292W        W77360  15.322  12.442   7.393
73293W        W77361  14.661  14.528  14.292
73294W        W77362  15.037  13.421  13.815
73295W        W77363  17.742  13.151  11.585
73296W        W77364  17.872  14.236  13.612
73297W        W77365  15.790  14.227  11.138
73298W        W77366  15.873  12.379  12.121
73299W        W77367  15.388  12.227  12.285
73300W        W77368  16.379  13.042  11.719
73301W        W77369  16.054  14.134  14.074
73302W        W77370  14.703  11.695  14.037
73303W        W77371  15.465  10.975  13.839
73304W        W77372  17.159  11.363  12.726
73305W        W77373  16.808  12.234  11.296
73306W        W77374  17.378  11.668  14.387
73307W        W77375  14.744  11.460  13.512
73308W        W77376  14.843  14.079  14.533
73309W        W77377  16.365  13.469  11.265
73310W        W77378  14.797  12.252  12.958
73311W        W77379  15.690  12.143  14.195
73312W        W77380  18.149  12.002  12.694
73313W        W77381  17.913  13.045  13.553
73314W        W77382  16.221  12.378  12.580
73315W        W77383  16.767  13.717  12.949
73316W        W77384  15.267  13.151  13.181
73317W        W77385  14.626  12.679  12.752
73318W        W77386  15.662  12.651  13.944
73319W        W77387  17.933  12.434  14.198
73320W        W77388  15.549  13.878  12.643
73321W        W77389  16.670  13.567  13.777
73322W        W77390  15.890  12.207  13.002
73323W        W77391  16.182  12.991  12.645
73324W        W77392  17.179  13.764  14.493
73325W        W77393  16.258  13.084  14.503
73326W        W77394  16.239  12.800  13.981
73327W        W77395  14.648  12.191  14.503
73328W        W77396  17.480  13.726  14.102
73329W        W77397  15.061  11.308  12.100
73330W        W77398  15.588  13.566  13.099
73331W        W77399  18.051  13.349  12.389
73332W        W77400  17.464  11.749  12.956
73333W        W77401  17.749  11.702  11.051
73334W        W77402  18.214  12.503  13.357
73335W        W77403  16.181  14.210  13.110
73336W        W77404  17.955  13.676  11.548
73337W        W77405  15.084  14.462  11.302
73338W        W77406  15.477  14.508  11.978
73339W        W77407  15.274  11.262  13.404
73340W        W77408  17.897  12.280  13.679
73341W        W77409  17.302  12.702  12.138
73342W        W77410  17.268  12.390  11.165
73343W        W77411  16.476  13.534  13.305
73344W        W77412  16.282  11.864  12.504
73345W        W77413  16.882  13.951  13.498
73346W        W77414  17.753  12.742  11.920
73347W        W77415  16.655  11.400  11.936
73348W        W77416  15.312  14.094  11.619
73349W        W77417  14.683  11.593  12.218
73350W        W77418  17.469  12.200  12.692
73351W        W77419  14.927  13.817  12.607
73352W        W77420  16.268  14.167  11.477
73353W        W77421  17.660  12.193  10.941
73354W        W77422  14.683  13.951  13.105
73355W        W77423  15.474  13.523  13.585
73356W        W77424  15.847  12.883  12.204
73357W        W77425  15.869  11.288  13.297
73358W        W77426  18.098  11.050  12.594
73359W        W77427  15.317  12.922  11.062
73360W        W77428  14.972  11.955  11.241
73361W        W77429  15.034  13.911  12.035
73362W        W77430  16.165  13.394  12.283
73363W        W77431  17.497  14.253  13.997
73364W        W77432  16.423  11.895  11.681
73365W        W77433  17.806  14.293  12.453
73366W        W77434  17.483  12.146  14.051
73367W        W77435  18.196  13.802  12.185
73368W        W77436  16.823  13.094  13.669
73369W        W77437  14.589  12.645  11.875
73370W        W77438  15.700  13.060  13.448
73371W        W77439  16.904  12.324  11.826
73372W        W77440  16.781  12.814  11.930
73373W        W77441  15.124  12.234  13.404
73374W        W77442  15.109  12.110  14.326
73375W        W77443  14.999  11.027  12.485
73376W        W77444  16.767  11.374  13.046
73377W        W77445  16.415  11.559  14.209
73378W        W77446  16.770  11.708  11.387
73379W        W77447  17.953  14.101  14.141
73380W        W77448  16.920  11.182  14.180
73381W        W77449  17.939  13.483  14.302
73382W        W77450  17.369  11.650  13.898
73383W        W77451  17.169  11.588  12.168
73384W        W77452  17.562  12.722  14.572
73385W        W77453  15.302  14.298  12.558
73386W        W77454  15.960  12.015  11.544
73387W        W77455  15.529  11.299  14.208
73388W        W77456  17.581  11.783  11.889
73389W        W77457  17.948  12.265  11.834
73390W        W77458  15.691  14.482  14.305
73391W        W77459  15.617  11.018  11.540
73392W        W77460  17.938  11.552  12.575
73393W        W77461  18.088  13.801  11.020
73394W        W77462  14.995  13.004  12.722
73395W        W77463  16.912  11.591  10.952
73396W        W77464  18.046  13.923  12.672
73397W        W77465  18.085  11.117  13.422
73398W        W77466  16.530  12.329  13.976
73399W        W77467  16.623  13.668  11.679
73400W        W77468  17.023  12.962  14.419
73401W        W77469  16.697  10.939  12.728
73402W        W77470  15.309  11.842  12.791
73403W        W77471  14.863  13.042  13.565
73404W        W77472  16.722  14.235  12.271
73405W        W77473  17.916  11.832  13.143
73406W        W77474  16.553  14.179  13.910
73407W        W77475  17.896  13.238  11.115
73408W        W77476  16.331  12.721  12.176
73409W        W77477  18.183  11.232  13.917
73410W        W77478  16.332  13.067  13.511
73411W        W77479  16.549  11.953  12.956
73412W        W77480  17.401  12.251  11.794
73413W        W77481  17.688  11.984  11.436
73414W        W77482  17.497  14.024  11.825
73415W        W77483  17.331  13.627  12.621
73416W        W77484  17.227  12.706  11.599
73417W        W77485  16.660  12.916  12.585
73418W        W77486  17.541  12.704  12.652
73419W        W77487  14.916  11.719  13.076
73420W        W77488  17.694  12.771  13.903
73421W        W77489  18.045  14.389  13.049
73422W        W77490  15.975  13.833  12.451
73423W        W77491  16.982  14.366  13.775
73424W        W77492  16.976  11.696  13.539
73425W        W77493  16.183  14.404  13.600
73426W        W77494  17.880  11.358  12.066
73427W        W77495  17.671  12.677  13.367
73428W        W77496  14.654  11.998  13.405
73429W        W77497  17.514  11.793  12.423
73430W        W77498  17.925  11.944  14.200
73431W        W77499  16.810  13.643  12.418
73432W        W77500  16.066  14.234  12.031
73433W        W77501  15.181  11.414  11.289
73434W        W77502  16.285  11.068  13.099
73435W        W77503  15.313  14.188  10.947
73436W        W77504  15.687  12.654  11.698
73437W        W77505  16.341  13.283  14.011
73438W        W77506  16.171  11.641  12.001
73439W        W77507  17.527  11.238  12.429
73440W        W77508  17.247  14.520  12.757
73441W        W77509  16.659  14.168  13.097
73442W        W77510  16.055  13.205  13.058
73443W        W77511  17.825  13.928  13.184
73444W        W77512  15.519  11.431  11.953
73445W        W77513  16.041  13.728  12.913
73446W        W77514  15.524  11.659  10.978
73447W        W77515  16.325  12.268  13.372
73448W        W77516  17.173  11.134  13.242
73449W        W77517  14.593  12.977  13.127
73450W        W77518  16.297  12.795  11.285
73451W        W77519  15.565  11.110  11.055
73452W        W77520  16.303  12.191  12.106
73453W        W77521  17.273  11.167  13.805
73454W        W77522  15.861  13.179  13.914
73455W        W77523  16.665  12.961  14.131
73456W        W77524  17.282  12.991  14.024
73457W        W77525  16.566  11.131  14.529
73458W        W77526  15.788  11.747  12.922
73459W        W77527  15.214  11.703  12.320
73460W        W77528  15.000  14.415  11.996
73461W        W77529  16.332  13.745  14.121
73462W        W77530  15.367  13.230  11.480
73463W        W77531  17.047  12.615  12.701
73464W        W77532  17.327  12.414  13.100
73465W        W77533  16.532  13.088  13.034
73466W        W77534  17.002  13.462  11.166
73467W        W77535  16.674  11.483  12.494
73468W        W77536  18.153  11.761  11.762
73469W        W77537  14.647  14.350  13.793
73470W        W77538  15.064  13.576  13.325
73471W        W77539  14.631  14.422  11.557
73472W        W77540  16.530  11.692  13.363
73473W        W77541  15.893  13.715  11.212
73474W        W77542  17.798  14.097  11.398
73475W        W77543  16.773  12.750  11.412
73476W        W77544  15.616  11.941  11.929
73477W        W77545  16.448  11.851  10.981
73478W        W77546  17.032  13.416  14.159
73479W        W77547  17.385  11.322  11.776
73480W        W77548  14.715  11.170  11.224
73481W        W77549  16.001  13.489  13.514
73482W        W77550  15.800  13.405  12.606
73483W        W77551  15.542  13.357  11.004
73484W        W77552  14.783  13.598  11.772
73485W        W77553  15.287  12.668  14.214
73486W        W77554  15.991  11.228  14.400
73487W        W77555  16.700  11.370  13.756
73488W        W77556  15.895  11.138  12.037
73489W        W77557  16.954  11.215  11.542
73490W        W77558  14.899  11.147  13.119
73491W        W77559  14.947  12.110  12.489
73492W        W77560  17.636  11.218  12.895
73493W        W77561  15.058  11.716  11.709
73494W        W77562  17.629  11.404  13.325
73495W        W77563  18.025  12.607  11.010
73496W        W77564  15.317  11.365  12.829
73497W        W77565  16.431  11.937  13.769
73498W        W77566  14.579  11.627  11.247
73499W        W77567  15.365  13.016  13.808
73500W        W77568  16.723  12.414  12.987
73501W        W77569  16.590  14.493  11.283
73502W        W77570  14.736  13.000  10.980
73503W        W77571  15.471  13.411  14.106
73504W        W77572  14.992  12.578  13.737
73505W        W77573  15.983  12.683  13.531
73506W        W77574  17.751  11.042  13.793
73507W        W77575  18.149  12.652  13.784
73508W        W77576  18.137  12.852  11.470
73509W        W77577  17.000  13.184  11.569
73510W        W77578  17.474  14.484  11.264
73511W        W77579  16.651  12.474  14.406
73512W        W77580  14.981  13.441  14.446
73513W        W77581  18.187  11.363  14.398
73514W        W77582  17.905  12.291  13.019
73515W        W77583  16.213  14.421  14.496
73516W        W77584  16.068  11.050  11.223
73517W        W77585  17.607  13.649  11.166
73518W        W77586  15.376  11.742  14.052
73519W        W77587  15.810  13.736  13.914
73520W        W77588  17.936  11.727  13.712
73521W        W77589  17.147  14.386  11.680
73522W        W77590  17.386  13.005  13.047
73523W        W77591  15.636  11.421  13.714
73524W        W77592  16.105  12.490  14.471
73525W        W77593  15.608  13.669  11.665
73526W        W77594  17.363  13.167  11.929
73527W        W77595  15.131  11.793  13.653
73528W        W77596  16.460  13.855  12.117
73529W        W77597  18.210  12.415  12.298
73530W        W77598  16.432  11.048  14.017
73531W        W77599  17.212  13.753  13.096
73532W        W77600  17.515  14.097  12.804
73533W        W77601  16.734  13.899  11.232
73534W        W77602  14.744  13.791  14.074
73535W        W77603  15.487  11.783  13.312
73536W        W77604  15.457  11.131  12.422
73537W        W77605  17.078  11.973  13.114
73538W        W77606  15.876  13.144  11.314
73539W        W77607  17.874  13.086  12.813
73540W        W77608  15.201  13.844  14.236
73541W        W77609  17.588  14.526  12.033
73542W        W77610  15.687  11.546  12.478
73543W        W77611  15.456  13.039  12.568
73544W        W77612  15.769  14.450  13.318
73545W        W77613  17.836  14.546  14.350
73546W        W77614  16.995  12.734  13.283
73547W        W77615  14.844  12.532  11.198
73548W        W77616  17.978  14.190  11.895
73549W        W77617  17.815  11.514  11.514
73550W        W77618  15.954  11.033  13.917
73551W        W77619  17.660  13.835  12.375
73552W        W77620  17.689  12.391  12.280
73553W        W77621  15.806  12.064  12.496
73554W        W77622  16.051  12.326  13.820
73555W        W77623  17.162  13.479  13.683
73556W        W77624  15.812  11.933  13.795
73557W        W77625  15.791  14.399  12.411
73558W        W77626  15.108  14.358  14.045
73559W        W77627  15.220  13.719  11.175
73560W        W77628  17.737  13.477  11.985
73561W        W77629  15.341  12.269  13.871
73562W        W77630  18.114  12.199  11.352
73563W        W77631  15.859  13.256  11.823
73564W        W77632  16.958  12.638  13.904
73565W        W77633  16.849  12.266  13.448
73566W        W77634  15.409  12.638  13.477
73567W        W77635  17.619  14.526  13.306
73568W        W77636  17.410  11.160  14.300
73569W        W77637  15.074  11.310  13.887
73570W        W77638  15.413  12.333  12.940
73571W        W77639  15.782  12.147  11.062
73572W        W77640  14.585  13.906  13.607
73573W        W77641  16.170  12.615  13.050
73574W        W77642  15.993  11.640  11.155
73575W        W77643  15.128  12.456  11.936
73576W        W77644  14.899  14.308  13.373
73577W        W77645  17.694  12.534  11.481
73578W        W77646  17.789  11.450  14.167
73579W        W77647  17.225  13.659  12.130
73580W        W77648  14.823  12.583  14.307
73581W        W77649  17.789  11.047  11.603
73582W        W77650  17.309  13.522  11.614
73583W        W77651  16.211  12.580  11.699
73584W        W77652  17.398  11.384  11.222
73585W        W77653  17.463  11.991  13.408
73586W        W77654  15.172  12.584  12.615
73587W        W77655  15.466  13.523  12.264
73588W        W77656  17.229  12.143  12.229
73589W        W77657  16.252  11.522  12.925
73590W        W77658  18.214  13.433  13.436
73591W        W77659  18.132  11.420  12.997
73592W        W77660  14.671  14.250  12.373
73593W        W77661  15.180  13.437  11.909
73594W        W77662  15.095  11.054  14.462
73595W        W77663  16.214  13.907  14.564
73596W        W77664  17.969  12.875  12.354
73597W        W77665  17.323  13.052  11.234
73598W        W77666  16.618  14.573  13.446
73599W        W77667  17.475  13.295  14.483
73600W        W77668  16.290  11.005  11.763
73601W        W77669  17.003  11.874  12.622
73602W        W77670  14.689  13.461  12.954
73603W        W77671  15.942  11.423  11.595
73604W        W77672  15.746  12.907  14.444
73605W        W77673  16.740  11.888  12.158
73606W        W77674  16.945  13.298  13.280
73607W        W77675  15.099  13.903  13.715
73608W        W77676  15.690  13.886  14.438
73609W        W77677  15.541  11.683  11.452
73610W        W77678  17.058  11.825  11.777
73611W        W77679  17.016  13.933  14.014
73612W        W77680  15.701  12.525  12.613
73613W        W77681  15.356  14.223  13.478
73614W        W77682  18.101  14.340  11.079
73615W        W77683  14.964  13.012  14.075
73616W        W77684  16.959  13.274  12.763
73617W        W77685  15.395  12.923  12.005
73618W        W77686  15.766  13.930  13.400
73619W        W77687  16.144  11.349  12.441
73620W        W77688  14.755  13.333  11.371
73621W        W77689  16.274  12.284  11.241
73622W        W77690  14.920  12.833  12.260
73623W        W77691  16.210  11.475  13.724
73624W        W77692  17.882  11.184  11.151
73625W        W77693  17.975  12.930  14.250
73626W        W77694  16.629  14.187  14.402
73627W        W77695  18.187  13.281  13.924
73628W        W77696  17.595  14.079  14.535
73629W        W77697  15.334  14.535  13.013
73630W        W77698  18.193  13.157  11.887
73631W        W77699  16.723  12.424  12.400
73632W        W77700  16.490  11.036  12.290
73633W        W77701  15.549  14.020  12.127
73634W        W77702  16.048  11.761  13.352
73635W        W77703  15.748  11.130  12.821
73636W        W77704  14.811  13.952  11.369
73637W        W77705  16.627  13.316  12.087
73638W        W77706  15.502  14.111  13.966
73639W        W77707  14.979  12.934  11.662
73640W        W77708  14.864  11.477  12.661
73641W        W77709  16.412  13.442  12.718
73642W        W77710  14.664  11.296  11.738
73643W        W77711  17.328  12.502  13.665
73644W        W77712  17.205  11.888  11.237
73645W        W77713  17.722  13.560  12.885
73646W        W77714  16.383  14.044  12.716
73647W        W77715  15.795  14.148  11.627
73648W        W77716  17.077  11.051  11.057
73649W        W77717  14.877  14.311  12.798
73650W        W77718  17.074  12.069  14.433
73651W        W77719  15.057  11.599  14.432
73652W        W77720  14.788  12.199  11.765
73653W        W77721  15.479  12.188  11.490
73654W        W77722  17.242  12.515  14.307
73655W        W77723  15.585  12.796  13.016
73656W        W77724  17.059  11.082  12.136
73657W        W77725  16.190  14.513  12.639
73658W        W77726  17.404  13.975  13.576
73659W        W77727  16.988  14.124  12.687
73660W        W77728  17.007  13.104  12.281
73661W        W77729  16.469  11.329  11.352
73662W        W77730  18.150  10.957  12.074
73663W        W77731  15.838  12.592  11.237
73664W        W77732  18.004  11.929  12.227
73665W        W77733  16.696  13.099  11.104
73666W        W77734  17.632  13.299  13.852
73667W        W77735  17.286  14.000  11.319
73668W        W77736  15.901  11.675  14.225
73669W        W77737  15.721  12.259  13.466
73670W        W77738  17.813  13.754  13.743
73671W        W77739  16.913  11.704  14.120
73672W        W77740  14.757  12.175  13.897
73673W        W77741  16.517  12.652  13.623
73674W        W77742  14.874  13.410  12.280
73675W        W77743  15.021  12.707  13.170
73676W        W77744  17.338  12.993  13.520
73677W        W77745  17.110  14.373  14.331
73678W        W77746  17.006  12.112  13.884
73679W        W77747  17.283  14.166  12.289
73680W        W77748  16.285  13.886  13.612
73681W        W77749  15.770  14.241  12.881
73682W        W77750  17.575  13.412  13.300
73683W        W77751  16.625  13.484  14.437
73684W        W77752  15.230  13.437  12.776
73685W        W77753  17.576  13.196  12.421
73686W        W77754  17.217  14.262  13.172
73687W        W77755  15.195  13.991  13.042
73688W        W77756  16.216  12.043  14.252
73689W        W77757  16.667  14.209  11.763
73690W        W77758  15.975  13.464  14.401
73691W        W77759  16.101  13.702  11.778
73692W        W77760  15.322  12.442  11.037
73693W        W77761  14.661  14.528  17.936
73694W        W77762  15.037  13.421  17.459
73695W        W77763  17.742  13.151  15.229
73696W        W77764  17.872  14.236  17.256
73697W        W77765  15.790  14.227  14.782
73698W        W77766  15.873  12.379  15.765
73699W        W77767  15.388  12.227  15.929
73700W        W77768  16.379  13.042  15.363
73701W        W77769  16.054  14.134  17.718
73702W        W77770  14.703  11.695  17.681
73703W        W77771  15.465  10.975  17.483
73704W        W77772  17.159  11.363  16.370
73705W        W77773  16.808  12.234  14.940
73706W        W77774  17.378  11.668  18.031
73707W        W77775  14.744  11.460  17.156
73708W        W77776  14.843  14.079  18.177
73709W        W77777  16.365  13.469  14.909
73710W        W77778  14.797  12.252  16.602
73711W        W77779  15.690  12.143  17.839
73712W        W77780  18.149  12.002  16.338
73713W        W77781  17.913  13.045  17.197
73714W        W77782  16.221  12.378  16.224
73715W        W77783  16.767  13.717  16.593
73716W        W77784  15.267  13.151  16.825
73717W        W77785  14.626  12.679  16.396
73718W        W77786  15.662  12.651  17.588
73719W        W77787  17.933  12.434  17.842
73720W        W77788  15.549  13.878  16.287
73721W        W77789  16.670  13.567  17.421
73722W        W77790  15.890  12.207  16.646
73723W        W77791  16.182  12.991  16.289
73724W        W77792  17.179  13.764  18.137
73725W        W77793  16.258  13.084  18.147
73726W        W77794  16.239  12.800  17.625
73727W        W77795  14.648  12.191  18.147
73728W        W77796  17.480  13.726  17.746
73729W        W77797  15.061  11.308  15.744
73730W        W77798  15.588  13.566  16.743
73731W        W77799  18.051  13.349  16.033
73732W        W77800  17.464  11.749  16.600
73733W        W77801  17.749  11.702  14.695
73734W        W77802  18.214  12.503  17.001
73735W        W77803  16.181  14.210  16.754
73736W        W77804  17.955  13.676  15.192
73737W        W77805  15.084  14.462  14.946
73738W        W77806  15.477  14.508  15.622
73739W        W77807  15.274  11.262  17.048
73740W        W77808  17.897  12.280  17.323
73741W        W77809  17.302  12.702  15.782
73742W        W77810  17.268  12.390  14.809
73743W        W77811  16.476  13.534  16.949
73744W        W77812  16.282  11.864  16.148
73745W        W77813  16.882  13.951  17.142
73746W        W77814  17.753  12.742  15.564
73747W        W77815  16.655  11.400  15.580
73748W        W77816  15.312  14.094  15.263
73749W        W77817  14.683  11.593  15.862
73750W        W77818  17.469  12.200  16.336
73751W        W77819  14.927  13.817  16.251
73752W        W77820  16.268  14.167  15.121
73753W        W77821  17.660  12.193  14.585
73754W        W77822  14.683  13.951  16.749
73755W        W77823  15.474  13.523  17.229
73756W        W77824  15.847  12.883  15.848
73757W        W77825  15.869  11.288  16.941
73758W        W77826  18.098  11.050  16.238
73759W        W77827  15.317  12.922  14.706
73760W        W77828  14.972  11.955  14.885
73761W        W77829  15.034  13.911  15.679
73762W        W77830  16.165  13.394  15.927
73763W        W77831  17.497  14.253  17.641
73764W        W77832  16.423  11.895  15.325
73765W        W77833  17.806  14.293  16.097
73766W        W77834  17.483  12.146  17.695
73767W        W77835  18.196  13.802  15.829
73768W        W77836  16.823  13.094  17.313
73769W        W77837  14.589  12.645  15.519
73770W        W77838  15.700  13.060  17.092
73771W        W77839  16.904  12.324  15.470
73772W        W77840  16.781  12.814  15.574
73773W        W77841  15.124  12.234  17.048
73774W        W77842  15.109  12.110  17.970
73775W        W77843  14.999  11.027  16.129
73776W        W77844  16.767  11.374  16.690
73777W        W77845  16.415  11.559  17.853
73778W        W77846  16.770  11.708  15.031
73779W        W77847  17.953  14.101  17.785
73780W        W77848  16.920  11.182  17.824
73781W        W77849  17.939  13.483  17.946
73782W        W77850  17.369  11.650  17.542
73783W        W77851  17.169  11.588  15.812
73784W        W77852  17.562  12.722  18.216
73785W        W77853  15.302  14.298  16.202
73786W        W77854  15.960  12.015  15.188
73787W        W77855  15.529  11.299  17.852
73788W        W77856  17.581  11.783  15.533
73789W        W77857  17.948  12.265  15.478
73790W        W77858  15.691  14.482  17.949
73791W        W77859  15.617  11.018  15.184
73792W        W77860  17.938  11.552  16.219
73793W        W77861  18.088  13.801  14.664
73794W        W77862  14.995  13.004  16.366
73795W        W77863  16.912  11.591  14.596
73796W        W77864  18.046  13.923  16.316
73797W        W77865  18.085  11.117  17.066
73798W        W77866  16.530  12.329  17.620
73799W        W77867  16.623  13.668  15.323
73800W        W77868  17.023  12.962  18.063
73801W        W77869  16.697  10.939  16.372
73802W        W77870  15.309  11.842  16.435
73803W        W77871  14.863  13.042  17.209
73804W        W77872  16.722  14.235  15.915
73805W        W77873  17.916  11.832  16.787
73806W        W77874  16.553  14.179  17.554
73807W        W77875  17.896  13.238  14.759
73808W        W77876  16.331  12.721  15.820
73809W        W77877  18.183  11.232  17.561
73810W        W77878  16.332  13.067  17.155
73811W        W77879  16.549  11.953  16.600
73812W        W77880  17.401  12.251  15.438
73813W        W77881  17.688  11.984  15.080
73814W        W77882  17.497  14.024  15.469
73815W        W77883  17.331  13.627  16.265
73816W        W77884  17.227  12.706  15.243
73817W        W77885  16.660  12.916  16.229
73818W        W77886  17.541  12.704  16.296
73819W        W77887  14.916  11.719  16.720
73820W        W77888  17.694  12.771  17.547
73821W        W77889  18.045  14.389  16.693
73822W        W77890  15.975  13.833  16.095
73823W        W77891  16.982  14.366  17.419
73824W        W77892  16.976  11.696  17.183
73825W        W77893  16.183  14.404  17.244
73826W        W77894  17.880  11.358  15.710
73827W        W77895  17.671  12.677  17.011
73828W        W77896  14.654  11.998  17.049
73829W        W77897  17.514  11.793  16.067
73830W        W77898  17.925  11.944  17.844
73831W        W77899  16.810  13.643  16.062
73832W        W77900  16.066  14.234  15.675
73833W        W77901  15.181  11.414  14.933
73834W        W77902  16.285  11.068  16.743
73835W        W77903  15.313  14.188  14.591
73836W        W77904  15.687  12.654  15.342
73837W        W77905  16.341  13.283  17.655
73838W        W77906  16.171  11.641  15.645
73839W        W77907  17.527  11.238  16.073
73840W        W77908  17.247  14.520  16.401
73841W        W77909  16.659  14.168  16.741
73842W        W77910  16.055  13.205  16.702
73843W        W77911  17.825  13.928  16.828
73844W        W77912  15.519  11.431  15.597
73845W        W77913  16.041  13.728  16.557
73846W        W77914  15.524  11.659  14.622
73847W        W77915  16.325  12.268  17.016
73848W        W77916  17.173  11.134  16.886
73849W        W77917  14.593  12.977  16.771
73850W        W77918  16.297  12.795  14.929
73851W        W77919  15.565  11.110  14.699
73852W        W77920  16.303  12.191  15.750
73853W        W77921  17.273  11.167  17.449
73854W        W77922  15.861  13.179  17.558
73855W        W77923  16.665  12.961  17.775
73856W        W77924  17.282  12.991  17.668
73857W        W77925  16.566  11.131  18.173
73858W        W77926  15.788  11.747  16.566
73859W        W77927  15.214  11.703  15.964
73860W        W77928  15.000  14.415  15.640
73861W        W77929  16.332  13.745  17.765
73862W        W77930  15.367  13.230  15.124
73863W        W77931  17.047  12.615  16.345
73864W        W77932  17.327  12.414  16.744
73865W        W77933  16.532  13.088  16.678
73866W        W77934  17.002  13.462  14.810
73867W        W77935  16.674  11.483  16.138
73868W        W77936  18.153  11.761  15.406
73869W        W77937  14.647  14.350  17.437
73870W        W77938  15.064  13.576  16.969
73871W        W77939  14.631  14.422  15.201
73872W        W77940  16.530  11.692  17.007
73873W        W77941  15.893  13.715  14.856
73874W        W77942  17.798  14.097  15.042
73875W        W77943  16.773  12.750  15.056
73876W        W77944  15.616  11.941  15.573
73877W        W77945  16.448  11.851  14.625
73878W        W77946  17.032  13.416  17.803
73879W        W77947  17.385  11.322  15.420
73880W        W77948  14.715  11.170  14.868
73881W        W77949  16.001  13.489  17.158
73882W        W77950  15.800  13.405  16.250
73883W        W77951  15.542  13.357  14.648
73884W        W77952  14.783  13.598  15.416
73885W        W77953  15.287  12.668  17.858
73886W        W77954  15.991  11.228  18.044
73887W        W77955  16.700  11.370  17.400
73888W        W77956  15.895  11.138  15.681
73889W        W77957  16.954  11.215  15.186
73890W        W77958  14.899  11.147  16.763
73891W        W77959  14.947  12.110  16.133
73892W        W77960  17.636  11.218  16.539
73893W        W77961  15.058  11.716  15.353
73894W        W77962  17.629  11.404  16.969
73895W        W77963  18.025  12.607  14.654
73896W        W77964  15.317  11.365  16.473
73897W        W77965  16.431  11.937  17.413
73898W        W77966  14.579  11.627  14.891
73899W        W77967  15.365  13.016  17.452
73900W        W77968  16.723  12.414  16.631
73901W        W77969  16.590  14.493  14.927
73902W        W77970  14.736  13.000  14.624
73903W        W77971  15.471  13.411  17.750
73904W        W77972  14.992  12.578  17.381
73905W        W77973  15.983  12.683  17.175
73906W        W77974  17.751  11.042  17.437
73907W        W77975  18.149  12.652  17.428
73908W        W77976  18.137  12.852  15.114
73909W        W77977  17.000  13.184  15.213
73910W        W77978  17.474  14.484  14.908
73911W        W77979  16.651  12.474  18.050
73912W        W77980  14.981  13.441  18.090
73913W        W77981  18.187  11.363  18.042
73914W        W77982  17.905  12.291  16.663
73915W        W77983  16.213  14.421  18.140
73916W        W77984  16.068  11.050  14.867
73917W        W77985  17.607  13.649  14.810
73918W        W77986  15.376  11.742  17.696
73919W        W77987  15.810  13.736  17.558
73920W        W77988  17.936  11.727  17.356
73921W        W77989  17.147  14.386  15.324
73922W        W77990  17.386  13.005  16.691
73923W        W77991  15.636  11.421  17.358
73924W        W77992  16.105  12.490  18.115
73925W        W77993  15.608  13.669  15.309
73926W        W77994  17.363  13.167  15.573
73927W        W77995  15.131  11.793  17.297
73928W        W77996  16.460  13.855  15.761
73929W        W77997  18.210  12.415  15.942
73930W        W77998  16.432  11.048  17.661
73931W        W77999  17.212  13.753  16.740
73932W        W78000  17.515  14.097  16.448
73933W        W78001  16.734  13.899  14.876
73934W        W78002  14.744  13.791  17.718
73935W        W78003  15.487  11.783  16.956
73936W        W78004  15.457  11.131  16.066
73937W        W78005  17.078  11.973  16.758
73938W        W78006  15.876  13.144  14.958
73939W        W78007  17.874  13.086  16.457
73940W        W78008  15.201  13.844  17.880
73941W        W78009  17.588  14.526  15.677
73942W        W78010  15.687  11.546  16.122
73943W        W78011  15.456  13.039  16.212
73944W        W78012  15.769  14.450  16.962
73945W        W78013  17.836  14.546  17.994
73946W        W78014  16.995  12.734  16.927
73947W        W78015  14.844  12.532  14.842
73948W        W78016  17.978  14.190  15.539
73949W        W78017  17.815  11.514  15.158
73950W        W78018  15.954  11.033  17.561
73951W        W78019  17.660  13.835  16.019
73952W        W78020  17.689  12.391  15.924
73953W        W78021  15.806  12.064  16.140
73954W        W78022  16.051  12.326  17.464
73955W        W78023  17.162  13.479  17.327
73956W        W78024  15.812  11.933  17.439
73957W        W78025  15.791  14.399  16.055
73958W        W78026  15.108  14.358  17.689
73959W        W78027  15.220  13.719  14.819
73960W        W78028  17.737  13.477  15.629
73961W        W78029  15.341  12.269  17.515
73962W        W78030  18.114  12.199  14.996
73963W        W78031  15.859  13.256  15.467
73964W        W78032  16.958  12.638  17.548
73965W        W78033  16.849  12.266  17.092
73966W        W78034  15.409  12.638  17.121
73967W        W78035  17.619  14.526  16.950
73968W        W78036  17.410  11.160  17.944
73969W        W78037  15.074  11.310  17.531
73970W        W78038  15.413  12.333  16.584
73971W        W78039  15.782  12.147  14.706
73972W        W78040  14.585  13.906  17.251
73973W        W78041  16.170  12.615  16.694
73974W        W78042  15.993  11.640  14.799
73975W        W78043  15.128  12.456  15.580
73976W        W78044  14.899  14.308  17.017
73977W        W78045  17.694  12.534  15.125
73978W        W78046  17.789  11.450  17.811
73979W        W78047  17.225  13.659  15.774
73980W        W78048  14.823  12.583  17.951
73981W        W78049  17.789  11.047  15.247
73982W        W78050  17.309  13.522  15.258
73983W        W78051  16.211  12.580  15.343
73984W        W78052  17.398  11.384  14.866
73985W        W78053  17.463  11.991  17.052
73986W        W78054  15.172  12.584  16.259
73987W        W78055  15.466  13.523  15.908
73988W        W78056  17.229  12.143  15.873
73989W        W78057  16.252  11.522  16.569
73990W        W78058  18.214  13.433  17.080
73991W        W78059  18.132  11.420  16.641
73992W        W78060  14.671  14.250  16.017
73993W        W78061  15.180  13.437  15.553
73994W        W78062  15.095  11.054  18.106
73995W        W78063  16.214  13.907  18.208
73996W        W78064  17.969  12.875  15.998
73997W        W78065  17.323  13.052  14.878
73998W        W78066  16.618  14.573  17.090
73999W        W78067  17.475  13.295  18.127
74000W        W78068  16.290  11.005  15.407
74001W        W78069  17.003  11.874  16.266
74002W        W78070  14.689  13.461  16.598
74003W        W78071  15.942  11.423  15.239
74004W        W78072  15.746  12.907  18.088
74005W        W78073  16.740  11.888  15.802
74006W        W78074  16.945  13.298  16.924
74007W        W78075  15.099  13.903  17.359
74008W        W78076  15.690  13.886  18.082
74009W        W78077  15.541  11.683  15.096
74010W        W78078  17.058  11.825  15.421
74011W        W78079  17.016  13.933  17.658
74012W        W78080  15.701  12.525  16.257
74013W        W78081  15.356  14.223  17.122
74014W        W78082  18.101  14.340  14.723
74015W        W78083  14.964  13.012  17.719
74016W        W78084  16.959  13.274  16.407
74017W        W78085  15.395  12.923  15.649
74018W        W78086  15.766  13.930  17.044
74019W        W78087  16.144  11.349  16.085
74020W        W78088  14.755  13.333  15.015
74021W        W78089  16.274  12.284  14.885
74022W        W78090  14.920  12.833  15.904
74023W        W78091  16.210  11.475  17.368
74024W        W78092  17.882  11.184  14.795
74025W        W78093  17.975  12.930  17.894
74026W        W78094  16.629  14.187  18.046
74027W        W78095  18.187  13.281  17.568
74028W        W78096  17.595  14.079  18.179
74029W        W78097  15.334  14.535  16.657
74030W        W78098  18.193  13.157  15.531
74031W        W78099  16.723  12.424  16.044
74032W        W78100  16.490  11.036  15.934
74033W        W78101  15.549  14.020  15.771
74034W        W78102  16.048  11.761  16.996
74035W        W78103  15.748  11.130  16.465
74036W        W78104  14.811  13.952  15.013
74037W        W78105  16.627  13.316  15.731
74038W        W78106  15.502  14.111  17.610
74039W        W78107  14.979  12.934  15.306
74040W        W78108  14.864  11.477  16.305
74041W        W78109  16.412  13.442  16.362
74042W        W78110  14.664  11.296  15.382
74043W        W78111  17.328  12.502  17.309
74044W        W78112  17.205  11.888  14.881
74045W        W78113  17.722  13.560  16.529
74046W        W78114  16.383  14.044  16.360
74047W        W78115  15.795  14.148  15.271
74048W        W78116  17.077  11.051  14.701
74049W        W78117  14.877  14.311  16.442
74050W        W78118  17.074  12.069  18.077
74051W        W78119  15.057  11.599  18.076
74052W        W78120  14.788  12.199  15.409
74053W        W78121  15.479  12.188  15.134
74054W        W78122  17.242  12.515  17.951
74055W        W78123  15.585  12.796  16.660
74056W        W78124  17.059  11.082  15.780
74057W        W78125  16.190  14.513  16.283
74058W        W78126  17.404  13.975  17.220
74059W        W78127  16.988  14.124  16.331
74060W        W78128  17.007  13.104  15.925
74061W        W78129  16.469  11.329  14.996
74062W        W78130  18.150  10.957  15.718
74063W        W78131  15.838  12.592  14.881
74064W        W78132  18.004  11.929  15.871
74065W        W78133  16.696  13.099  14.748
74066W        W78134  17.632  13.299  17.496
74067W        W78135  17.286  14.000  14.963
74068W        W78136  15.901  11.675  17.869
74069W        W78137  15.721  12.259  17.110
74070W        W78138  17.813  13.754  17.387
74071W        W78139  16.913  11.704  17.764
74072W        W78140  14.757  12.175  17.541
74073W        W78141  16.517  12.652  17.267
74074W        W78142  14.874  13.410  15.924
74075W        W78143  15.021  12.707  16.814
74076W        W78144  17.338  12.993  17.164
74077W        W78145  17.110  14.373  17.975
74078W        W78146  17.006  12.112  17.528
74079W        W78147  17.283  14.166  15.933
74080W        W78148  16.285  13.886  17.256
74081W        W78149  15.770  14.241  16.525
74082W        W78150  17.575  13.412  16.944
74083W        W78151  16.625  13.484  18.081
74084W        W78152  15.230  13.437  16.420
74085W        W78153  17.576  13.196  16.065
74086W        W78154  17.217  14.262  16.816
74087W        W78155  15.195  13.991  16.686
74088W        W78156  16.216  12.043  17.896
74089W        W78157  16.667  14.209  15.407
74090W        W78158  15.975  13.464  18.045
74091W        W78159  16.101  13.702  15.422
74092W        W78160  15.322  12.442  14.681
74093W        W78161  14.661  14.528  21.580
74094W        W78162  15.037  13.421  21.103
74095W        W78163  17.742  13.151  18.873
74096W        W78164  17.872  14.236  20.900
74097W        W78165  15.790  14.227  18.426
74098W        W78166  15.873  12.379  19.409
74099W        W78167  15.388  12.227  19.573
74100W        W78168  16.379  13.042  19.007
74101W        W78169  16.054  14.134  21.362
74102W        W78170  14.703  11.695  21.325
74103W        W78171  15.465  10.975  21.127
74104W        W78172  17.159  11.363  20.014
74105W        W78173  16.808  12.234  18.584
74106W        W78174  17.378  11.668  21.675
74107W        W78175  14.744  11.460  20.800
74108W        W78176  14.843  14.079  21.821
74109W        W78177  16.365  13.469  18.553
74110W        W78178  14.797  12.252  20.246
74111W        W78179  15.690  12.143  21.483
74112W        W78180  18.149  12.002  19.982
74113W        W78181  17.913  13.045  20.841
74114W        W78182  16.221  12.378  19.868
74115W        W78183  16.767  13.717  20.237
74116W        W78184  15.267  13.151  20.469
74117W        W78185  14.626  12.679  20.040
74118W        W78186  15.662  12.651  21.232
74119W        W78187  17.933  12.434  21.486
74120W        W78188  15.549  13.878  19.931
74121W        W78189  16.670  13.567  21.065
74122W        W78190  15.890  12.207  20.290
74123W        W78191  16.182  12.991  19.933
74124W        W78192  17.179  13.764  21.781
74125W        W78193  16.258  13.084  21.791
74126W        W78194  16.239  12.800  21.269
74127W        W78195  14.648  12.191  21.791
74128W        W78196  17.480  13.726  21.390
74129W        W78197  15.061  11.308  19.388
74130W        W78198  15.588  13.566  20.387
74131W        W78199  18.051  13.349  19.677
74132W        W78200  17.464  11.749  20.244
74133W        W78201  17.749  11.702  18.339
74134W        W78202  18.214  12.503  20.645
74135W        W78203  16.181  14.210  20.398
74136W        W78204  17.955  13.676  18.836
74137W        W78205  15.084  14.462  18.590
74138W        W78206  15.477  14.508  19.266
74139W        W78207  15.274  11.262  20.692
74140W        W78208  17.897  12.280  20.967
74141W        W78209  17.302  12.702  19.426
74142W        W78210  17.268  12.390  18.453
74143W        W78211  16.476  13.534  20.593
74144W        W78212  16.282  11.864  19.792
74145W        W78213  16.882  13.951  20.786
74146W        W78214  17.753  12.742  19.208
74147W        W78215  16.655  11.400  19.224
74148W        W78216  15.312  14.094  18.907
74149W        W78217  14.683  11.593  19.506
74150W        W78218  17.469  12.200  19.980
74151W        W78219  14.927  13.817  19.895
74152W        W78220  16.268  14.167  18.765
74153W        W78221  17.660  12.193  18.229
74154W        W78222  14.683  13.951  20.393
74155W        W78223  15.474  13.523  20.873
74156W        W78224  15.847  12.883  19.492
74157W        W78225  15.869  11.288  20.585
74158W        W78226  18.098  11.050  19.882
74159W        W78227  15.317  12.922  18.350
74160W        W78228  14.972  11.955  18.529
74161W        W78229  15.034  13.911  19.323
74162W        W78230  16.165  13.394  19.571
74163W        W78231  17.497  14.253  21.285
74164W        W78232  16.423  11.895  18.969
74165W        W78233  17.806  14.293  19.741
74166W        W78234  17.483  12.146  21.339
74167W        W78235  18.196  13.802  19.473
74168W        W78236  16.823  13.094  20.957
74169W        W78237  14.589  12.645  19.163
74170W        W78238  15.700  13.060  20.736
74171W        W78239  16.904  12.324  19.114
74172W        W78240  16.781  12.814  19.218
74173W        W78241  15.124  12.234  20.692
74174W        W78242  15.109  12.110  21.614
74175W        W78243  14.999  11.027  19.773
74176W        W78244  16.767  11.374  20.334
74177W        W78245  16.415  11.559  21.497
74178W        W78246  16.770  11.708  18.675
74179W        W78247  17.953  14.101  21.429
74180W        W78248  16.920  11.182  21.468
74181W        W78249  17.939  13.483  21.590
74182W        W78250  17.369  11.650  21.186
74183W        W78251  17.169  11.588  19.456
74184W        W78252  17.562  12.722  21.860
74185W        W78253  15.302  14.298  19.846
74186W        W78254  15.960  12.015  18.832
74187W        W78255  15.529  11.299  21.496
74188W        W78256  17.581  11.783  19.177
74189W        W78257  17.948  12.265  19.122
74190W        W78258  15.691  14.482  21.593
74191W        W78259  15.617  11.018  18.828
74192W        W78260  17.938  11.552  19.863
74193W        W78261  18.088  13.801  18.308
74194W        W78262  14.995  13.004  20.010
74195W        W78263  16.912  11.591  18.240
74196W        W78264  18.046  13.923  19.960
74197W        W78265  18.085  11.117  20.710
74198W        W78266  16.530  12.329  21.264
74199W        W78267  16.623  13.668  18.967
74200W        W78268  17.023  12.962  21.707
74201W        W78269  16.697  10.939  20.016
74202W        W78270  15.309  11.842  20.079
74203W        W78271  14.863  13.042  20.853
74204W        W78272  16.722  14.235  19.559
74205W        W78273  17.916  11.832  20.431
74206W        W78274  16.553  14.179  21.198
74207W        W78275  17.896  13.238  18.403
74208W        W78276  16.331  12.721  19.464
74209W        W78277  18.183  11.232  21.205
74210W        W78278  16.332  13.067  20.799
74211W        W78279  16.549  11.953  20.244
74212W        W78280  17.401  12.251  19.082
74213W        W78281  17.688  11.984  18.724
74214W        W78282  17.497  14.024  19.113
74215W        W78283  17.331  13.627  19.909
74216W        W78284  17.227  12.706  18.887
74217W        W78285  16.660  12.916  19.873
74218W        W78286  17.541  12.704  19.940
74219W        W78287  14.916  11.719  20.364
74220W        W78288  17.694  12.771  21.191
74221W        W78289  18.045  14.389  20.337
74222W        W78290  15.975  13.833  19.739
74223W        W78291  16.982  14.366  21.063
74224W        W78292  16.976  11.696  20.827
74225W        W78293  16.183  14.404  20.888
74226W        W78294  17.880  11.358  19.354
74227W        W78295  17.671  12.677  20.655
74228W        W78296  14.654  11.998  20.693
74229W        W78297  17.514  11.793  19.711
74230W        W78298  17.925  11.944  21.488
74231W        W78299  16.810  13.643  19.706
74232W        W78300  16.066  14.234  19.319
74233W        W78301  15.181  11.414  18.577
74234W        W78302  16.285  11.068  20.387
74235W        W78303  15.313  14.188  18.235
74236W        W78304  15.687  12.654  18.986
74237W        W78305  16.341  13.283  21.299
74238W        W78306  16.171  11.641  19.289
74239W        W78307  17.527  11.238  19.717
74240W        W78308  17.247  14.520  20.045
74241W        W78309  16.659  14.168  20.385
74242W        W78310  16.055  13.205  20.346
74243W        W78311  17.825  13.928  20.472
74244W        W78312  15.519  11.431  19.241
74245W        W78313  16.041  13.728  20.201
74246W        W78314  15.524  11.659  18.266
74247W        W78315  16.325  12.268  20.660
74248W        W78316  17.173  11.134  20.530
74249W        W78317  14.593  12.977  20.415
74250W        W78318  16.297  12.795  18.573
74251W        W78319  15.565  11.110  18.343
74252W        W78320  16.303  12.191  19.394
74253W        W78321  17.273  11.167  21.093
74254W        W78322  15.861  13.179  21.202
74255W        W78323  16.665  12.961  21.419
74256W        W78324  17.282  12.991  21.312
74257W        W78325  16.566  11.131  21.817
74258W        W78326  15.788  11.747  20.210
74259W        W78327  15.214  11.703  19.608
74260W        W78328  15.000  14.415  19.284
74261W        W78329  16.332  13.745  21.409
74262W        W78330  15.367  13.230  18.768
74263W        W78331  17.047  12.615  19.989
74264W        W78332  17.327  12.414  20.388
74265W        W78333  16.532  13.088  20.322
74266W        W78334  17.002  13.462  18.454
74267W        W78335  16.674  11.483  19.782
74268W        W78336  18.153  11.761  19.050
74269W        W78337  14.647  14.350  21.081
74270W        W78338  15.064  13.576  20.613
74271W        W78339  14.631  14.422  18.845
74272W        W78340  16.530  11.692  20.651
74273W        W78341  15.893  13.715  18.500
74274W        W78342  17.798  14.097  18.686
74275W        W78343  16.773  12.750  18.700
74276W        W78344  15.616  11.941  19.217
74277W        W78345  16.448  11.851  18.269
74278W        W78346  17.032  13.416  21.447
74279W        W78347  17.385  11.322  19.064
74280W        W78348  14.715  11.170  18.512
74281W        W78349  16.001  13.489  20.802
74282W        W78350  15.800  13.405  19.894
74283W        W78351  15.542  13.357  18.292
74284W        W78352  14.783  13.598  19.060
74285W        W78353  15.287  12.668  21.502
74286W        W78354  15.991  11.228  21.688
74287W        W78355  16.700  11.370  21.044
74288W        W78356  15.895  11.138  19.325
74289W        W78357  16.954  11.215  18.830
74290W        W78358  14.899  11.147  20.407
74291W        W78359  14.947  12.110  19.777
74292W        W78360  17.636  11.218  20.183
74293W        W78361  15.058  11.716  18.997
74294W        W78362  17.629  11.404  20.613
74295W        W78363  18.025  12.607  18.298
74296W        W78364  15.317  11.365  20.117
74297W        W78365  16.431  11.937  21.057
74298W        W78366  14.579  11.627  18.535
74299W        W78367  15.365  13.016  21.096
74300W        W78368  16.723  12.414  20.275
74301W        W78369  16.590  14.493  18.571
74302W        W78370  14.736  13.000  18.268
74303W        W78371  15.471  13.411  21.394
74304W        W78372  14.992  12.578  21.025
74305W        W78373  15.983  12.683  20.819
74306W        W78374  17.751  11.042  21.081
74307W        W78375  18.149  12.652  21.072
74308W        W78376  18.137  12.852  18.758
74309W        W78377  17.000  13.184  18.857
74310W        W78378  17.474  14.484  18.552
74311W        W78379  16.651  12.474  21.694
74312W        W78380  14.981  13.441  21.734
74313W        W78381  18.187  11.363  21.686
74314W        W78382  17.905  12.291  20.307
74315W        W78383  16.213  14.421  21.784
74316W        W78384  16.068  11.050  18.511
74317W        W78385  17.607  13.649  18.454
74318W        W78386  15.376  11.742  21.340
74319W        W78387  15.810  13.736  21.202
74320W        W78388  17.936  11.727  21.000
74321W        W78389  17.147  14.386  18.968
74322W        W78390  17.386  13.005  20.335
74323W        W78391  15.636  11.421  21.002
74324W        W78392  16.105  12.490  21.759
74325W        W78393  15.608  13.669  18.953
74326W        W78394  17.363  13.167  19.217
74327W        W78395  15.131  11.793  20.941
74328W        W78396  16.460  13.855  19.405
74329W        W78397  18.210  12.415  19.586
74330W        W78398  16.432  11.048  21.305
74331W        W78399  17.212  13.753  20.384
74332W        W78400  17.515  14.097  20.092
74333W        W78401  16.734  13.899  18.520
74334W        W78402  14.744  13.791  21.362
74335W        W78403  15.487  11.783  20.600
74336W        W78404  15.457  11.131  19.710
74337W        W78405  17.078  11.973  20.402
74338W        W78406  15.876  13.144  18.602
74339W        W78407  17.874  13.086  20.101
74340W        W78408  15.201  13.844  21.524
74341W        W78409  17.588  14.526  19.321
74342W        W78410  15.687  11.546  19.766
74343W        W78411  15.456  13.039  19.856
74344W        W78412  15.769  14.450  20.606
74345W        W78413  17.836  14.546  21.638
74346W        W78414  16.995  12.734  20.571
74347W        W78415  14.844  12.532  18.486
74348W        W78416  17.978  14.190  19.183
74349W        W78417  17.815  11.514  18.802
74350W        W78418  15.954  11.033  21.205
74351W        W78419  17.660  13.835  19.663
74352W        W78420  17.689  12.391  19.568
74353W        W78421  15.806  12.064  19.784
74354W        W78422  16.051  12.326  21.108
74355W        W78423  17.162  13.479  20.971
74356W        W78424  15.812  11.933  21.083
74357W        W78425  15.791  14.399  19.699
74358W        W78426  15.108  14.358  21.333
74359W        W78427  15.220  13.719  18.463
74360W        W78428  17.737  13.477  19.273
74361W        W78429  15.341  12.269  21.159
74362W        W78430  18.114  12.199  18.640
74363W        W78431  15.859  13.256  19.111
74364W        W78432  16.958  12.638  21.192
74365W        W78433  16.849  12.266  20.736
74366W        W78434  15.409  12.638  20.765
74367W        W78435  17.619  14.526  20.594
74368W        W78436  17.410  11.160  21.588
74369W        W78437  15.074  11.310  21.175
74370W        W78438  15.413  12.333  20.228
74371W        W78439  15.782  12.147  18.350
74372W        W78440  14.585  13.906  20.895
74373W        W78441  16.170  12.615  20.338
74374W        W78442  15.993  11.640  18.443
74375W        W78443  15.128  12.456  19.224
74376W        W78444  14.899  14.308  20.661
74377W        W78445  17.694  12.534  18.769
74378W        W78446  17.789  11.450  21.455
74379W        W78447  17.225  13.659  19.418
74380W        W78448  14.823  12.583  21.595
74381W        W78449  17.789  11.047  18.891
74382W        W78450  17.309  13.522  18.902
74383W        W78451  16.211  12.580  18.987
74384W        W78452  17.398  11.384  18.510
74385W        W78453  17.463  11.991  20.696
74386W        W78454  15.172  12.584  19.903
74387W        W78455  15.466  13.523  19.552
74388W        W78456  17.229  12.143  19.517
74389W        W78457  16.252  11.522  20.213
74390W        W78458  18.214  13.433  20.724
74391W        W78459  18.132  11.420  20.285
74392W        W78460  14.671  14.250  19.661
74393W        W78461  15.180  13.437  19.197
74394W        W78462  15.095  11.054  21.750
74395W        W78463  16.214  13.907  21.852
74396W        W78464  17.969  12.875  19.642
74397W        W78465  17.323  13.052  18.522
74398W        W78466  16.618  14.573  20.734
74399W        W78467  17.475  13.295  21.771
74400W        W78468  16.290  11.005  19.051
74401W        W78469  17.003  11.874  19.910
74402W        W78470  14.689  13.461  20.242
74403W        W78471  15.942  11.423  18.883
74404W        W78472  15.746  12.907  21.732
74405W        W78473  16.740  11.888  19.446
74406W        W78474  16.945  13.298  20.568
74407W        W78475  15.099  13.903  21.003
74408W        W78476  15.690  13.886  21.726
74409W        W78477  15.541  11.683  18.740
74410W        W78478  17.058  11.825  19.065
74411W        W78479  17.016  13.933  21.302
74412W        W78480  15.701  12.525  19.901
74413W        W78481  15.356  14.223  20.766
74414W        W78482  18.101  14.340  18.367
74415W        W78483  14.964  13.012  21.363
74416W        W78484  16.959  13.274  20.051
74417W        W78485  15.395  12.923  19.293
74418W        W78486  15.766  13.930  20.688
74419W        W78487  16.144  11.349  19.729
74420W        W78488  14.755  13.333  18.659
74421W        W78489  16.274  12.284  18.529
74422W        W78490  14.920  12.833  19.548
74423W        W78491  16.210  11.475  21.012
74424W        W78492  17.882  11.184  18.439
74425W        W78493  17.975  12.930  21.538
74426W        W78494  16.629  14.187  21.690
74427W        W78495  18.187  13.281  21.212
74428W        W78496  17.595  14.079  21.823
74429W        W78497  15.334  14.535  20.301
74430W        W78498  18.193  13.157  19.175
74431W        W78499  16.723  12.424  19.688
74432W        W78500  16.490  11.036  19.578
74433W        W78501  15.549  14.020  19.415
74434W        W78502  16.048  11.761  20.640
74435W        W78503  15.748  11.130  20.109
74436W        W78504  14.811  13.952  18.657
74437W        W78505  16.627  13.316  19.375
74438W        W78506  15.502  14.111  21.254
74439W        W78507  14.979  12.934  18.950
74440W        W78508  14.864  11.477  19.949
74441W        W78509  16.412  13.442  20.006
74442W        W78510  14.664  11.296  19.026
74443W        W78511  17.328  12.502  20.953
74444W        W78512  17.205  11.888  18.525
74445W        W78513  17.722  13.560  20.173
74446W        W78514  16.383  14.044  20.004
74447W        W78515  15.795  14.148  18.915
74448W        W78516  17.077  11.051  18.345
74449W        W78517  14.877  14.311  20.086
74450W        W78518  17.074  12.069  21.721
74451W        W78519  15.057  11.599  21.720
74452W        W78520  14.788  12.199  19.053
74453W        W78521  15.479  12.188  18.778
74454W        W78522  17.242  12.515  21.595
74455W        W78523  15.585  12.796  20.304
74456W        W78524  17.059  11.082  19.424
74457W        W78525  16.190  14.513  19.927
74458W        W78526  17.404  13.975  20.864
74459W        W78527  16.988  14.124  19.975
74460W        W78528  17.007  13.104  19.569
74461W        W78529  16.469  11.329  18.640
74462W        W78530  18.150  10.957  19.362
74463W        W78531  15.838  12.592  18.525
74464W        W78532  18.004  11.929  19.515
74465W        W78533  16.696  13.099  18.392
74466W        W78534  17.632  13.299  21.140
74467W        W78535  17.286  14.000  18.607
74468W        W78536  15.901  11.675  21.513
74469W        W78537  15.721  12.259  20.754
74470W        W78538  17.813  13.754  21.031
74471W        W78539  16.913  11.704  21.408
74472W        W78540  14.757  12.175  21.185
74473W        W78541  16.517  12.652  20.911
74474W        W78542  14.874  13.410  19.568
74475W        W78543  15.021  12.707  20.458
74476W        W78544  17.338  12.993  20.808
74477W        W78545  17.110  14.373  21.619
74478W        W78546  17.006  12.112  21.172
74479W        W78547  17.283  14.166  19.577
74480W        W78548  16.285  13.886  20.900
74481W        W78549  15.770  14.241  20.169
74482W        W78550  17.575  13.412  20.588
74483W        W78551  16.625  13.484  21.725
74484W        W78552  15.230  13.437  20.064
74485W        W78553  17.576  13.196  19.709
74486W        W78554  17.217  14.262  20.460
74487W        W78555  15.195  13.991  20.330
74488W        W78556  16.216  12.043  21.540
74489W        W78557  16.667  14.209  19.051
74490W        W78558  15.975  13.464  21.689
74491W        W78559  16.101  13.702  19.066
74492W        W78560  15.322  12.442  18.325
74493W        W78561  17.742  13.151  22.518
74494W        W78562  15.790  14.227  22.071
74495W        W78563  15.873  12.379  23.054
74496W        W78564  15.388  12.227  23.218
74497W        W78565  16.379  13.042  22.652
74498W        W78566  16.808  12.234  22.229
74499W        W78567  16.365  13.469  22.198
74500W        W78568  15.061  11.308  23.033
74501W        W78569  17.749  11.702  21.984
74502W        W78570  17.955  13.676  22.481
74503W        W78571  15.084  14.462  22.235
74504W        W78572  15.477  14.508  22.911
74505W        W78573  17.302  12.702  23.071
74506W        W78574  17.268  12.390  22.098
74507W        W78575  17.753  12.742  22.853
74508W        W78576  16.655  11.400  22.869
74509W        W78577  15.312  14.094  22.552
74510W        W78578  16.268  14.167  22.410
74511W        W78579  17.660  12.193  21.874
74512W        W78580  15.847  12.883  23.137
74513W        W78581  15.317  12.922  21.995
74514W        W78582  14.972  11.955  22.174
74515W        W78583  15.034  13.911  22.968
74516W        W78584  16.165  13.394  23.216
74517W        W78585  16.423  11.895  22.614
74518W        W78586  14.589  12.645  22.808
74519W        W78587  16.904  12.324  22.759
74520W        W78588  16.781  12.814  22.863
74521W        W78589  16.770  11.708  22.320
74522W        W78590  17.169  11.588  23.101
74523W        W78591  15.960  12.015  22.477
74524W        W78592  17.581  11.783  22.822
74525W        W78593  17.948  12.265  22.767
74526W        W78594  15.617  11.018  22.473
74527W        W78595  18.088  13.801  21.953
74528W        W78596  16.912  11.591  21.885
74529W        W78597  16.623  13.668  22.612
74530W        W78598  16.722  14.235  23.204
74531W        W78599  17.896  13.238  22.048
74532W        W78600  16.331  12.721  23.109
74533W        W78601  17.401  12.251  22.727
74534W        W78602  17.688  11.984  22.369
74535W        W78603  17.497  14.024  22.758
74536W        W78604  17.227  12.706  22.532
74537W        W78605  17.880  11.358  22.999
74538W        W78606  16.066  14.234  22.964
74539W        W78607  15.181  11.414  22.222
74540W        W78608  15.313  14.188  21.880
74541W        W78609  15.687  12.654  22.631
74542W        W78610  16.171  11.641  22.934
74543W        W78611  15.519  11.431  22.886
74544W        W78612  15.524  11.659  21.911
74545W        W78613  16.297  12.795  22.218
74546W        W78614  15.565  11.110  21.988
74547W        W78615  16.303  12.191  23.039
74548W        W78616  15.214  11.703  23.253
74549W        W78617  15.000  14.415  22.929
74550W        W78618  15.367  13.230  22.413
74551W        W78619  17.002  13.462  22.099
74552W        W78620  18.153  11.761  22.695
74553W        W78621  14.631  14.422  22.490
74554W        W78622  15.893  13.715  22.145
74555W        W78623  17.798  14.097  22.331
74556W        W78624  16.773  12.750  22.345
74557W        W78625  15.616  11.941  22.862
74558W        W78626  16.448  11.851  21.914
74559W        W78627  17.385  11.322  22.709
74560W        W78628  14.715  11.170  22.157
74561W        W78629  15.542  13.357  21.937
74562W        W78630  14.783  13.598  22.705
74563W        W78631  15.895  11.138  22.970
74564W        W78632  16.954  11.215  22.475
74565W        W78633  15.058  11.716  22.642
74566W        W78634  18.025  12.607  21.943
74567W        W78635  14.579  11.627  22.180
74568W        W78636  16.590  14.493  22.216
74569W        W78637  14.736  13.000  21.913
74570W        W78638  18.137  12.852  22.403
74571W        W78639  17.000  13.184  22.502
74572W        W78640  17.474  14.484  22.197
74573W        W78641  16.068  11.050  22.156
74574W        W78642  17.607  13.649  22.099
74575W        W78643  17.147  14.386  22.613
74576W        W78644  15.608  13.669  22.598
74577W        W78645  17.363  13.167  22.862
74578W        W78646  16.460  13.855  23.050
74579W        W78647  18.210  12.415  23.231
74580W        W78648  16.734  13.899  22.165
74581W        W78649  15.876  13.144  22.247
74582W        W78650  17.588  14.526  22.966
74583W        W78651  14.844  12.532  22.131
74584W        W78652  17.978  14.190  22.828
74585W        W78653  17.815  11.514  22.447
74586W        W78654  17.689  12.391  23.213
74587W        W78655  15.220  13.719  22.108
74588W        W78656  17.737  13.477  22.918
74589W        W78657  18.114  12.199  22.285
74590W        W78658  15.859  13.256  22.756
74591W        W78659  15.782  12.147  21.995
74592W        W78660  15.993  11.640  22.088
74593W        W78661  15.128  12.456  22.869
74594W        W78662  17.694  12.534  22.414
74595W        W78663  17.225  13.659  23.063
74596W        W78664  17.789  11.047  22.536
74597W        W78665  17.309  13.522  22.547
74598W        W78666  16.211  12.580  22.632
74599W        W78667  17.398  11.384  22.155
74600W        W78668  15.466  13.523  23.197
74601W        W78669  17.229  12.143  23.162
74602W        W78670  14.671  14.250  23.306
74603W        W78671  15.180  13.437  22.842
74604W        W78672  17.969  12.875  23.287
74605W        W78673  17.323  13.052  22.167
74606W        W78674  16.290  11.005  22.696
74607W        W78675  15.942  11.423  22.528
74608W        W78676  16.740  11.888  23.091
74609W        W78677  15.541  11.683  22.385
74610W        W78678  17.058  11.825  22.710
74611W        W78679  18.101  14.340  22.012
74612W        W78680  14.755  13.333  22.304
74613W        W78681  16.274  12.284  22.174
74614W        W78682  14.920  12.833  23.193
74615W        W78683  17.882  11.184  22.084
74616W        W78684  18.193  13.157  22.820
74617W        W78685  16.490  11.036  23.223
74618W        W78686  15.549  14.020  23.060
74619W        W78687  14.811  13.952  22.302
74620W        W78688  16.627  13.316  23.020
74621W        W78689  14.979  12.934  22.595
74622W        W78690  14.664  11.296  22.671
74623W        W78691  17.205  11.888  22.170
74624W        W78692  15.795  14.148  22.560
74625W        W78693  17.077  11.051  21.990
74626W        W78694  14.788  12.199  22.698
74627W        W78695  15.479  12.188  22.423
74628W        W78696  17.007  13.104  23.214
74629W        W78697  16.469  11.329  22.285
74630W        W78698  18.150  10.957  23.007
74631W        W78699  15.838  12.592  22.170
74632W        W78700  18.004  11.929  23.160
74633W        W78701  16.696  13.099  22.037
74634W        W78702  17.286  14.000  22.252
74635W        W78703  14.874  13.410  23.213
74636W        W78704  17.283  14.166  23.222
74637W        W78705  16.667  14.209  22.696
74638W        W78706  16.101  13.702  22.711
74639W        W78707  15.322  12.442  21.970
74640W        W78708  14.661  18.172   3.359
74641W        W78709  15.037  17.065   2.882
74642W        W78710  17.742  16.795   0.652
74643W        W78711  17.872  17.880   2.679
74644W        W78712  15.790  17.871   0.205
74645W        W78713  15.873  16.023   1.188
74646W        W78714  15.388  15.871   1.352
74647W        W78715  16.379  16.686   0.786
74648W        W78716  14.703  15.339   3.104
74649W        W78717  15.465  14.619   2.906
74650W        W78718  17.159  15.007   1.793
74651W        W78719  16.808  15.878   0.363
74652W        W78720  17.378  15.312   3.454
74653W        W78721  14.744  15.104   2.579
74654W        W78722  14.843  17.723   3.600
74655W        W78723  16.365  17.113   0.332
74656W        W78724  14.797  15.896   2.025
74657W        W78725  15.690  15.787   3.262
74658W        W78726  18.149  15.646   1.761
74659W        W78727  17.913  16.689   2.620
74660W        W78728  16.221  16.022   1.647
74661W        W78729  16.767  17.361   2.016
74662W        W78730  15.267  16.795   2.248
74663W        W78731  14.626  16.323   1.819
74664W        W78732  15.662  16.295   3.011
74665W        W78733  17.933  16.078   3.265
74666W        W78734  15.549  17.522   1.710
74667W        W78735  16.670  17.211   2.844
74668W        W78736  15.890  15.851   2.069
74669W        W78737  16.182  16.635   1.712
74670W        W78738  17.179  17.408   3.560
74671W        W78739  16.258  16.728   3.570
74672W        W78740  16.239  16.444   3.048
74673W        W78741  14.648  15.835   3.570
74674W        W78742  17.480  17.370   3.169
74675W        W78743  15.061  14.952   1.167
74676W        W78744  15.588  17.210   2.166
74677W        W78745  18.051  16.993   1.456
74678W        W78746  17.464  15.393   2.023
74679W        W78747  17.749  15.346   0.118
74680W        W78748  18.214  16.147   2.424
74681W        W78749  16.181  17.854   2.177
74682W        W78750  17.955  17.320   0.615
74683W        W78751  15.084  18.106   0.369
74684W        W78752  15.477  18.152   1.045
74685W        W78753  15.274  14.906   2.471
74686W        W78754  17.897  15.924   2.746
74687W        W78755  17.302  16.346   1.205
74688W        W78756  17.268  16.034   0.232
74689W        W78757  16.476  17.178   2.372
74690W        W78758  16.282  15.508   1.571
74691W        W78759  16.882  17.595   2.565
74692W        W78760  17.753  16.386   0.987
74693W        W78761  16.655  15.044   1.003
74694W        W78762  15.312  17.738   0.686
74695W        W78763  14.683  15.237   1.285
74696W        W78764  17.469  15.844   1.759
74697W        W78765  14.927  17.461   1.674
74698W        W78766  16.268  17.811   0.544
74699W        W78767  17.660  15.837   0.008
74700W        W78768  14.683  17.595   2.172
74701W        W78769  15.474  17.167   2.652
74702W        W78770  15.847  16.527   1.271
74703W        W78771  15.869  14.932   2.364
74704W        W78772  18.098  14.694   1.661
74705W        W78773  15.317  16.566   0.129
74706W        W78774  14.972  15.599   0.308
74707W        W78775  15.034  17.555   1.102
74708W        W78776  16.165  17.038   1.350
74709W        W78777  17.497  17.897   3.064
74710W        W78778  16.423  15.539   0.748
74711W        W78779  17.806  17.937   1.520
74712W        W78780  17.483  15.790   3.118
74713W        W78781  18.196  17.446   1.252
74714W        W78782  16.823  16.738   2.736
74715W        W78783  14.589  16.289   0.942
74716W        W78784  15.700  16.704   2.515
74717W        W78785  16.904  15.968   0.893
74718W        W78786  16.781  16.458   0.997
74719W        W78787  15.124  15.878   2.471
74720W        W78788  15.109  15.754   3.393
74721W        W78789  14.999  14.671   1.552
74722W        W78790  16.767  15.018   2.113
74723W        W78791  16.415  15.203   3.276
74724W        W78792  16.770  15.352   0.454
74725W        W78793  17.953  17.745   3.208
74726W        W78794  16.920  14.826   3.247
74727W        W78795  17.939  17.127   3.369
74728W        W78796  17.369  15.294   2.965
74729W        W78797  17.169  15.232   1.235
74730W        W78798  17.562  16.366   3.639
74731W        W78799  15.302  17.942   1.625
74732W        W78800  15.960  15.659   0.611
74733W        W78801  15.529  14.943   3.275
74734W        W78802  17.581  15.427   0.956
74735W        W78803  17.948  15.909   0.901
74736W        W78804  15.617  14.662   0.607
74737W        W78805  17.938  15.196   1.642
74738W        W78806  18.088  17.445   0.087
74739W        W78807  14.995  16.648   1.789
74740W        W78808  16.912  15.235   0.019
74741W        W78809  18.046  17.567   1.739
74742W        W78810  18.085  14.761   2.489
74743W        W78811  16.530  15.973   3.043
74744W        W78812  16.623  17.312   0.746
74745W        W78813  17.023  16.606   3.486
74746W        W78814  16.697  14.583   1.795
74747W        W78815  15.309  15.486   1.858
74748W        W78816  14.863  16.686   2.632
74749W        W78817  16.722  17.879   1.338
74750W        W78818  17.916  15.476   2.210
74751W        W78819  16.553  17.823   2.977
74752W        W78820  17.896  16.882   0.182
74753W        W78821  16.331  16.365   1.243
74754W        W78822  18.183  14.876   2.984
74755W        W78823  16.332  16.711   2.578
74756W        W78824  16.549  15.597   2.023
74757W        W78825  17.401  15.895   0.861
74758W        W78826  17.688  15.628   0.503
74759W        W78827  17.497  17.668   0.892
74760W        W78828  17.331  17.271   1.688
74761W        W78829  17.227  16.350   0.666
74762W        W78830  16.660  16.560   1.652
74763W        W78831  17.541  16.348   1.719
74764W        W78832  14.916  15.363   2.143
74765W        W78833  17.694  16.415   2.970
74766W        W78834  18.045  18.033   2.116
74767W        W78835  15.975  17.477   1.518
74768W        W78836  16.982  18.010   2.842
74769W        W78837  16.976  15.340   2.606
74770W        W78838  16.183  18.048   2.667
74771W        W78839  17.880  15.002   1.133
74772W        W78840  17.671  16.321   2.434
74773W        W78841  14.654  15.642   2.472
74774W        W78842  17.514  15.437   1.490
74775W        W78843  17.925  15.588   3.267
74776W        W78844  16.810  17.287   1.485
74777W        W78845  16.066  17.878   1.098
74778W        W78846  15.181  15.058   0.356
74779W        W78847  16.285  14.712   2.166
74780W        W78848  15.313  17.832   0.014
74781W        W78849  15.687  16.298   0.765
74782W        W78850  16.341  16.927   3.078
74783W        W78851  16.171  15.285   1.068
74784W        W78852  17.527  14.882   1.496
74785W        W78853  17.247  18.164   1.824
74786W        W78854  16.659  17.812   2.164
74787W        W78855  16.055  16.849   2.125
74788W        W78856  17.825  17.572   2.251
74789W        W78857  15.519  15.075   1.020
74790W        W78858  16.041  17.372   1.980
74791W        W78859  15.524  15.303   0.045
74792W        W78860  16.325  15.912   2.439
74793W        W78861  17.173  14.778   2.309
74794W        W78862  14.593  16.621   2.194
74795W        W78863  16.297  16.439   0.352
74796W        W78864  15.565  14.754   0.122
74797W        W78865  16.303  15.835   1.173
74798W        W78866  17.273  14.811   2.872
74799W        W78867  15.861  16.823   2.981
74800W        W78868  16.665  16.605   3.198
74801W        W78869  17.282  16.635   3.091
74802W        W78870  16.566  14.775   3.596
74803W        W78871  15.788  15.391   1.989
74804W        W78872  15.214  15.347   1.387
74805W        W78873  15.000  18.059   1.063
74806W        W78874  16.332  17.389   3.188
74807W        W78875  15.367  16.874   0.547
74808W        W78876  17.047  16.259   1.768
74809W        W78877  17.327  16.058   2.167
74810W        W78878  16.532  16.732   2.101
74811W        W78879  17.002  17.106   0.233
74812W        W78880  16.674  15.127   1.561
74813W        W78881  18.153  15.405   0.829
74814W        W78882  14.647  17.994   2.860
74815W        W78883  15.064  17.220   2.392
74816W        W78884  14.631  18.066   0.624
74817W        W78885  16.530  15.336   2.430
74818W        W78886  15.893  17.359   0.279
74819W        W78887  17.798  17.741   0.465
74820W        W78888  16.773  16.394   0.479
74821W        W78889  15.616  15.585   0.996
74822W        W78890  16.448  15.495   0.048
74823W        W78891  17.032  17.060   3.226
74824W        W78892  17.385  14.966   0.843
74825W        W78893  14.715  14.814   0.291
74826W        W78894  16.001  17.133   2.581
74827W        W78895  15.800  17.049   1.673
74828W        W78896  15.542  17.001   0.071
74829W        W78897  14.783  17.242   0.839
74830W        W78898  15.287  16.312   3.281
74831W        W78899  15.991  14.872   3.467
74832W        W78900  16.700  15.014   2.823
74833W        W78901  15.895  14.782   1.104
74834W        W78902  16.954  14.859   0.609
74835W        W78903  14.899  14.791   2.186
74836W        W78904  14.947  15.754   1.556
74837W        W78905  17.636  14.862   1.962
74838W        W78906  15.058  15.360   0.776
74839W        W78907  17.629  15.048   2.392
74840W        W78908  18.025  16.251   0.077
74841W        W78909  15.317  15.009   1.896
74842W        W78910  16.431  15.581   2.836
74843W        W78911  14.579  15.271   0.314
74844W        W78912  15.365  16.660   2.875
74845W        W78913  16.723  16.058   2.054
74846W        W78914  16.590  18.137   0.350
74847W        W78915  14.736  16.644   0.047
74848W        W78916  15.471  17.055   3.173
74849W        W78917  14.992  16.222   2.804
74850W        W78918  15.983  16.327   2.598
74851W        W78919  17.751  14.686   2.860
74852W        W78920  18.149  16.296   2.851
74853W        W78921  18.137  16.496   0.537
74854W        W78922  17.000  16.828   0.636
74855W        W78923  17.474  18.128   0.331
74856W        W78924  16.651  16.118   3.473
74857W        W78925  14.981  17.085   3.513
74858W        W78926  18.187  15.007   3.465
74859W        W78927  17.905  15.935   2.086
74860W        W78928  16.213  18.065   3.563
74861W        W78929  16.068  14.694   0.290
74862W        W78930  17.607  17.293   0.233
74863W        W78931  15.376  15.386   3.119
74864W        W78932  15.810  17.380   2.981
74865W        W78933  17.936  15.371   2.779
74866W        W78934  17.147  18.030   0.747
74867W        W78935  17.386  16.649   2.114
74868W        W78936  15.636  15.065   2.781
74869W        W78937  16.105  16.134   3.538
74870W        W78938  15.608  17.313   0.732
74871W        W78939  17.363  16.811   0.996
74872W        W78940  15.131  15.437   2.720
74873W        W78941  16.460  17.499   1.184
74874W        W78942  18.210  16.059   1.365
74875W        W78943  16.432  14.692   3.084
74876W        W78944  17.212  17.397   2.163
74877W        W78945  17.515  17.741   1.871
74878W        W78946  16.734  17.543   0.299
74879W        W78947  14.744  17.435   3.141
74880W        W78948  15.487  15.427   2.379
74881W        W78949  15.457  14.775   1.489
74882W        W78950  17.078  15.617   2.181
74883W        W78951  15.876  16.788   0.381
74884W        W78952  17.874  16.730   1.880
74885W        W78953  15.201  17.488   3.303
74886W        W78954  17.588  18.170   1.100
74887W        W78955  15.687  15.190   1.545
74888W        W78956  15.456  16.683   1.635
74889W        W78957  15.769  18.094   2.385
74890W        W78958  17.836  18.190   3.417
74891W        W78959  16.995  16.378   2.350
74892W        W78960  14.844  16.176   0.265
74893W        W78961  17.978  17.834   0.962
74894W        W78962  17.815  15.158   0.581
74895W        W78963  15.954  14.677   2.984
74896W        W78964  17.660  17.479   1.442
74897W        W78965  17.689  16.035   1.347
74898W        W78966  15.806  15.708   1.563
74899W        W78967  16.051  15.970   2.887
74900W        W78968  17.162  17.123   2.750
74901W        W78969  15.812  15.577   2.862
74902W        W78970  15.791  18.043   1.478
74903W        W78971  15.108  18.002   3.112
74904W        W78972  15.220  17.363   0.242
74905W        W78973  17.737  17.121   1.052
74906W        W78974  15.341  15.913   2.938
74907W        W78975  18.114  15.843   0.419
74908W        W78976  15.859  16.900   0.890
74909W        W78977  16.958  16.282   2.971
74910W        W78978  16.849  15.910   2.515
74911W        W78979  15.409  16.282   2.544
74912W        W78980  17.619  18.170   2.373
74913W        W78981  17.410  14.804   3.367
74914W        W78982  15.074  14.954   2.954
74915W        W78983  15.413  15.977   2.007
74916W        W78984  15.782  15.791   0.129
74917W        W78985  14.585  17.550   2.674
74918W        W78986  16.170  16.259   2.117
74919W        W78987  15.993  15.284   0.222
74920W        W78988  15.128  16.100   1.003
74921W        W78989  14.899  17.952   2.440
74922W        W78990  17.694  16.178   0.548
74923W        W78991  17.789  15.094   3.234
74924W        W78992  17.225  17.303   1.197
74925W        W78993  14.823  16.227   3.374
74926W        W78994  17.789  14.691   0.670
74927W        W78995  17.309  17.166   0.681
74928W        W78996  16.211  16.224   0.766
74929W        W78997  17.398  15.028   0.289
74930W        W78998  17.463  15.635   2.475
74931W        W78999  15.172  16.228   1.682
74932W        W79000  15.466  17.167   1.331
74933W        W79001  17.229  15.787   1.296
74934W        W79002  16.252  15.166   1.992
74935W        W79003  18.214  17.077   2.503
74936W        W79004  18.132  15.064   2.064
74937W        W79005  14.671  17.894   1.440
74938W        W79006  15.180  17.081   0.976
74939W        W79007  15.095  14.698   3.529
74940W        W79008  16.214  17.551   3.631
74941W        W79009  17.969  16.519   1.421
74942W        W79010  17.323  16.696   0.301
74943W        W79011  16.618  18.217   2.513
74944W        W79012  17.475  16.939   3.550
74945W        W79013  16.290  14.649   0.830
74946W        W79014  17.003  15.518   1.689
74947W        W79015  14.689  17.105   2.021
74948W        W79016  15.942  15.067   0.662
74949W        W79017  15.746  16.551   3.511
74950W        W79018  16.740  15.532   1.225
74951W        W79019  16.945  16.942   2.347
74952W        W79020  15.099  17.547   2.782
74953W        W79021  15.541  15.327   0.519
74954W        W79022  17.058  15.469   0.844
74955W        W79023  17.016  17.577   3.081
74956W        W79024  15.701  16.169   1.680
74957W        W79025  15.356  17.867   2.545
74958W        W79026  18.101  17.984   0.146
74959W        W79027  14.964  16.656   3.142
74960W        W79028  16.959  16.918   1.830
74961W        W79029  15.395  16.567   1.072
74962W        W79030  15.766  17.574   2.467
74963W        W79031  16.144  14.993   1.508
74964W        W79032  14.755  16.977   0.438
74965W        W79033  16.274  15.928   0.308
74966W        W79034  14.920  16.477   1.327
74967W        W79035  16.210  15.119   2.791
74968W        W79036  17.882  14.828   0.218
74969W        W79037  17.975  16.574   3.317
74970W        W79038  16.629  17.831   3.469
74971W        W79039  17.595  17.723   3.602
74972W        W79040  15.334  18.179   2.080
74973W        W79041  18.193  16.801   0.954
74974W        W79042  16.723  16.068   1.467
74975W        W79043  16.490  14.680   1.357
74976W        W79044  15.549  17.664   1.194
74977W        W79045  16.048  15.405   2.419
74978W        W79046  15.748  14.774   1.888
74979W        W79047  14.811  17.596   0.436
74980W        W79048  16.627  16.960   1.154
74981W        W79049  15.502  17.755   3.033
74982W        W79050  14.979  16.578   0.729
74983W        W79051  14.864  15.121   1.728
74984W        W79052  16.412  17.086   1.785
74985W        W79053  14.664  14.940   0.805
74986W        W79054  17.328  16.146   2.732
74987W        W79055  17.205  15.532   0.304
74988W        W79056  17.722  17.204   1.952
74989W        W79057  16.383  17.688   1.783
74990W        W79058  15.795  17.792   0.694
74991W        W79059  17.077  14.695   0.124
74992W        W79060  14.877  17.955   1.865
74993W        W79061  17.074  15.713   3.500
74994W        W79062  15.057  15.243   3.499
74995W        W79063  14.788  15.843   0.832
74996W        W79064  15.479  15.832   0.557
74997W        W79065  17.242  16.159   3.374
74998W        W79066  15.585  16.440   2.083
74999W        W79067  17.059  14.726   1.203
75000W        W79068  16.190  18.157   1.706
75001W        W79069  17.404  17.619   2.643
75002W        W79070  16.988  17.768   1.754
75003W        W79071  17.007  16.748   1.348
75004W        W79072  16.469  14.973   0.419
75005W        W79073  18.150  14.601   1.141
75006W        W79074  15.838  16.236   0.304
75007W        W79075  18.004  15.573   1.294
75008W        W79076  16.696  16.743   0.171
75009W        W79077  17.632  16.943   2.919
75010W        W79078  17.286  17.644   0.386
75011W        W79079  15.901  15.319   3.292
75012W        W79080  15.721  15.903   2.533
75013W        W79081  17.813  17.398   2.810
75014W        W79082  16.913  15.348   3.187
75015W        W79083  14.757  15.819   2.964
75016W        W79084  16.517  16.296   2.690
75017W        W79085  14.874  17.054   1.347
75018W        W79086  15.021  16.351   2.237
75019W        W79087  17.338  16.637   2.587
75020W        W79088  17.110  18.017   3.398
75021W        W79089  17.006  15.756   2.951
75022W        W79090  17.283  17.810   1.356
75023W        W79091  16.285  17.530   2.679
75024W        W79092  15.770  17.885   1.948
75025W        W79093  17.575  17.056   2.367
75026W        W79094  16.625  17.128   3.504
75027W        W79095  15.230  17.081   1.843
75028W        W79096  17.576  16.840   1.488
75029W        W79097  17.217  17.906   2.239
75030W        W79098  15.195  17.635   2.109
75031W        W79099  16.216  15.687   3.319
75032W        W79100  16.667  17.853   0.830
75033W        W79101  16.101  17.346   0.845
75034W        W79102  15.322  16.086   0.104
75035W        W79103  14.661  18.172   7.003
75036W        W79104  15.037  17.065   6.526
75037W        W79105  17.742  16.795   4.296
75038W        W79106  15.873  16.023   4.832
75039W        W79107  15.388  15.871   4.996
75040W        W79108  16.379  16.686   4.430
75041W        W79109  16.054  17.778   6.785
75042W        W79110  14.703  15.339   6.748
75043W        W79111  15.465  14.619   6.550
75044W        W79112  17.159  15.007   5.437
75045W        W79113  16.808  15.878   4.007
75046W        W79114  17.378  15.312   7.098
75047W        W79115  14.744  15.104   6.223
75048W        W79116  14.843  17.723   7.244
75049W        W79117  16.365  17.113   3.976
75050W        W79118  14.797  15.896   5.669
75051W        W79119  15.690  15.787   6.906
75052W        W79120  18.149  15.646   5.405
75053W        W79121  17.913  16.689   6.264
75054W        W79122  16.221  16.022   5.291
75055W        W79123  16.767  17.361   5.660
75056W        W79124  15.267  16.795   5.892
75057W        W79125  14.626  16.323   5.463
75058W        W79126  15.662  16.295   6.655
75059W        W79127  17.933  16.078   6.909
75060W        W79128  15.549  17.522   5.354
75061W        W79129  16.670  17.211   6.488
75062W        W79130  15.890  15.851   5.713
75063W        W79131  16.182  16.635   5.356
75064W        W79132  17.179  17.408   7.204
75065W        W79133  16.258  16.728   7.214
75066W        W79134  16.239  16.444   6.692
75067W        W79135  14.648  15.835   7.214
75068W        W79136  17.480  17.370   6.813
75069W        W79137  15.061  14.952   4.811
75070W        W79138  15.588  17.210   5.810
75071W        W79139  18.051  16.993   5.100
75072W        W79140  17.464  15.393   5.667
75073W        W79141  17.749  15.346   3.762
75074W        W79142  18.214  16.147   6.068
75075W        W79143  16.181  17.854   5.821
75076W        W79144  17.955  17.320   4.259
75077W        W79145  15.084  18.106   4.013
75078W        W79146  15.477  18.152   4.689
75079W        W79147  15.274  14.906   6.115
75080W        W79148  17.897  15.924   6.390
75081W        W79149  17.302  16.346   4.849
75082W        W79150  17.268  16.034   3.876
75083W        W79151  16.476  17.178   6.016
75084W        W79152  16.282  15.508   5.215
75085W        W79153  17.753  16.386   4.631
75086W        W79154  16.655  15.044   4.647
75087W        W79155  15.312  17.738   4.330
75088W        W79156  14.683  15.237   4.929
75089W        W79157  17.469  15.844   5.403
75090W        W79158  14.927  17.461   5.318
75091W        W79159  16.268  17.811   4.188
75092W        W79160  17.660  15.837   3.652
75093W        W79161  14.683  17.595   5.816
75094W        W79162  15.474  17.167   6.296
75095W        W79163  15.847  16.527   4.915
75096W        W79164  15.869  14.932   6.008
75097W        W79165  18.098  14.694   5.305
75098W        W79166  15.317  16.566   3.773
75099W        W79167  14.972  15.599   3.952
75100W        W79168  15.034  17.555   4.746
75101W        W79169  16.165  17.038   4.994
75102W        W79170  16.423  15.539   4.392
75103W        W79171  17.806  17.937   5.164
75104W        W79172  17.483  15.790   6.762
75105W        W79173  18.196  17.446   4.896
75106W        W79174  16.823  16.738   6.380
75107W        W79175  14.589  16.289   4.586
75108W        W79176  15.700  16.704   6.159
75109W        W79177  16.904  15.968   4.537
75110W        W79178  15.124  15.878   6.115
75111W        W79179  15.109  15.754   7.037
75112W        W79180  14.999  14.671   5.196
75113W        W79181  16.767  15.018   5.757
75114W        W79182  16.415  15.203   6.920
75115W        W79183  16.770  15.352   4.098
75116W        W79184  16.920  14.826   6.891
75117W        W79185  17.939  17.127   7.013
75118W        W79186  17.369  15.294   6.609
75119W        W79187  17.169  15.232   4.879
75120W        W79188  17.562  16.366   7.283
75121W        W79189  15.302  17.942   5.269
75122W        W79190  15.960  15.659   4.255
75123W        W79191  15.529  14.943   6.919
75124W        W79192  17.581  15.427   4.600
75125W        W79193  17.948  15.909   4.545
75126W        W79194  15.691  18.126   7.016
75127W        W79195  15.617  14.662   4.251
75128W        W79196  17.938  15.196   5.286
75129W        W79197  18.088  17.445   3.731
75130W        W79198  14.995  16.648   5.433
75131W        W79199  16.912  15.235   3.663
75132W        W79200  18.046  17.567   5.383
75133W        W79201  18.085  14.761   6.133
75134W        W79202  16.530  15.973   6.687
75135W        W79203  16.623  17.312   4.390
75136W        W79204  17.023  16.606   7.130
75137W        W79205  16.697  14.583   5.439
75138W        W79206  15.309  15.486   5.502
75139W        W79207  14.863  16.686   6.276
75140W        W79208  17.916  15.476   5.854
75141W        W79209  16.553  17.823   6.621
75142W        W79210  17.896  16.882   3.826
75143W        W79211  18.183  14.876   6.628
75144W        W79212  16.332  16.711   6.222
75145W        W79213  16.549  15.597   5.667
75146W        W79214  17.401  15.895   4.505
75147W        W79215  17.688  15.628   4.147
75148W        W79216  17.497  17.668   4.536
75149W        W79217  17.331  17.271   5.332
75150W        W79218  17.227  16.350   4.310
75151W        W79219  16.660  16.560   5.296
75152W        W79220  17.541  16.348   5.363
75153W        W79221  14.916  15.363   5.787
75154W        W79222  17.694  16.415   6.614
75155W        W79223  18.045  18.033   5.760
75156W        W79224  15.975  17.477   5.162
75157W        W79225  16.982  18.010   6.486
75158W        W79226  16.976  15.340   6.250
75159W        W79227  16.183  18.048   6.311
75160W        W79228  17.880  15.002   4.777
75161W        W79229  17.671  16.321   6.078
75162W        W79230  14.654  15.642   6.116
75163W        W79231  17.514  15.437   5.134
75164W        W79232  17.925  15.588   6.911
75165W        W79233  16.810  17.287   5.129
75166W        W79234  16.066  17.878   4.742
75167W        W79235  15.181  15.058   4.000
75168W        W79236  16.285  14.712   5.810
75169W        W79237  15.313  17.832   3.658
75170W        W79238  15.687  16.298   4.409
75171W        W79239  16.341  16.927   6.722
75172W        W79240  16.171  15.285   4.712
75173W        W79241  17.527  14.882   5.140
75174W        W79242  17.247  18.164   5.468
75175W        W79243  16.659  17.812   5.808
75176W        W79244  16.055  16.849   5.769
75177W        W79245  17.825  17.572   5.895
75178W        W79246  15.519  15.075   4.664
75179W        W79247  16.041  17.372   5.624
75180W        W79248  15.524  15.303   3.689
75181W        W79249  16.325  15.912   6.083
75182W        W79250  17.173  14.778   5.953
75183W        W79251  14.593  16.621   5.838
75184W        W79252  16.297  16.439   3.996
75185W        W79253  15.565  14.754   3.766
75186W        W79254  16.303  15.835   4.817
75187W        W79255  17.273  14.811   6.516
75188W        W79256  15.861  16.823   6.625
75189W        W79257  16.665  16.605   6.842
75190W        W79258  17.282  16.635   6.735
75191W        W79259  16.566  14.775   7.240
75192W        W79260  15.788  15.391   5.633
75193W        W79261  15.214  15.347   5.031
75194W        W79262  15.000  18.059   4.707
75195W        W79263  16.332  17.389   6.832
75196W        W79264  15.367  16.874   4.191
75197W        W79265  17.047  16.259   5.412
75198W        W79266  17.327  16.058   5.811
75199W        W79267  16.532  16.732   5.745
75200W        W79268  17.002  17.106   3.877
75201W        W79269  16.674  15.127   5.205
75202W        W79270  18.153  15.405   4.473
75203W        W79271  14.647  17.994   6.504
75204W        W79272  15.064  17.220   6.036
75205W        W79273  14.631  18.066   4.268
75206W        W79274  16.530  15.336   6.074
75207W        W79275  15.893  17.359   3.923
75208W        W79276  17.798  17.741   4.109
75209W        W79277  16.773  16.394   4.123
75210W        W79278  15.616  15.585   4.640
75211W        W79279  16.448  15.495   3.692
75212W        W79280  17.032  17.060   6.870
75213W        W79281  17.385  14.966   4.487
75214W        W79282  14.715  14.814   3.935
75215W        W79283  16.001  17.133   6.225
75216W        W79284  15.800  17.049   5.317
75217W        W79285  15.542  17.001   3.715
75218W        W79286  14.783  17.242   4.483
75219W        W79287  15.287  16.312   6.925
75220W        W79288  15.991  14.872   7.111
75221W        W79289  16.700  15.014   6.467
75222W        W79290  15.895  14.782   4.748
75223W        W79291  16.954  14.859   4.253
75224W        W79292  14.899  14.791   5.830
75225W        W79293  14.947  15.754   5.200
75226W        W79294  17.636  14.862   5.606
75227W        W79295  15.058  15.360   4.420
75228W        W79296  17.629  15.048   6.036
75229W        W79297  18.025  16.251   3.721
75230W        W79298  15.317  15.009   5.540
75231W        W79299  16.431  15.581   6.480
75232W        W79300  14.579  15.271   3.958
75233W        W79301  15.365  16.660   6.519
75234W        W79302  16.723  16.058   5.698
75235W        W79303  14.736  16.644   3.691
75236W        W79304  15.471  17.055   6.817
75237W        W79305  14.992  16.222   6.448
75238W        W79306  15.983  16.327   6.242
75239W        W79307  17.751  14.686   6.504
75240W        W79308  18.149  16.296   6.495
75241W        W79309  18.137  16.496   4.181
75242W        W79310  17.474  18.128   3.975
75243W        W79311  16.651  16.118   7.117
75244W        W79312  14.981  17.085   7.157
75245W        W79313  18.187  15.007   7.109
75246W        W79314  17.905  15.935   5.730
75247W        W79315  16.213  18.065   7.207
75248W        W79316  16.068  14.694   3.934
75249W        W79317  17.607  17.293   3.877
75250W        W79318  15.376  15.386   6.763
75251W        W79319  15.810  17.380   6.625
75252W        W79320  17.936  15.371   6.423
75253W        W79321  17.147  18.030   4.391
75254W        W79322  17.386  16.649   5.758
75255W        W79323  15.636  15.065   6.425
75256W        W79324  16.105  16.134   7.182
75257W        W79325  15.608  17.313   4.376
75258W        W79326  17.363  16.811   4.640
75259W        W79327  15.131  15.437   6.364
75260W        W79328  16.460  17.499   4.828
75261W        W79329  18.210  16.059   5.009
75262W        W79330  16.432  14.692   6.728
75263W        W79331  17.212  17.397   5.807
75264W        W79332  17.515  17.741   5.515
75265W        W79333  16.734  17.543   3.943
75266W        W79334  14.744  17.435   6.785
75267W        W79335  15.487  15.427   6.023
75268W        W79336  15.457  14.775   5.133
75269W        W79337  17.078  15.617   5.825
75270W        W79338  15.876  16.788   4.025
75271W        W79339  17.874  16.730   5.524
75272W        W79340  15.201  17.488   6.947
75273W        W79341  17.588  18.170   4.744
75274W        W79342  15.687  15.190   5.189
75275W        W79343  15.456  16.683   5.279
75276W        W79344  15.769  18.094   6.029
75277W        W79345  16.995  16.378   5.994
75278W        W79346  14.844  16.176   3.909
75279W        W79347  17.978  17.834   4.606
75280W        W79348  17.815  15.158   4.225
75281W        W79349  15.954  14.677   6.628
75282W        W79350  17.660  17.479   5.086
75283W        W79351  17.689  16.035   4.991
75284W        W79352  15.806  15.708   5.207
75285W        W79353  16.051  15.970   6.531
75286W        W79354  17.162  17.123   6.394
75287W        W79355  15.812  15.577   6.506
75288W        W79356  15.791  18.043   5.122
75289W        W79357  15.108  18.002   6.756
75290W        W79358  15.220  17.363   3.886
75291W        W79359  17.737  17.121   4.696
75292W        W79360  15.341  15.913   6.582
75293W        W79361  18.114  15.843   4.063
75294W        W79362  15.859  16.900   4.534
75295W        W79363  16.958  16.282   6.615
75296W        W79364  16.849  15.910   6.159
75297W        W79365  15.409  16.282   6.188
75298W        W79366  17.619  18.170   6.017
75299W        W79367  17.410  14.804   7.011
75300W        W79368  15.074  14.954   6.598
75301W        W79369  15.413  15.977   5.651
75302W        W79370  15.782  15.791   3.773
75303W        W79371  14.585  17.550   6.318
75304W        W79372  16.170  16.259   5.761
75305W        W79373  15.993  15.284   3.866
75306W        W79374  15.128  16.100   4.647
75307W        W79375  14.899  17.952   6.084
75308W        W79376  17.789  15.094   6.878
75309W        W79377  17.225  17.303   4.841
75310W        W79378  14.823  16.227   7.018
75311W        W79379  17.789  14.691   4.314
75312W        W79380  17.309  17.166   4.325
75313W        W79381  16.211  16.224   4.410
75314W        W79382  17.398  15.028   3.933
75315W        W79383  17.463  15.635   6.119
75316W        W79384  15.172  16.228   5.326
75317W        W79385  15.466  17.167   4.975
75318W        W79386  17.229  15.787   4.940
75319W        W79387  16.252  15.166   5.636
75320W        W79388  18.214  17.077   6.147
75321W        W79389  18.132  15.064   5.708
75322W        W79390  14.671  17.894   5.084
75323W        W79391  15.180  17.081   4.620
75324W        W79392  15.095  14.698   7.173
75325W        W79393  16.214  17.551   7.275
75326W        W79394  17.969  16.519   5.065
75327W        W79395  17.323  16.696   3.945
75328W        W79396  16.618  18.217   6.157
75329W        W79397  17.475  16.939   7.194
75330W        W79398  16.290  14.649   4.474
75331W        W79399  17.003  15.518   5.333
75332W        W79400  14.689  17.105   5.665
75333W        W79401  15.942  15.067   4.306
75334W        W79402  15.746  16.551   7.155
75335W        W79403  16.740  15.532   4.869
75336W        W79404  16.945  16.942   5.991
75337W        W79405  15.099  17.547   6.426
75338W        W79406  15.690  17.530   7.149
75339W        W79407  15.541  15.327   4.163
75340W        W79408  17.058  15.469   4.488
75341W        W79409  17.016  17.577   6.725
75342W        W79410  15.701  16.169   5.324
75343W        W79411  15.356  17.867   6.189
75344W        W79412  18.101  17.984   3.790
75345W        W79413  14.964  16.656   6.786
75346W        W79414  16.959  16.918   5.474
75347W        W79415  15.395  16.567   4.716
75348W        W79416  15.766  17.574   6.111
75349W        W79417  16.144  14.993   5.152
75350W        W79418  14.755  16.977   4.082
75351W        W79419  16.274  15.928   3.952
75352W        W79420  14.920  16.477   4.971
75353W        W79421  16.210  15.119   6.435
75354W        W79422  17.882  14.828   3.862
75355W        W79423  17.975  16.574   6.961
75356W        W79424  16.629  17.831   7.113
75357W        W79425  18.187  16.925   6.635
75358W        W79426  17.595  17.723   7.246
75359W        W79427  15.334  18.179   5.724
75360W        W79428  18.193  16.801   4.598
75361W        W79429  16.723  16.068   5.111
75362W        W79430  16.490  14.680   5.001
75363W        W79431  15.549  17.664   4.838
75364W        W79432  16.048  15.405   6.063
75365W        W79433  15.748  14.774   5.532
75366W        W79434  14.811  17.596   4.080
75367W        W79435  16.627  16.960   4.798
75368W        W79436  15.502  17.755   6.677
75369W        W79437  14.979  16.578   4.373
75370W        W79438  14.864  15.121   5.372
75371W        W79439  16.412  17.086   5.429
75372W        W79440  14.664  14.940   4.449
75373W        W79441  17.328  16.146   6.376
75374W        W79442  17.205  15.532   3.948
75375W        W79443  17.722  17.204   5.596
75376W        W79444  15.795  17.792   4.338
75377W        W79445  17.077  14.695   3.768
75378W        W79446  14.877  17.955   5.509
75379W        W79447  17.074  15.713   7.144
75380W        W79448  15.057  15.243   7.143
75381W        W79449  14.788  15.843   4.476
75382W        W79450  15.479  15.832   4.201
75383W        W79451  17.242  16.159   7.018
75384W        W79452  15.585  16.440   5.727
75385W        W79453  17.059  14.726   4.847
75386W        W79454  16.988  17.768   5.398
75387W        W79455  17.007  16.748   4.992
75388W        W79456  16.469  14.973   4.063
75389W        W79457  18.150  14.601   4.785
75390W        W79458  15.838  16.236   3.948
75391W        W79459  18.004  15.573   4.938
75392W        W79460  16.696  16.743   3.815
75393W        W79461  17.632  16.943   6.563
75394W        W79462  17.286  17.644   4.030
75395W        W79463  15.901  15.319   6.936
75396W        W79464  15.721  15.903   6.177
75397W        W79465  16.913  15.348   6.831
75398W        W79466  14.757  15.819   6.608
75399W        W79467  16.517  16.296   6.334
75400W        W79468  14.874  17.054   4.991
75401W        W79469  15.021  16.351   5.881
75402W        W79470  17.338  16.637   6.231
75403W        W79471  17.110  18.017   7.042
75404W        W79472  17.006  15.756   6.595
75405W        W79473  17.283  17.810   5.000
75406W        W79474  16.285  17.530   6.323
75407W        W79475  15.770  17.885   5.592
75408W        W79476  17.575  17.056   6.011
75409W        W79477  16.625  17.128   7.148
75410W        W79478  15.230  17.081   5.487
75411W        W79479  17.576  16.840   5.132
75412W        W79480  17.217  17.906   5.883
75413W        W79481  15.195  17.635   5.753
75414W        W79482  16.216  15.687   6.963
75415W        W79483  15.975  17.108   7.112
75416W        W79484  16.101  17.346   4.489
75417W        W79485  15.322  16.086   3.748
75418W        W79486  14.661  18.172  10.648
75419W        W79487  15.037  17.065  10.171
75420W        W79488  17.742  16.795   7.941
75421W        W79489  17.872  17.880   9.968
75422W        W79490  15.790  17.871   7.494
75423W        W79491  15.873  16.023   8.477
75424W        W79492  15.388  15.871   8.641
75425W        W79493  16.379  16.686   8.075
75426W        W79494  16.054  17.778  10.430
75427W        W79495  14.703  15.339  10.393
75428W        W79496  15.465  14.619  10.195
75429W        W79497  17.159  15.007   9.082
75430W        W79498  16.808  15.878   7.652
75431W        W79499  17.378  15.312  10.743
75432W        W79500  14.744  15.104   9.868
75433W        W79501  14.843  17.723  10.889
75434W        W79502  16.365  17.113   7.621
75435W        W79503  14.797  15.896   9.314
75436W        W79504  15.690  15.787  10.551
75437W        W79505  18.149  15.646   9.050
75438W        W79506  17.913  16.689   9.909
75439W        W79507  16.221  16.022   8.936
75440W        W79508  16.767  17.361   9.305
75441W        W79509  15.267  16.795   9.537
75442W        W79510  14.626  16.323   9.108
75443W        W79511  15.662  16.295  10.300
75444W        W79512  17.933  16.078  10.554
75445W        W79513  15.549  17.522   8.999
75446W        W79514  16.670  17.211  10.133
75447W        W79515  15.890  15.851   9.358
75448W        W79516  16.182  16.635   9.001
75449W        W79517  17.179  17.408  10.849
75450W        W79518  16.258  16.728  10.859
75451W        W79519  16.239  16.444  10.337
75452W        W79520  14.648  15.835  10.859
75453W        W79521  17.480  17.370  10.458
75454W        W79522  15.061  14.952   8.456
75455W        W79523  15.588  17.210   9.455
75456W        W79524  18.051  16.993   8.745
75457W        W79525  17.464  15.393   9.312
75458W        W79526  17.749  15.346   7.407
75459W        W79527  18.214  16.147   9.713
75460W        W79528  16.181  17.854   9.466
75461W        W79529  17.955  17.320   7.904
75462W        W79530  15.084  18.106   7.658
75463W        W79531  15.477  18.152   8.334
75464W        W79532  15.274  14.906   9.760
75465W        W79533  17.897  15.924  10.035
75466W        W79534  17.268  16.034   7.521
75467W        W79535  16.476  17.178   9.661
75468W        W79536  16.282  15.508   8.860
75469W        W79537  16.882  17.595   9.854
75470W        W79538  17.753  16.386   8.276
75471W        W79539  16.655  15.044   8.292
75472W        W79540  15.312  17.738   7.975
75473W        W79541  14.683  15.237   8.574
75474W        W79542  17.469  15.844   9.048
75475W        W79543  14.927  17.461   8.963
75476W        W79544  16.268  17.811   7.833
75477W        W79545  17.660  15.837   7.297
75478W        W79546  14.683  17.595   9.461
75479W        W79547  15.474  17.167   9.941
75480W        W79548  15.847  16.527   8.560
75481W        W79549  15.869  14.932   9.653
75482W        W79550  18.098  14.694   8.950
75483W        W79551  15.317  16.566   7.418
75484W        W79552  14.972  15.599   7.597
75485W        W79553  15.034  17.555   8.391
75486W        W79554  16.165  17.038   8.639
75487W        W79555  17.497  17.897  10.353
75488W        W79556  16.423  15.539   8.037
75489W        W79557  17.806  17.937   8.809
75490W        W79558  17.483  15.790  10.407
75491W        W79559  18.196  17.446   8.541
75492W        W79560  16.823  16.738  10.025
75493W        W79561  14.589  16.289   8.231
75494W        W79562  15.700  16.704   9.804
75495W        W79563  16.904  15.968   8.182
75496W        W79564  15.124  15.878   9.760
75497W        W79565  15.109  15.754  10.682
75498W        W79566  14.999  14.671   8.841
75499W        W79567  16.767  15.018   9.402
75500W        W79568  16.415  15.203  10.565
75501W        W79569  16.770  15.352   7.743
75502W        W79570  17.953  17.745  10.497
75503W        W79571  16.920  14.826  10.536
75504W        W79572  17.939  17.127  10.658
75505W        W79573  17.369  15.294  10.254
75506W        W79574  17.169  15.232   8.524
75507W        W79575  17.562  16.366  10.928
75508W        W79576  15.302  17.942   8.914
75509W        W79577  15.960  15.659   7.900
75510W        W79578  15.529  14.943  10.564
75511W        W79579  17.581  15.427   8.245
75512W        W79580  17.948  15.909   8.190
75513W        W79581  15.691  18.126  10.661
75514W        W79582  15.617  14.662   7.896
75515W        W79583  17.938  15.196   8.931
75516W        W79584  18.088  17.445   7.376
75517W        W79585  14.995  16.648   9.078
75518W        W79586  16.912  15.235   7.308
75519W        W79587  18.046  17.567   9.028
75520W        W79588  18.085  14.761   9.778
75521W        W79589  16.530  15.973  10.332
75522W        W79590  16.623  17.312   8.035
75523W        W79591  17.023  16.606  10.775
75524W        W79592  16.697  14.583   9.084
75525W        W79593  15.309  15.486   9.147
75526W        W79594  14.863  16.686   9.921
75527W        W79595  16.722  17.879   8.627
75528W        W79596  17.916  15.476   9.499
75529W        W79597  16.553  17.823  10.266
75530W        W79598  17.896  16.882   7.471
75531W        W79599  16.331  16.365   8.532
75532W        W79600  18.183  14.876  10.273
75533W        W79601  16.332  16.711   9.867
75534W        W79602  16.549  15.597   9.312
75535W        W79603  17.401  15.895   8.150
75536W        W79604  17.688  15.628   7.792
75537W        W79605  17.497  17.668   8.181
75538W        W79606  17.331  17.271   8.977
75539W        W79607  17.227  16.350   7.955
75540W        W79608  16.660  16.560   8.941
75541W        W79609  17.541  16.348   9.008
75542W        W79610  14.916  15.363   9.432
75543W        W79611  17.694  16.415  10.259
75544W        W79612  18.045  18.033   9.405
75545W        W79613  15.975  17.477   8.807
75546W        W79614  16.982  18.010  10.131
75547W        W79615  16.976  15.340   9.895
75548W        W79616  16.183  18.048   9.956
75549W        W79617  17.880  15.002   8.422
75550W        W79618  17.671  16.321   9.723
75551W        W79619  14.654  15.642   9.761
75552W        W79620  17.514  15.437   8.779
75553W        W79621  17.925  15.588  10.556
75554W        W79622  16.810  17.287   8.774
75555W        W79623  16.066  17.878   8.387
75556W        W79624  15.181  15.058   7.645
75557W        W79625  16.285  14.712   9.455
75558W        W79626  15.313  17.832   7.303
75559W        W79627  15.687  16.298   8.054
75560W        W79628  16.341  16.927  10.367
75561W        W79629  16.171  15.285   8.357
75562W        W79630  17.527  14.882   8.785
75563W        W79631  17.247  18.164   9.113
75564W        W79632  16.659  17.812   9.453
75565W        W79633  16.055  16.849   9.414
75566W        W79634  17.825  17.572   9.540
75567W        W79635  15.519  15.075   8.309
75568W        W79636  16.041  17.372   9.269
75569W        W79637  15.524  15.303   7.334
75570W        W79638  16.325  15.912   9.728
75571W        W79639  17.173  14.778   9.598
75572W        W79640  14.593  16.621   9.483
75573W        W79641  16.297  16.439   7.641
75574W        W79642  15.565  14.754   7.411
75575W        W79643  16.303  15.835   8.462
75576W        W79644  17.273  14.811  10.161
75577W        W79645  15.861  16.823  10.270
75578W        W79646  16.665  16.605  10.487
75579W        W79647  17.282  16.635  10.380
75580W        W79648  16.566  14.775  10.885
75581W        W79649  15.788  15.391   9.278
75582W        W79650  15.214  15.347   8.676
75583W        W79651  15.000  18.059   8.352
75584W        W79652  16.332  17.389  10.477
75585W        W79653  15.367  16.874   7.836
75586W        W79654  17.047  16.259   9.057
75587W        W79655  17.327  16.058   9.456
75588W        W79656  16.532  16.732   9.390
75589W        W79657  17.002  17.106   7.522
75590W        W79658  16.674  15.127   8.850
75591W        W79659  18.153  15.405   8.118
75592W        W79660  14.647  17.994  10.149
75593W        W79661  15.064  17.220   9.681
75594W        W79662  14.631  18.066   7.913
75595W        W79663  16.530  15.336   9.719
75596W        W79664  15.893  17.359   7.568
75597W        W79665  17.798  17.741   7.754
75598W        W79666  16.773  16.394   7.768
75599W        W79667  15.616  15.585   8.285
75600W        W79668  16.448  15.495   7.337
75601W        W79669  17.032  17.060  10.515
75602W        W79670  17.385  14.966   8.132
75603W        W79671  14.715  14.814   7.580
75604W        W79672  16.001  17.133   9.870
75605W        W79673  15.800  17.049   8.962
75606W        W79674  15.542  17.001   7.360
75607W        W79675  14.783  17.242   8.128
75608W        W79676  15.287  16.312  10.570
75609W        W79677  15.991  14.872  10.756
75610W        W79678  16.700  15.014  10.112
75611W        W79679  15.895  14.782   8.393
75612W        W79680  16.954  14.859   7.898
75613W        W79681  14.899  14.791   9.475
75614W        W79682  14.947  15.754   8.845
75615W        W79683  17.636  14.862   9.251
75616W        W79684  15.058  15.360   8.065
75617W        W79685  17.629  15.048   9.681
75618W        W79686  18.025  16.251   7.366
75619W        W79687  15.317  15.009   9.185
75620W        W79688  16.431  15.581  10.125
75621W        W79689  14.579  15.271   7.603
75622W        W79690  15.365  16.660  10.164
75623W        W79691  16.723  16.058   9.343
75624W        W79692  16.590  18.137   7.639
75625W        W79693  14.736  16.644   7.336
75626W        W79694  15.471  17.055  10.462
75627W        W79695  14.992  16.222  10.093
75628W        W79696  15.983  16.327   9.887
75629W        W79697  17.751  14.686  10.149
75630W        W79698  18.149  16.296  10.140
75631W        W79699  18.137  16.496   7.826
75632W        W79700  16.651  16.118  10.762
75633W        W79701  14.981  17.085  10.802
75634W        W79702  18.187  15.007  10.754
75635W        W79703  17.905  15.935   9.375
75636W        W79704  16.213  18.065  10.852
75637W        W79705  16.068  14.694   7.579
75638W        W79706  17.607  17.293   7.522
75639W        W79707  15.376  15.386  10.408
75640W        W79708  15.810  17.380  10.270
75641W        W79709  17.936  15.371  10.068
75642W        W79710  17.386  16.649   9.403
75643W        W79711  15.636  15.065  10.070
75644W        W79712  16.105  16.134  10.827
75645W        W79713  15.608  17.313   8.021
75646W        W79714  15.131  15.437  10.009
75647W        W79715  16.460  17.499   8.473
75648W        W79716  18.210  16.059   8.654
75649W        W79717  16.432  14.692  10.373
75650W        W79718  17.212  17.397   9.452
75651W        W79719  17.515  17.741   9.160
75652W        W79720  16.734  17.543   7.588
75653W        W79721  14.744  17.435  10.430
75654W        W79722  15.487  15.427   9.668
75655W        W79723  15.457  14.775   8.778
75656W        W79724  17.078  15.617   9.470
75657W        W79725  15.876  16.788   7.670
75658W        W79726  17.874  16.730   9.169
75659W        W79727  15.201  17.488  10.592
75660W        W79728  15.687  15.190   8.834
75661W        W79729  15.456  16.683   8.924
75662W        W79730  15.769  18.094   9.674
75663W        W79731  17.836  18.190  10.706
75664W        W79732  16.995  16.378   9.639
75665W        W79733  14.844  16.176   7.554
75666W        W79734  17.978  17.834   8.251
75667W        W79735  17.815  15.158   7.870
75668W        W79736  15.954  14.677  10.273
75669W        W79737  17.660  17.479   8.731
75670W        W79738  17.689  16.035   8.636
75671W        W79739  15.806  15.708   8.852
75672W        W79740  16.051  15.970  10.176
75673W        W79741  17.162  17.123  10.039
75674W        W79742  15.812  15.577  10.151
75675W        W79743  15.791  18.043   8.767
75676W        W79744  15.108  18.002  10.401
75677W        W79745  15.220  17.363   7.531
75678W        W79746  17.737  17.121   8.341
75679W        W79747  15.341  15.913  10.227
75680W        W79748  18.114  15.843   7.708
75681W        W79749  15.859  16.900   8.179
75682W        W79750  16.958  16.282  10.260
75683W        W79751  16.849  15.910   9.804
75684W        W79752  15.409  16.282   9.833
75685W        W79753  17.619  18.170   9.662
75686W        W79754  17.410  14.804  10.656
75687W        W79755  15.074  14.954  10.243
75688W        W79756  15.413  15.977   9.296
75689W        W79757  15.782  15.791   7.418
75690W        W79758  14.585  17.550   9.963
75691W        W79759  16.170  16.259   9.406
75692W        W79760  15.993  15.284   7.511
75693W        W79761  15.128  16.100   8.292
75694W        W79762  14.899  17.952   9.729
75695W        W79763  17.694  16.178   7.837
75696W        W79764  17.789  15.094  10.523
75697W        W79765  17.225  17.303   8.486
75698W        W79766  14.823  16.227  10.663
75699W        W79767  17.789  14.691   7.959
75700W        W79768  17.309  17.166   7.970
75701W        W79769  16.211  16.224   8.055
75702W        W79770  17.398  15.028   7.578
75703W        W79771  17.463  15.635   9.764
75704W        W79772  15.172  16.228   8.971
75705W        W79773  15.466  17.167   8.620
75706W        W79774  17.229  15.787   8.585
75707W        W79775  16.252  15.166   9.281
75708W        W79776  18.214  17.077   9.792
75709W        W79777  18.132  15.064   9.353
75710W        W79778  14.671  17.894   8.729
75711W        W79779  15.180  17.081   8.265
75712W        W79780  15.095  14.698  10.818
75713W        W79781  16.214  17.551  10.920
75714W        W79782  17.969  16.519   8.710
75715W        W79783  17.323  16.696   7.590
75716W        W79784  16.618  18.217   9.802
75717W        W79785  17.475  16.939  10.839
75718W        W79786  16.290  14.649   8.119
75719W        W79787  17.003  15.518   8.978
75720W        W79788  14.689  17.105   9.310
75721W        W79789  15.942  15.067   7.951
75722W        W79790  15.746  16.551  10.800
75723W        W79791  16.740  15.532   8.514
75724W        W79792  16.945  16.942   9.636
75725W        W79793  15.099  17.547  10.071
75726W        W79794  15.690  17.530  10.794
75727W        W79795  15.541  15.327   7.808
75728W        W79796  17.058  15.469   8.133
75729W        W79797  17.016  17.577  10.370
75730W        W79798  15.701  16.169   8.969
75731W        W79799  15.356  17.867   9.834
75732W        W79800  18.101  17.984   7.435
75733W        W79801  14.964  16.656  10.431
75734W        W79802  16.959  16.918   9.119
75735W        W79803  15.395  16.567   8.361
75736W        W79804  15.766  17.574   9.756
75737W        W79805  16.144  14.993   8.797
75738W        W79806  14.755  16.977   7.727
75739W        W79807  16.274  15.928   7.597
75740W        W79808  14.920  16.477   8.616
75741W        W79809  16.210  15.119  10.080
75742W        W79810  17.882  14.828   7.507
75743W        W79811  17.975  16.574  10.606
75744W        W79812  16.629  17.831  10.758
75745W        W79813  18.187  16.925  10.280
75746W        W79814  17.595  17.723  10.891
75747W        W79815  15.334  18.179   9.369
75748W        W79816  18.193  16.801   8.243
75749W        W79817  16.723  16.068   8.756
75750W        W79818  16.490  14.680   8.646
75751W        W79819  15.549  17.664   8.483
75752W        W79820  16.048  15.405   9.708
75753W        W79821  15.748  14.774   9.177
75754W        W79822  14.811  17.596   7.725
75755W        W79823  16.627  16.960   8.443
75756W        W79824  15.502  17.755  10.322
75757W        W79825  14.979  16.578   8.018
75758W        W79826  14.864  15.121   9.017
75759W        W79827  16.412  17.086   9.074
75760W        W79828  14.664  14.940   8.094
75761W        W79829  17.328  16.146  10.021
75762W        W79830  17.205  15.532   7.593
75763W        W79831  17.722  17.204   9.241
75764W        W79832  16.383  17.688   9.072
75765W        W79833  15.795  17.792   7.983
75766W        W79834  17.077  14.695   7.413
75767W        W79835  14.877  17.955   9.154
75768W        W79836  17.074  15.713  10.789
75769W        W79837  15.057  15.243  10.788
75770W        W79838  14.788  15.843   8.121
75771W        W79839  15.479  15.832   7.846
75772W        W79840  17.242  16.159  10.663
75773W        W79841  15.585  16.440   9.372
75774W        W79842  17.059  14.726   8.492
75775W        W79843  16.190  18.157   8.995
75776W        W79844  17.404  17.619   9.932
75777W        W79845  16.988  17.768   9.043
75778W        W79846  17.007  16.748   8.637
75779W        W79847  16.469  14.973   7.708
75780W        W79848  18.150  14.601   8.430
75781W        W79849  15.838  16.236   7.593
75782W        W79850  18.004  15.573   8.583
75783W        W79851  16.696  16.743   7.460
75784W        W79852  17.632  16.943  10.208
75785W        W79853  17.286  17.644   7.675
75786W        W79854  15.901  15.319  10.581
75787W        W79855  15.721  15.903   9.822
75788W        W79856  17.813  17.398  10.099
75789W        W79857  16.913  15.348  10.476
75790W        W79858  14.757  15.819  10.253
75791W        W79859  16.517  16.296   9.979
75792W        W79860  14.874  17.054   8.636
75793W        W79861  15.021  16.351   9.526
75794W        W79862  17.338  16.637   9.876
75795W        W79863  17.110  18.017  10.687
75796W        W79864  17.006  15.756  10.240
75797W        W79865  17.283  17.810   8.645
75798W        W79866  16.285  17.530   9.968
75799W        W79867  15.770  17.885   9.237
75800W        W79868  17.575  17.056   9.656
75801W        W79869  16.625  17.128  10.793
75802W        W79870  15.230  17.081   9.132
75803W        W79871  17.576  16.840   8.777
75804W        W79872  17.217  17.906   9.528
75805W        W79873  15.195  17.635   9.398
75806W        W79874  16.216  15.687  10.608
75807W        W79875  16.667  17.853   8.119
75808W        W79876  15.975  17.108  10.757
75809W        W79877  16.101  17.346   8.134
75810W        W79878  15.322  16.086   7.393
75811W        W79879  14.661  18.172  14.292
75812W        W79880  15.037  17.065  13.815
75813W        W79881  17.742  16.795  11.585
75814W        W79882  17.872  17.880  13.612
75815W        W79883  15.790  17.871  11.138
75816W        W79884  15.873  16.023  12.121
75817W        W79885  15.388  15.871  12.285
75818W        W79886  16.379  16.686  11.719
75819W        W79887  16.054  17.778  14.074
75820W        W79888  14.703  15.339  14.037
75821W        W79889  15.465  14.619  13.839
75822W        W79890  17.159  15.007  12.726
75823W        W79891  16.808  15.878  11.296
75824W        W79892  17.378  15.312  14.387
75825W        W79893  14.744  15.104  13.512
75826W        W79894  14.843  17.723  14.533
75827W        W79895  16.365  17.113  11.265
75828W        W79896  14.797  15.896  12.958
75829W        W79897  15.690  15.787  14.195
75830W        W79898  18.149  15.646  12.694
75831W        W79899  17.913  16.689  13.553
75832W        W79900  16.221  16.022  12.580
75833W        W79901  16.767  17.361  12.949
75834W        W79902  15.267  16.795  13.181
75835W        W79903  14.626  16.323  12.752
75836W        W79904  15.662  16.295  13.944
75837W        W79905  17.933  16.078  14.198
75838W        W79906  15.549  17.522  12.643
75839W        W79907  16.670  17.211  13.777
75840W        W79908  15.890  15.851  13.002
75841W        W79909  16.182  16.635  12.645
75842W        W79910  17.179  17.408  14.493
75843W        W79911  16.258  16.728  14.503
75844W        W79912  16.239  16.444  13.981
75845W        W79913  14.648  15.835  14.503
75846W        W79914  17.480  17.370  14.102
75847W        W79915  15.061  14.952  12.100
75848W        W79916  15.588  17.210  13.099
75849W        W79917  18.051  16.993  12.389
75850W        W79918  17.464  15.393  12.956
75851W        W79919  17.749  15.346  11.051
75852W        W79920  18.214  16.147  13.357
75853W        W79921  16.181  17.854  13.110
75854W        W79922  17.955  17.320  11.548
75855W        W79923  15.084  18.106  11.302
75856W        W79924  15.477  18.152  11.978
75857W        W79925  15.274  14.906  13.404
75858W        W79926  17.897  15.924  13.679
75859W        W79927  17.302  16.346  12.138
75860W        W79928  17.268  16.034  11.165
75861W        W79929  16.476  17.178  13.305
75862W        W79930  16.282  15.508  12.504
75863W        W79931  16.882  17.595  13.498
75864W        W79932  17.753  16.386  11.920
75865W        W79933  16.655  15.044  11.936
75866W        W79934  15.312  17.738  11.619
75867W        W79935  14.683  15.237  12.218
75868W        W79936  17.469  15.844  12.692
75869W        W79937  14.927  17.461  12.607
75870W        W79938  16.268  17.811  11.477
75871W        W79939  17.660  15.837  10.941
75872W        W79940  14.683  17.595  13.105
75873W        W79941  15.474  17.167  13.585
75874W        W79942  15.847  16.527  12.204
75875W        W79943  15.869  14.932  13.297
75876W        W79944  18.098  14.694  12.594
75877W        W79945  15.317  16.566  11.062
75878W        W79946  14.972  15.599  11.241
75879W        W79947  15.034  17.555  12.035
75880W        W79948  16.165  17.038  12.283
75881W        W79949  17.497  17.897  13.997
75882W        W79950  16.423  15.539  11.681
75883W        W79951  17.806  17.937  12.453
75884W        W79952  17.483  15.790  14.051
75885W        W79953  18.196  17.446  12.185
75886W        W79954  16.823  16.738  13.669
75887W        W79955  14.589  16.289  11.875
75888W        W79956  15.700  16.704  13.448
75889W        W79957  16.904  15.968  11.826
75890W        W79958  16.781  16.458  11.930
75891W        W79959  15.124  15.878  13.404
75892W        W79960  15.109  15.754  14.326
75893W        W79961  14.999  14.671  12.485
75894W        W79962  16.767  15.018  13.046
75895W        W79963  16.415  15.203  14.209
75896W        W79964  16.770  15.352  11.387
75897W        W79965  17.953  17.745  14.141
75898W        W79966  16.920  14.826  14.180
75899W        W79967  17.939  17.127  14.302
75900W        W79968  17.369  15.294  13.898
75901W        W79969  17.169  15.232  12.168
75902W        W79970  17.562  16.366  14.572
75903W        W79971  15.302  17.942  12.558
75904W        W79972  15.960  15.659  11.544
75905W        W79973  15.529  14.943  14.208
75906W        W79974  17.581  15.427  11.889
75907W        W79975  17.948  15.909  11.834
75908W        W79976  15.691  18.126  14.305
75909W        W79977  15.617  14.662  11.540
75910W        W79978  17.938  15.196  12.575
75911W        W79979  18.088  17.445  11.020
75912W        W79980  14.995  16.648  12.722
75913W        W79981  16.912  15.235  10.952
75914W        W79982  18.046  17.567  12.672
75915W        W79983  18.085  14.761  13.422
75916W        W79984  16.530  15.973  13.976
75917W        W79985  16.623  17.312  11.679
75918W        W79986  17.023  16.606  14.419
75919W        W79987  16.697  14.583  12.728
75920W        W79988  15.309  15.486  12.791
75921W        W79989  14.863  16.686  13.565
75922W        W79990  16.722  17.879  12.271
75923W        W79991  17.916  15.476  13.143
75924W        W79992  16.553  17.823  13.910
75925W        W79993  17.896  16.882  11.115
75926W        W79994  16.331  16.365  12.176
75927W        W79995  18.183  14.876  13.917
75928W        W79996  16.332  16.711  13.511
75929W        W79997  16.549  15.597  12.956
75930W        W79998  17.401  15.895  11.794
75931W        W79999  17.688  15.628  11.436
75932W        W80000  17.497  17.668  11.825
75933W        W80001  17.331  17.271  12.621
75934W        W80002  17.227  16.350  11.599
75935W        W80003  16.660  16.560  12.585
75936W        W80004  17.541  16.348  12.652
75937W        W80005  14.916  15.363  13.076
75938W        W80006  17.694  16.415  13.903
75939W        W80007  18.045  18.033  13.049
75940W        W80008  15.975  17.477  12.451
75941W        W80009  16.982  18.010  13.775
75942W        W80010  16.976  15.340  13.539
75943W        W80011  16.183  18.048  13.600
75944W        W80012  17.880  15.002  12.066
75945W        W80013  17.671  16.321  13.367
75946W        W80014  14.654  15.642  13.405
75947W        W80015  17.514  15.437  12.423
75948W        W80016  17.925  15.588  14.200
75949W        W80017  16.810  17.287  12.418
75950W        W80018  16.066  17.878  12.031
75951W        W80019  15.181  15.058  11.289
75952W        W80020  16.285  14.712  13.099
75953W        W80021  15.313  17.832  10.947
75954W        W80022  15.687  16.298  11.698
75955W        W80023  16.341  16.927  14.011
75956W        W80024  16.171  15.285  12.001
75957W        W80025  17.527  14.882  12.429
75958W        W80026  17.247  18.164  12.757
75959W        W80027  16.659  17.812  13.097
75960W        W80028  16.055  16.849  13.058
75961W        W80029  17.825  17.572  13.184
75962W        W80030  15.519  15.075  11.953
75963W        W80031  16.041  17.372  12.913
75964W        W80032  15.524  15.303  10.978
75965W        W80033  16.325  15.912  13.372
75966W        W80034  17.173  14.778  13.242
75967W        W80035  14.593  16.621  13.127
75968W        W80036  16.297  16.439  11.285
75969W        W80037  15.565  14.754  11.055
75970W        W80038  16.303  15.835  12.106
75971W        W80039  17.273  14.811  13.805
75972W        W80040  15.861  16.823  13.914
75973W        W80041  16.665  16.605  14.131
75974W        W80042  17.282  16.635  14.024
75975W        W80043  16.566  14.775  14.529
75976W        W80044  15.788  15.391  12.922
75977W        W80045  15.214  15.347  12.320
75978W        W80046  15.000  18.059  11.996
75979W        W80047  16.332  17.389  14.121
75980W        W80048  15.367  16.874  11.480
75981W        W80049  17.047  16.259  12.701
75982W        W80050  17.327  16.058  13.100
75983W        W80051  16.532  16.732  13.034
75984W        W80052  17.002  17.106  11.166
75985W        W80053  16.674  15.127  12.494
75986W        W80054  18.153  15.405  11.762
75987W        W80055  14.647  17.994  13.793
75988W        W80056  15.064  17.220  13.325
75989W        W80057  14.631  18.066  11.557
75990W        W80058  16.530  15.336  13.363
75991W        W80059  15.893  17.359  11.212
75992W        W80060  17.798  17.741  11.398
75993W        W80061  16.773  16.394  11.412
75994W        W80062  15.616  15.585  11.929
75995W        W80063  16.448  15.495  10.981
75996W        W80064  17.032  17.060  14.159
75997W        W80065  17.385  14.966  11.776
75998W        W80066  14.715  14.814  11.224
75999W        W80067  16.001  17.133  13.514
76000W        W80068  15.800  17.049  12.606
76001W        W80069  15.542  17.001  11.004
76002W        W80070  14.783  17.242  11.772
76003W        W80071  15.287  16.312  14.214
76004W        W80072  15.991  14.872  14.400
76005W        W80073  16.700  15.014  13.756
76006W        W80074  15.895  14.782  12.037
76007W        W80075  16.954  14.859  11.542
76008W        W80076  14.899  14.791  13.119
76009W        W80077  14.947  15.754  12.489
76010W        W80078  17.636  14.862  12.895
76011W        W80079  15.058  15.360  11.709
76012W        W80080  17.629  15.048  13.325
76013W        W80081  18.025  16.251  11.010
76014W        W80082  15.317  15.009  12.829
76015W        W80083  16.431  15.581  13.769
76016W        W80084  14.579  15.271  11.247
76017W        W80085  15.365  16.660  13.808
76018W        W80086  16.723  16.058  12.987
76019W        W80087  16.590  18.137  11.283
76020W        W80088  14.736  16.644  10.980
76021W        W80089  15.471  17.055  14.106
76022W        W80090  14.992  16.222  13.737
76023W        W80091  15.983  16.327  13.531
76024W        W80092  17.751  14.686  13.793
76025W        W80093  18.149  16.296  13.784
76026W        W80094  18.137  16.496  11.470
76027W        W80095  17.000  16.828  11.569
76028W        W80096  17.474  18.128  11.264
76029W        W80097  16.651  16.118  14.406
76030W        W80098  14.981  17.085  14.446
76031W        W80099  18.187  15.007  14.398
76032W        W80100  17.905  15.935  13.019
76033W        W80101  16.213  18.065  14.496
76034W        W80102  16.068  14.694  11.223
76035W        W80103  17.607  17.293  11.166
76036W        W80104  15.376  15.386  14.052
76037W        W80105  15.810  17.380  13.914
76038W        W80106  17.936  15.371  13.712
76039W        W80107  17.147  18.030  11.680
76040W        W80108  17.386  16.649  13.047
76041W        W80109  15.636  15.065  13.714
76042W        W80110  16.105  16.134  14.471
76043W        W80111  15.608  17.313  11.665
76044W        W80112  17.363  16.811  11.929
76045W        W80113  15.131  15.437  13.653
76046W        W80114  16.460  17.499  12.117
76047W        W80115  18.210  16.059  12.298
76048W        W80116  16.432  14.692  14.017
76049W        W80117  17.212  17.397  13.096
76050W        W80118  17.515  17.741  12.804
76051W        W80119  16.734  17.543  11.232
76052W        W80120  14.744  17.435  14.074
76053W        W80121  15.487  15.427  13.312
76054W        W80122  15.457  14.775  12.422
76055W        W80123  17.078  15.617  13.114
76056W        W80124  15.876  16.788  11.314
76057W        W80125  17.874  16.730  12.813
76058W        W80126  15.201  17.488  14.236
76059W        W80127  17.588  18.170  12.033
76060W        W80128  15.687  15.190  12.478
76061W        W80129  15.456  16.683  12.568
76062W        W80130  15.769  18.094  13.318
76063W        W80131  17.836  18.190  14.350
76064W        W80132  16.995  16.378  13.283
76065W        W80133  14.844  16.176  11.198
76066W        W80134  17.978  17.834  11.895
76067W        W80135  17.815  15.158  11.514
76068W        W80136  15.954  14.677  13.917
76069W        W80137  17.660  17.479  12.375
76070W        W80138  17.689  16.035  12.280
76071W        W80139  15.806  15.708  12.496
76072W        W80140  16.051  15.970  13.820
76073W        W80141  17.162  17.123  13.683
76074W        W80142  15.812  15.577  13.795
76075W        W80143  15.791  18.043  12.411
76076W        W80144  15.108  18.002  14.045
76077W        W80145  15.220  17.363  11.175
76078W        W80146  17.737  17.121  11.985
76079W        W80147  15.341  15.913  13.871
76080W        W80148  18.114  15.843  11.352
76081W        W80149  15.859  16.900  11.823
76082W        W80150  16.958  16.282  13.904
76083W        W80151  16.849  15.910  13.448
76084W        W80152  15.409  16.282  13.477
76085W        W80153  17.619  18.170  13.306
76086W        W80154  17.410  14.804  14.300
76087W        W80155  15.074  14.954  13.887
76088W        W80156  15.413  15.977  12.940
76089W        W80157  15.782  15.791  11.062
76090W        W80158  14.585  17.550  13.607
76091W        W80159  16.170  16.259  13.050
76092W        W80160  15.993  15.284  11.155
76093W        W80161  15.128  16.100  11.936
76094W        W80162  14.899  17.952  13.373
76095W        W80163  17.694  16.178  11.481
76096W        W80164  17.789  15.094  14.167
76097W        W80165  17.225  17.303  12.130
76098W        W80166  14.823  16.227  14.307
76099W        W80167  17.789  14.691  11.603
76100W        W80168  17.309  17.166  11.614
76101W        W80169  16.211  16.224  11.699
76102W        W80170  17.398  15.028  11.222
76103W        W80171  17.463  15.635  13.408
76104W        W80172  15.172  16.228  12.615
76105W        W80173  15.466  17.167  12.264
76106W        W80174  17.229  15.787  12.229
76107W        W80175  16.252  15.166  12.925
76108W        W80176  18.214  17.077  13.436
76109W        W80177  18.132  15.064  12.997
76110W        W80178  14.671  17.894  12.373
76111W        W80179  15.180  17.081  11.909
76112W        W80180  15.095  14.698  14.462
76113W        W80181  16.214  17.551  14.564
76114W        W80182  17.969  16.519  12.354
76115W        W80183  17.323  16.696  11.234
76116W        W80184  16.618  18.217  13.446
76117W        W80185  17.475  16.939  14.483
76118W        W80186  16.290  14.649  11.763
76119W        W80187  17.003  15.518  12.622
76120W        W80188  14.689  17.105  12.954
76121W        W80189  15.942  15.067  11.595
76122W        W80190  15.746  16.551  14.444
76123W        W80191  16.740  15.532  12.158
76124W        W80192  16.945  16.942  13.280
76125W        W80193  15.099  17.547  13.715
76126W        W80194  15.690  17.530  14.438
76127W        W80195  15.541  15.327  11.452
76128W        W80196  17.058  15.469  11.777
76129W        W80197  17.016  17.577  14.014
76130W        W80198  15.701  16.169  12.613
76131W        W80199  15.356  17.867  13.478
76132W        W80200  18.101  17.984  11.079
76133W        W80201  14.964  16.656  14.075
76134W        W80202  16.959  16.918  12.763
76135W        W80203  15.395  16.567  12.005
76136W        W80204  15.766  17.574  13.400
76137W        W80205  16.144  14.993  12.441
76138W        W80206  14.755  16.977  11.371
76139W        W80207  16.274  15.928  11.241
76140W        W80208  14.920  16.477  12.260
76141W        W80209  16.210  15.119  13.724
76142W        W80210  17.882  14.828  11.151
76143W        W80211  17.975  16.574  14.250
76144W        W80212  16.629  17.831  14.402
76145W        W80213  18.187  16.925  13.924
76146W        W80214  17.595  17.723  14.535
76147W        W80215  15.334  18.179  13.013
76148W        W80216  18.193  16.801  11.887
76149W        W80217  16.723  16.068  12.400
76150W        W80218  16.490  14.680  12.290
76151W        W80219  15.549  17.664  12.127
76152W        W80220  16.048  15.405  13.352
76153W        W80221  15.748  14.774  12.821
76154W        W80222  14.811  17.596  11.369
76155W        W80223  16.627  16.960  12.087
76156W        W80224  15.502  17.755  13.966
76157W        W80225  14.979  16.578  11.662
76158W        W80226  14.864  15.121  12.661
76159W        W80227  16.412  17.086  12.718
76160W        W80228  14.664  14.940  11.738
76161W        W80229  17.328  16.146  13.665
76162W        W80230  17.205  15.532  11.237
76163W        W80231  17.722  17.204  12.885
76164W        W80232  16.383  17.688  12.716
76165W        W80233  15.795  17.792  11.627
76166W        W80234  17.077  14.695  11.057
76167W        W80235  14.877  17.955  12.798
76168W        W80236  17.074  15.713  14.433
76169W        W80237  15.057  15.243  14.432
76170W        W80238  14.788  15.843  11.765
76171W        W80239  15.479  15.832  11.490
76172W        W80240  17.242  16.159  14.307
76173W        W80241  15.585  16.440  13.016
76174W        W80242  17.059  14.726  12.136
76175W        W80243  16.190  18.157  12.639
76176W        W80244  17.404  17.619  13.576
76177W        W80245  16.988  17.768  12.687
76178W        W80246  17.007  16.748  12.281
76179W        W80247  16.469  14.973  11.352
76180W        W80248  18.150  14.601  12.074
76181W        W80249  15.838  16.236  11.237
76182W        W80250  18.004  15.573  12.227
76183W        W80251  16.696  16.743  11.104
76184W        W80252  17.632  16.943  13.852
76185W        W80253  17.286  17.644  11.319
76186W        W80254  15.901  15.319  14.225
76187W        W80255  15.721  15.903  13.466
76188W        W80256  17.813  17.398  13.743
76189W        W80257  16.913  15.348  14.120
76190W        W80258  14.757  15.819  13.897
76191W        W80259  16.517  16.296  13.623
76192W        W80260  14.874  17.054  12.280
76193W        W80261  15.021  16.351  13.170
76194W        W80262  17.338  16.637  13.520
76195W        W80263  17.110  18.017  14.331
76196W        W80264  17.006  15.756  13.884
76197W        W80265  17.283  17.810  12.289
76198W        W80266  16.285  17.530  13.612
76199W        W80267  15.770  17.885  12.881
76200W        W80268  17.575  17.056  13.300
76201W        W80269  16.625  17.128  14.437
76202W        W80270  15.230  17.081  12.776
76203W        W80271  17.576  16.840  12.421
76204W        W80272  17.217  17.906  13.172
76205W        W80273  15.195  17.635  13.042
76206W        W80274  16.216  15.687  14.252
76207W        W80275  16.667  17.853  11.763
76208W        W80276  15.975  17.108  14.401
76209W        W80277  16.101  17.346  11.778
76210W        W80278  15.322  16.086  11.037
76211W        W80279  14.661  18.172  17.936
76212W        W80280  15.037  17.065  17.459
76213W        W80281  17.742  16.795  15.229
76214W        W80282  17.872  17.880  17.256
76215W        W80283  15.790  17.871  14.782
76216W        W80284  15.873  16.023  15.765
76217W        W80285  15.388  15.871  15.929
76218W        W80286  16.379  16.686  15.363
76219W        W80287  16.054  17.778  17.718
76220W        W80288  14.703  15.339  17.681
76221W        W80289  15.465  14.619  17.483
76222W        W80290  17.159  15.007  16.370
76223W        W80291  16.808  15.878  14.940
76224W        W80292  17.378  15.312  18.031
76225W        W80293  14.744  15.104  17.156
76226W        W80294  14.843  17.723  18.177
76227W        W80295  16.365  17.113  14.909
76228W        W80296  14.797  15.896  16.602
76229W        W80297  15.690  15.787  17.839
76230W        W80298  18.149  15.646  16.338
76231W        W80299  17.913  16.689  17.197
76232W        W80300  16.221  16.022  16.224
76233W        W80301  16.767  17.361  16.593
76234W        W80302  15.267  16.795  16.825
76235W        W80303  14.626  16.323  16.396
76236W        W80304  15.662  16.295  17.588
76237W        W80305  17.933  16.078  17.842
76238W        W80306  15.549  17.522  16.287
76239W        W80307  16.670  17.211  17.421
76240W        W80308  15.890  15.851  16.646
76241W        W80309  16.182  16.635  16.289
76242W        W80310  17.179  17.408  18.137
76243W        W80311  16.258  16.728  18.147
76244W        W80312  16.239  16.444  17.625
76245W        W80313  14.648  15.835  18.147
76246W        W80314  17.480  17.370  17.746
76247W        W80315  15.061  14.952  15.744
76248W        W80316  15.588  17.210  16.743
76249W        W80317  18.051  16.993  16.033
76250W        W80318  17.464  15.393  16.600
76251W        W80319  17.749  15.346  14.695
76252W        W80320  18.214  16.147  17.001
76253W        W80321  16.181  17.854  16.754
76254W        W80322  17.955  17.320  15.192
76255W        W80323  15.084  18.106  14.946
76256W        W80324  15.477  18.152  15.622
76257W        W80325  15.274  14.906  17.048
76258W        W80326  17.897  15.924  17.323
76259W        W80327  17.302  16.346  15.782
76260W        W80328  17.268  16.034  14.809
76261W        W80329  16.476  17.178  16.949
76262W        W80330  16.282  15.508  16.148
76263W        W80331  16.882  17.595  17.142
76264W        W80332  17.753  16.386  15.564
76265W        W80333  16.655  15.044  15.580
76266W        W80334  15.312  17.738  15.263
76267W        W80335  14.683  15.237  15.862
76268W        W80336  17.469  15.844  16.336
76269W        W80337  14.927  17.461  16.251
76270W        W80338  16.268  17.811  15.121
76271W        W80339  17.660  15.837  14.585
76272W        W80340  14.683  17.595  16.749
76273W        W80341  15.474  17.167  17.229
76274W        W80342  15.847  16.527  15.848
76275W        W80343  15.869  14.932  16.941
76276W        W80344  18.098  14.694  16.238
76277W        W80345  15.317  16.566  14.706
76278W        W80346  14.972  15.599  14.885
76279W        W80347  15.034  17.555  15.679
76280W        W80348  16.165  17.038  15.927
76281W        W80349  17.497  17.897  17.641
76282W        W80350  16.423  15.539  15.325
76283W        W80351  17.806  17.937  16.097
76284W        W80352  17.483  15.790  17.695
76285W        W80353  18.196  17.446  15.829
76286W        W80354  16.823  16.738  17.313
76287W        W80355  14.589  16.289  15.519
76288W        W80356  15.700  16.704  17.092
76289W        W80357  16.904  15.968  15.470
76290W        W80358  16.781  16.458  15.574
76291W        W80359  15.124  15.878  17.048
76292W        W80360  15.109  15.754  17.970
76293W        W80361  14.999  14.671  16.129
76294W        W80362  16.767  15.018  16.690
76295W        W80363  16.415  15.203  17.853
76296W        W80364  16.770  15.352  15.031
76297W        W80365  17.953  17.745  17.785
76298W        W80366  16.920  14.826  17.824
76299W        W80367  17.939  17.127  17.946
76300W        W80368  17.369  15.294  17.542
76301W        W80369  17.169  15.232  15.812
76302W        W80370  17.562  16.366  18.216
76303W        W80371  15.302  17.942  16.202
76304W        W80372  15.960  15.659  15.188
76305W        W80373  15.529  14.943  17.852
76306W        W80374  17.581  15.427  15.533
76307W        W80375  17.948  15.909  15.478
76308W        W80376  15.691  18.126  17.949
76309W        W80377  15.617  14.662  15.184
76310W        W80378  17.938  15.196  16.219
76311W        W80379  18.088  17.445  14.664
76312W        W80380  14.995  16.648  16.366
76313W        W80381  16.912  15.235  14.596
76314W        W80382  18.046  17.567  16.316
76315W        W80383  18.085  14.761  17.066
76316W        W80384  16.530  15.973  17.620
76317W        W80385  16.623  17.312  15.323
76318W        W80386  17.023  16.606  18.063
76319W        W80387  16.697  14.583  16.372
76320W        W80388  15.309  15.486  16.435
76321W        W80389  14.863  16.686  17.209
76322W        W80390  16.722  17.879  15.915
76323W        W80391  17.916  15.476  16.787
76324W        W80392  16.553  17.823  17.554
76325W        W80393  17.896  16.882  14.759
76326W        W80394  16.331  16.365  15.820
76327W        W80395  18.183  14.876  17.561
76328W        W80396  16.332  16.711  17.155
76329W        W80397  16.549  15.597  16.600
76330W        W80398  17.401  15.895  15.438
76331W        W80399  17.688  15.628  15.080
76332W        W80400  17.497  17.668  15.469
76333W        W80401  17.331  17.271  16.265
76334W        W80402  17.227  16.350  15.243
76335W        W80403  16.660  16.560  16.229
76336W        W80404  17.541  16.348  16.296
76337W        W80405  14.916  15.363  16.720
76338W        W80406  17.694  16.415  17.547
76339W        W80407  18.045  18.033  16.693
76340W        W80408  15.975  17.477  16.095
76341W        W80409  16.982  18.010  17.419
76342W        W80410  16.976  15.340  17.183
76343W        W80411  16.183  18.048  17.244
76344W        W80412  17.880  15.002  15.710
76345W        W80413  17.671  16.321  17.011
76346W        W80414  14.654  15.642  17.049
76347W        W80415  17.514  15.437  16.067
76348W        W80416  17.925  15.588  17.844
76349W        W80417  16.810  17.287  16.062
76350W        W80418  16.066  17.878  15.675
76351W        W80419  15.181  15.058  14.933
76352W        W80420  16.285  14.712  16.743
76353W        W80421  15.313  17.832  14.591
76354W        W80422  15.687  16.298  15.342
76355W        W80423  16.341  16.927  17.655
76356W        W80424  16.171  15.285  15.645
76357W        W80425  17.527  14.882  16.073
76358W        W80426  17.247  18.164  16.401
76359W        W80427  16.659  17.812  16.741
76360W        W80428  16.055  16.849  16.702
76361W        W80429  17.825  17.572  16.828
76362W        W80430  15.519  15.075  15.597
76363W        W80431  16.041  17.372  16.557
76364W        W80432  15.524  15.303  14.622
76365W        W80433  16.325  15.912  17.016
76366W        W80434  17.173  14.778  16.886
76367W        W80435  14.593  16.621  16.771
76368W        W80436  16.297  16.439  14.929
76369W        W80437  15.565  14.754  14.699
76370W        W80438  16.303  15.835  15.750
76371W        W80439  17.273  14.811  17.449
76372W        W80440  15.861  16.823  17.558
76373W        W80441  16.665  16.605  17.775
76374W        W80442  17.282  16.635  17.668
76375W        W80443  16.566  14.775  18.173
76376W        W80444  15.788  15.391  16.566
76377W        W80445  15.214  15.347  15.964
76378W        W80446  15.000  18.059  15.640
76379W        W80447  16.332  17.389  17.765
76380W        W80448  15.367  16.874  15.124
76381W        W80449  17.047  16.259  16.345
76382W        W80450  17.327  16.058  16.744
76383W        W80451  16.532  16.732  16.678
76384W        W80452  17.002  17.106  14.810
76385W        W80453  16.674  15.127  16.138
76386W        W80454  18.153  15.405  15.406
76387W        W80455  14.647  17.994  17.437
76388W        W80456  15.064  17.220  16.969
76389W        W80457  14.631  18.066  15.201
76390W        W80458  16.530  15.336  17.007
76391W        W80459  15.893  17.359  14.856
76392W        W80460  17.798  17.741  15.042
76393W        W80461  16.773  16.394  15.056
76394W        W80462  15.616  15.585  15.573
76395W        W80463  16.448  15.495  14.625
76396W        W80464  17.032  17.060  17.803
76397W        W80465  17.385  14.966  15.420
76398W        W80466  14.715  14.814  14.868
76399W        W80467  16.001  17.133  17.158
76400W        W80468  15.800  17.049  16.250
76401W        W80469  15.542  17.001  14.648
76402W        W80470  14.783  17.242  15.416
76403W        W80471  15.287  16.312  17.858
76404W        W80472  15.991  14.872  18.044
76405W        W80473  16.700  15.014  17.400
76406W        W80474  15.895  14.782  15.681
76407W        W80475  16.954  14.859  15.186
76408W        W80476  14.899  14.791  16.763
76409W        W80477  14.947  15.754  16.133
76410W        W80478  17.636  14.862  16.539
76411W        W80479  15.058  15.360  15.353
76412W        W80480  17.629  15.048  16.969
76413W        W80481  18.025  16.251  14.654
76414W        W80482  15.317  15.009  16.473
76415W        W80483  16.431  15.581  17.413
76416W        W80484  14.579  15.271  14.891
76417W        W80485  15.365  16.660  17.452
76418W        W80486  16.723  16.058  16.631
76419W        W80487  16.590  18.137  14.927
76420W        W80488  14.736  16.644  14.624
76421W        W80489  15.471  17.055  17.750
76422W        W80490  14.992  16.222  17.381
76423W        W80491  15.983  16.327  17.175
76424W        W80492  17.751  14.686  17.437
76425W        W80493  18.149  16.296  17.428
76426W        W80494  18.137  16.496  15.114
76427W        W80495  17.000  16.828  15.213
76428W        W80496  17.474  18.128  14.908
76429W        W80497  16.651  16.118  18.050
76430W        W80498  14.981  17.085  18.090
76431W        W80499  18.187  15.007  18.042
76432W        W80500  17.905  15.935  16.663
76433W        W80501  16.213  18.065  18.140
76434W        W80502  16.068  14.694  14.867
76435W        W80503  17.607  17.293  14.810
76436W        W80504  15.376  15.386  17.696
76437W        W80505  15.810  17.380  17.558
76438W        W80506  17.936  15.371  17.356
76439W        W80507  17.147  18.030  15.324
76440W        W80508  17.386  16.649  16.691
76441W        W80509  15.636  15.065  17.358
76442W        W80510  16.105  16.134  18.115
76443W        W80511  15.608  17.313  15.309
76444W        W80512  17.363  16.811  15.573
76445W        W80513  15.131  15.437  17.297
76446W        W80514  16.460  17.499  15.761
76447W        W80515  18.210  16.059  15.942
76448W        W80516  16.432  14.692  17.661
76449W        W80517  17.212  17.397  16.740
76450W        W80518  17.515  17.741  16.448
76451W        W80519  16.734  17.543  14.876
76452W        W80520  14.744  17.435  17.718
76453W        W80521  15.487  15.427  16.956
76454W        W80522  15.457  14.775  16.066
76455W        W80523  17.078  15.617  16.758
76456W        W80524  15.876  16.788  14.958
76457W        W80525  17.874  16.730  16.457
76458W        W80526  15.201  17.488  17.880
76459W        W80527  17.588  18.170  15.677
76460W        W80528  15.687  15.190  16.122
76461W        W80529  15.456  16.683  16.212
76462W        W80530  15.769  18.094  16.962
76463W        W80531  17.836  18.190  17.994
76464W        W80532  16.995  16.378  16.927
76465W        W80533  14.844  16.176  14.842
76466W        W80534  17.978  17.834  15.539
76467W        W80535  17.815  15.158  15.158
76468W        W80536  15.954  14.677  17.561
76469W        W80537  17.660  17.479  16.019
76470W        W80538  17.689  16.035  15.924
76471W        W80539  15.806  15.708  16.140
76472W        W80540  16.051  15.970  17.464
76473W        W80541  17.162  17.123  17.327
76474W        W80542  15.812  15.577  17.439
76475W        W80543  15.791  18.043  16.055
76476W        W80544  15.108  18.002  17.689
76477W        W80545  15.220  17.363  14.819
76478W        W80546  17.737  17.121  15.629
76479W        W80547  15.341  15.913  17.515
76480W        W80548  18.114  15.843  14.996
76481W        W80549  15.859  16.900  15.467
76482W        W80550  16.958  16.282  17.548
76483W        W80551  16.849  15.910  17.092
76484W        W80552  15.409  16.282  17.121
76485W        W80553  17.619  18.170  16.950
76486W        W80554  17.410  14.804  17.944
76487W        W80555  15.074  14.954  17.531
76488W        W80556  15.413  15.977  16.584
76489W        W80557  15.782  15.791  14.706
76490W        W80558  14.585  17.550  17.251
76491W        W80559  16.170  16.259  16.694
76492W        W80560  15.993  15.284  14.799
76493W        W80561  15.128  16.100  15.580
76494W        W80562  14.899  17.952  17.017
76495W        W80563  17.694  16.178  15.125
76496W        W80564  17.789  15.094  17.811
76497W        W80565  17.225  17.303  15.774
76498W        W80566  14.823  16.227  17.951
76499W        W80567  17.789  14.691  15.247
76500W        W80568  17.309  17.166  15.258
76501W        W80569  16.211  16.224  15.343
76502W        W80570  17.398  15.028  14.866
76503W        W80571  17.463  15.635  17.052
76504W        W80572  15.172  16.228  16.259
76505W        W80573  15.466  17.167  15.908
76506W        W80574  17.229  15.787  15.873
76507W        W80575  16.252  15.166  16.569
76508W        W80576  18.214  17.077  17.080
76509W        W80577  18.132  15.064  16.641
76510W        W80578  14.671  17.894  16.017
76511W        W80579  15.180  17.081  15.553
76512W        W80580  15.095  14.698  18.106
76513W        W80581  16.214  17.551  18.208
76514W        W80582  17.969  16.519  15.998
76515W        W80583  17.323  16.696  14.878
76516W        W80584  16.618  18.217  17.090
76517W        W80585  17.475  16.939  18.127
76518W        W80586  16.290  14.649  15.407
76519W        W80587  17.003  15.518  16.266
76520W        W80588  14.689  17.105  16.598
76521W        W80589  15.942  15.067  15.239
76522W        W80590  15.746  16.551  18.088
76523W        W80591  16.740  15.532  15.802
76524W        W80592  16.945  16.942  16.924
76525W        W80593  15.099  17.547  17.359
76526W        W80594  15.690  17.530  18.082
76527W        W80595  15.541  15.327  15.096
76528W        W80596  17.058  15.469  15.421
76529W        W80597  17.016  17.577  17.658
76530W        W80598  15.701  16.169  16.257
76531W        W80599  15.356  17.867  17.122
76532W        W80600  18.101  17.984  14.723
76533W        W80601  14.964  16.656  17.719
76534W        W80602  16.959  16.918  16.407
76535W        W80603  15.395  16.567  15.649
76536W        W80604  15.766  17.574  17.044
76537W        W80605  16.144  14.993  16.085
76538W        W80606  14.755  16.977  15.015
76539W        W80607  16.274  15.928  14.885
76540W        W80608  14.920  16.477  15.904
76541W        W80609  16.210  15.119  17.368
76542W        W80610  17.882  14.828  14.795
76543W        W80611  17.975  16.574  17.894
76544W        W80612  16.629  17.831  18.046
76545W        W80613  18.187  16.925  17.568
76546W        W80614  17.595  17.723  18.179
76547W        W80615  15.334  18.179  16.657
76548W        W80616  18.193  16.801  15.531
76549W        W80617  16.723  16.068  16.044
76550W        W80618  16.490  14.680  15.934
76551W        W80619  15.549  17.664  15.771
76552W        W80620  16.048  15.405  16.996
76553W        W80621  15.748  14.774  16.465
76554W        W80622  14.811  17.596  15.013
76555W        W80623  16.627  16.960  15.731
76556W        W80624  15.502  17.755  17.610
76557W        W80625  14.979  16.578  15.306
76558W        W80626  14.864  15.121  16.305
76559W        W80627  16.412  17.086  16.362
76560W        W80628  14.664  14.940  15.382
76561W        W80629  17.328  16.146  17.309
76562W        W80630  17.205  15.532  14.881
76563W        W80631  17.722  17.204  16.529
76564W        W80632  16.383  17.688  16.360
76565W        W80633  15.795  17.792  15.271
76566W        W80634  17.077  14.695  14.701
76567W        W80635  14.877  17.955  16.442
76568W        W80636  17.074  15.713  18.077
76569W        W80637  15.057  15.243  18.076
76570W        W80638  14.788  15.843  15.409
76571W        W80639  15.479  15.832  15.134
76572W        W80640  17.242  16.159  17.951
76573W        W80641  15.585  16.440  16.660
76574W        W80642  17.059  14.726  15.780
76575W        W80643  16.190  18.157  16.283
76576W        W80644  17.404  17.619  17.220
76577W        W80645  16.988  17.768  16.331
76578W        W80646  17.007  16.748  15.925
76579W        W80647  16.469  14.973  14.996
76580W        W80648  18.150  14.601  15.718
76581W        W80649  15.838  16.236  14.881
76582W        W80650  18.004  15.573  15.871
76583W        W80651  16.696  16.743  14.748
76584W        W80652  17.632  16.943  17.496
76585W        W80653  17.286  17.644  14.963
76586W        W80654  15.901  15.319  17.869
76587W        W80655  15.721  15.903  17.110
76588W        W80656  17.813  17.398  17.387
76589W        W80657  16.913  15.348  17.764
76590W        W80658  14.757  15.819  17.541
76591W        W80659  16.517  16.296  17.267
76592W        W80660  14.874  17.054  15.924
76593W        W80661  15.021  16.351  16.814
76594W        W80662  17.338  16.637  17.164
76595W        W80663  17.110  18.017  17.975
76596W        W80664  17.006  15.756  17.528
76597W        W80665  17.283  17.810  15.933
76598W        W80666  16.285  17.530  17.256
76599W        W80667  15.770  17.885  16.525
76600W        W80668  17.575  17.056  16.944
76601W        W80669  16.625  17.128  18.081
76602W        W80670  15.230  17.081  16.420
76603W        W80671  17.576  16.840  16.065
76604W        W80672  17.217  17.906  16.816
76605W        W80673  15.195  17.635  16.686
76606W        W80674  16.216  15.687  17.896
76607W        W80675  16.667  17.853  15.407
76608W        W80676  15.975  17.108  18.045
76609W        W80677  16.101  17.346  15.422
76610W        W80678  15.322  16.086  14.681
76611W        W80679  14.661  18.172  21.580
76612W        W80680  15.037  17.065  21.103
76613W        W80681  17.742  16.795  18.873
76614W        W80682  17.872  17.880  20.900
76615W        W80683  15.790  17.871  18.426
76616W        W80684  15.873  16.023  19.409
76617W        W80685  15.388  15.871  19.573
76618W        W80686  16.379  16.686  19.007
76619W        W80687  16.054  17.778  21.362
76620W        W80688  14.703  15.339  21.325
76621W        W80689  15.465  14.619  21.127
76622W        W80690  17.159  15.007  20.014
76623W        W80691  16.808  15.878  18.584
76624W        W80692  17.378  15.312  21.675
76625W        W80693  14.744  15.104  20.800
76626W        W80694  14.843  17.723  21.821
76627W        W80695  16.365  17.113  18.553
76628W        W80696  14.797  15.896  20.246
76629W        W80697  15.690  15.787  21.483
76630W        W80698  18.149  15.646  19.982
76631W        W80699  17.913  16.689  20.841
76632W        W80700  16.221  16.022  19.868
76633W        W80701  16.767  17.361  20.237
76634W        W80702  15.267  16.795  20.469
76635W        W80703  14.626  16.323  20.040
76636W        W80704  15.662  16.295  21.232
76637W        W80705  17.933  16.078  21.486
76638W        W80706  15.549  17.522  19.931
76639W        W80707  16.670  17.211  21.065
76640W        W80708  15.890  15.851  20.290
76641W        W80709  16.182  16.635  19.933
76642W        W80710  17.179  17.408  21.781
76643W        W80711  16.258  16.728  21.791
76644W        W80712  16.239  16.444  21.269
76645W        W80713  14.648  15.835  21.791
76646W        W80714  17.480  17.370  21.390
76647W        W80715  15.061  14.952  19.388
76648W        W80716  15.588  17.210  20.387
76649W        W80717  18.051  16.993  19.677
76650W        W80718  17.464  15.393  20.244
76651W        W80719  17.749  15.346  18.339
76652W        W80720  18.214  16.147  20.645
76653W        W80721  16.181  17.854  20.398
76654W        W80722  17.955  17.320  18.836
76655W        W80723  15.084  18.106  18.590
76656W        W80724  15.477  18.152  19.266
76657W        W80725  15.274  14.906  20.692
76658W        W80726  17.897  15.924  20.967
76659W        W80727  17.302  16.346  19.426
76660W        W80728  17.268  16.034  18.453
76661W        W80729  16.476  17.178  20.593
76662W        W80730  16.282  15.508  19.792
76663W        W80731  16.882  17.595  20.786
76664W        W80732  17.753  16.386  19.208
76665W        W80733  16.655  15.044  19.224
76666W        W80734  15.312  17.738  18.907
76667W        W80735  14.683  15.237  19.506
76668W        W80736  17.469  15.844  19.980
76669W        W80737  14.927  17.461  19.895
76670W        W80738  16.268  17.811  18.765
76671W        W80739  17.660  15.837  18.229
76672W        W80740  14.683  17.595  20.393
76673W        W80741  15.474  17.167  20.873
76674W        W80742  15.847  16.527  19.492
76675W        W80743  15.869  14.932  20.585
76676W        W80744  18.098  14.694  19.882
76677W        W80745  15.317  16.566  18.350
76678W        W80746  14.972  15.599  18.529
76679W        W80747  15.034  17.555  19.323
76680W        W80748  16.165  17.038  19.571
76681W        W80749  17.497  17.897  21.285
76682W        W80750  16.423  15.539  18.969
76683W        W80751  17.806  17.937  19.741
76684W        W80752  17.483  15.790  21.339
76685W        W80753  18.196  17.446  19.473
76686W        W80754  16.823  16.738  20.957
76687W        W80755  14.589  16.289  19.163
76688W        W80756  15.700  16.704  20.736
76689W        W80757  16.904  15.968  19.114
76690W        W80758  16.781  16.458  19.218
76691W        W80759  15.124  15.878  20.692
76692W        W80760  15.109  15.754  21.614
76693W        W80761  14.999  14.671  19.773
76694W        W80762  16.767  15.018  20.334
76695W        W80763  16.415  15.203  21.497
76696W        W80764  16.770  15.352  18.675
76697W        W80765  17.953  17.745  21.429
76698W        W80766  16.920  14.826  21.468
76699W        W80767  17.939  17.127  21.590
76700W        W80768  17.369  15.294  21.186
76701W        W80769  17.169  15.232  19.456
76702W        W80770  17.562  16.366  21.860
76703W        W80771  15.302  17.942  19.846
76704W        W80772  15.960  15.659  18.832
76705W        W80773  15.529  14.943  21.496
76706W        W80774  17.581  15.427  19.177
76707W        W80775  17.948  15.909  19.122
76708W        W80776  15.691  18.126  21.593
76709W        W80777  15.617  14.662  18.828
76710W        W80778  17.938  15.196  19.863
76711W        W80779  18.088  17.445  18.308
76712W        W80780  14.995  16.648  20.010
76713W        W80781  16.912  15.235  18.240
76714W        W80782  18.046  17.567  19.960
76715W        W80783  18.085  14.761  20.710
76716W        W80784  16.530  15.973  21.264
76717W        W80785  16.623  17.312  18.967
76718W        W80786  17.023  16.606  21.707
76719W        W80787  16.697  14.583  20.016
76720W        W80788  15.309  15.486  20.079
76721W        W80789  14.863  16.686  20.853
76722W        W80790  16.722  17.879  19.559
76723W        W80791  17.916  15.476  20.431
76724W        W80792  16.553  17.823  21.198
76725W        W80793  17.896  16.882  18.403
76726W        W80794  16.331  16.365  19.464
76727W        W80795  18.183  14.876  21.205
76728W        W80796  16.332  16.711  20.799
76729W        W80797  16.549  15.597  20.244
76730W        W80798  17.401  15.895  19.082
76731W        W80799  17.688  15.628  18.724
76732W        W80800  17.497  17.668  19.113
76733W        W80801  17.331  17.271  19.909
76734W        W80802  17.227  16.350  18.887
76735W        W80803  16.660  16.560  19.873
76736W        W80804  17.541  16.348  19.940
76737W        W80805  14.916  15.363  20.364
76738W        W80806  17.694  16.415  21.191
76739W        W80807  18.045  18.033  20.337
76740W        W80808  15.975  17.477  19.739
76741W        W80809  16.982  18.010  21.063
76742W        W80810  16.976  15.340  20.827
76743W        W80811  16.183  18.048  20.888
76744W        W80812  17.880  15.002  19.354
76745W        W80813  17.671  16.321  20.655
76746W        W80814  14.654  15.642  20.693
76747W        W80815  17.514  15.437  19.711
76748W        W80816  17.925  15.588  21.488
76749W        W80817  16.810  17.287  19.706
76750W        W80818  16.066  17.878  19.319
76751W        W80819  15.181  15.058  18.577
76752W        W80820  16.285  14.712  20.387
76753W        W80821  15.313  17.832  18.235
76754W        W80822  15.687  16.298  18.986
76755W        W80823  16.341  16.927  21.299
76756W        W80824  16.171  15.285  19.289
76757W        W80825  17.527  14.882  19.717
76758W        W80826  17.247  18.164  20.045
76759W        W80827  16.659  17.812  20.385
76760W        W80828  16.055  16.849  20.346
76761W        W80829  17.825  17.572  20.472
76762W        W80830  15.519  15.075  19.241
76763W        W80831  16.041  17.372  20.201
76764W        W80832  15.524  15.303  18.266
76765W        W80833  16.325  15.912  20.660
76766W        W80834  17.173  14.778  20.530
76767W        W80835  14.593  16.621  20.415
76768W        W80836  16.297  16.439  18.573
76769W        W80837  15.565  14.754  18.343
76770W        W80838  16.303  15.835  19.394
76771W        W80839  17.273  14.811  21.093
76772W        W80840  15.861  16.823  21.202
76773W        W80841  16.665  16.605  21.419
76774W        W80842  17.282  16.635  21.312
76775W        W80843  16.566  14.775  21.817
76776W        W80844  15.788  15.391  20.210
76777W        W80845  15.214  15.347  19.608
76778W        W80846  15.000  18.059  19.284
76779W        W80847  16.332  17.389  21.409
76780W        W80848  15.367  16.874  18.768
76781W        W80849  17.047  16.259  19.989
76782W        W80850  17.327  16.058  20.388
76783W        W80851  16.532  16.732  20.322
76784W        W80852  17.002  17.106  18.454
76785W        W80853  16.674  15.127  19.782
76786W        W80854  18.153  15.405  19.050
76787W        W80855  14.647  17.994  21.081
76788W        W80856  15.064  17.220  20.613
76789W        W80857  14.631  18.066  18.845
76790W        W80858  16.530  15.336  20.651
76791W        W80859  15.893  17.359  18.500
76792W        W80860  17.798  17.741  18.686
76793W        W80861  16.773  16.394  18.700
76794W        W80862  15.616  15.585  19.217
76795W        W80863  16.448  15.495  18.269
76796W        W80864  17.032  17.060  21.447
76797W        W80865  17.385  14.966  19.064
76798W        W80866  14.715  14.814  18.512
76799W        W80867  16.001  17.133  20.802
76800W        W80868  15.800  17.049  19.894
76801W        W80869  15.542  17.001  18.292
76802W        W80870  14.783  17.242  19.060
76803W        W80871  15.287  16.312  21.502
76804W        W80872  15.991  14.872  21.688
76805W        W80873  16.700  15.014  21.044
76806W        W80874  15.895  14.782  19.325
76807W        W80875  16.954  14.859  18.830
76808W        W80876  14.899  14.791  20.407
76809W        W80877  14.947  15.754  19.777
76810W        W80878  17.636  14.862  20.183
76811W        W80879  15.058  15.360  18.997
76812W        W80880  17.629  15.048  20.613
76813W        W80881  18.025  16.251  18.298
76814W        W80882  15.317  15.009  20.117
76815W        W80883  16.431  15.581  21.057
76816W        W80884  14.579  15.271  18.535
76817W        W80885  15.365  16.660  21.096
76818W        W80886  16.723  16.058  20.275
76819W        W80887  16.590  18.137  18.571
76820W        W80888  14.736  16.644  18.268
76821W        W80889  15.471  17.055  21.394
76822W        W80890  14.992  16.222  21.025
76823W        W80891  15.983  16.327  20.819
76824W        W80892  17.751  14.686  21.081
76825W        W80893  18.149  16.296  21.072
76826W        W80894  18.137  16.496  18.758
76827W        W80895  17.000  16.828  18.857
76828W        W80896  17.474  18.128  18.552
76829W        W80897  16.651  16.118  21.694
76830W        W80898  14.981  17.085  21.734
76831W        W80899  18.187  15.007  21.686
76832W        W80900  17.905  15.935  20.307
76833W        W80901  16.213  18.065  21.784
76834W        W80902  16.068  14.694  18.511
76835W        W80903  17.607  17.293  18.454
76836W        W80904  15.376  15.386  21.340
76837W        W80905  15.810  17.380  21.202
76838W        W80906  17.936  15.371  21.000
76839W        W80907  17.147  18.030  18.968
76840W        W80908  17.386  16.649  20.335
76841W        W80909  15.636  15.065  21.002
76842W        W80910  16.105  16.134  21.759
76843W        W80911  15.608  17.313  18.953
76844W        W80912  17.363  16.811  19.217
76845W        W80913  15.131  15.437  20.941
76846W        W80914  16.460  17.499  19.405
76847W        W80915  18.210  16.059  19.586
76848W        W80916  16.432  14.692  21.305
76849W        W80917  17.212  17.397  20.384
76850W        W80918  17.515  17.741  20.092
76851W        W80919  16.734  17.543  18.520
76852W        W80920  14.744  17.435  21.362
76853W        W80921  15.487  15.427  20.600
76854W        W80922  15.457  14.775  19.710
76855W        W80923  17.078  15.617  20.402
76856W        W80924  15.876  16.788  18.602
76857W        W80925  17.874  16.730  20.101
76858W        W80926  15.201  17.488  21.524
76859W        W80927  17.588  18.170  19.321
76860W        W80928  15.687  15.190  19.766
76861W        W80929  15.456  16.683  19.856
76862W        W80930  15.769  18.094  20.606
76863W        W80931  17.836  18.190  21.638
76864W        W80932  16.995  16.378  20.571
76865W        W80933  14.844  16.176  18.486
76866W        W80934  17.978  17.834  19.183
76867W        W80935  17.815  15.158  18.802
76868W        W80936  15.954  14.677  21.205
76869W        W80937  17.660  17.479  19.663
76870W        W80938  17.689  16.035  19.568
76871W        W80939  15.806  15.708  19.784
76872W        W80940  16.051  15.970  21.108
76873W        W80941  17.162  17.123  20.971
76874W        W80942  15.812  15.577  21.083
76875W        W80943  15.791  18.043  19.699
76876W        W80944  15.108  18.002  21.333
76877W        W80945  15.220  17.363  18.463
76878W        W80946  17.737  17.121  19.273
76879W        W80947  15.341  15.913  21.159
76880W        W80948  18.114  15.843  18.640
76881W        W80949  15.859  16.900  19.111
76882W        W80950  16.958  16.282  21.192
76883W        W80951  16.849  15.910  20.736
76884W        W80952  15.409  16.282  20.765
76885W        W80953  17.619  18.170  20.594
76886W        W80954  17.410  14.804  21.588
76887W        W80955  15.074  14.954  21.175
76888W        W80956  15.413  15.977  20.228
76889W        W80957  15.782  15.791  18.350
76890W        W80958  14.585  17.550  20.895
76891W        W80959  16.170  16.259  20.338
76892W        W80960  15.993  15.284  18.443
76893W        W80961  15.128  16.100  19.224
76894W        W80962  14.899  17.952  20.661
76895W        W80963  17.694  16.178  18.769
76896W        W80964  17.789  15.094  21.455
76897W        W80965  17.225  17.303  19.418
76898W        W80966  14.823  16.227  21.595
76899W        W80967  17.789  14.691  18.891
76900W        W80968  17.309  17.166  18.902
76901W        W80969  16.211  16.224  18.987
76902W        W80970  17.398  15.028  18.510
76903W        W80971  17.463  15.635  20.696
76904W        W80972  15.172  16.228  19.903
76905W        W80973  15.466  17.167  19.552
76906W        W80974  17.229  15.787  19.517
76907W        W80975  16.252  15.166  20.213
76908W        W80976  18.214  17.077  20.724
76909W        W80977  18.132  15.064  20.285
76910W        W80978  14.671  17.894  19.661
76911W        W80979  15.180  17.081  19.197
76912W        W80980  15.095  14.698  21.750
76913W        W80981  16.214  17.551  21.852
76914W        W80982  17.969  16.519  19.642
76915W        W80983  17.323  16.696  18.522
76916W        W80984  16.618  18.217  20.734
76917W        W80985  17.475  16.939  21.771
76918W        W80986  16.290  14.649  19.051
76919W        W80987  17.003  15.518  19.910
76920W        W80988  14.689  17.105  20.242
76921W        W80989  15.942  15.067  18.883
76922W        W80990  15.746  16.551  21.732
76923W        W80991  16.740  15.532  19.446
76924W        W80992  16.945  16.942  20.568
76925W        W80993  15.099  17.547  21.003
76926W        W80994  15.690  17.530  21.726
76927W        W80995  15.541  15.327  18.740
76928W        W80996  17.058  15.469  19.065
76929W        W80997  17.016  17.577  21.302
76930W        W80998  15.701  16.169  19.901
76931W        W80999  15.356  17.867  20.766
76932W        W81000  18.101  17.984  18.367
76933W        W81001  14.964  16.656  21.363
76934W        W81002  16.959  16.918  20.051
76935W        W81003  15.395  16.567  19.293
76936W        W81004  15.766  17.574  20.688
76937W        W81005  16.144  14.993  19.729
76938W        W81006  14.755  16.977  18.659
76939W        W81007  16.274  15.928  18.529
76940W        W81008  14.920  16.477  19.548
76941W        W81009  16.210  15.119  21.012
76942W        W81010  17.882  14.828  18.439
76943W        W81011  17.975  16.574  21.538
76944W        W81012  16.629  17.831  21.690
76945W        W81013  18.187  16.925  21.212
76946W        W81014  17.595  17.723  21.823
76947W        W81015  15.334  18.179  20.301
76948W        W81016  18.193  16.801  19.175
76949W        W81017  16.723  16.068  19.688
76950W        W81018  16.490  14.680  19.578
76951W        W81019  15.549  17.664  19.415
76952W        W81020  16.048  15.405  20.640
76953W        W81021  15.748  14.774  20.109
76954W        W81022  14.811  17.596  18.657
76955W        W81023  16.627  16.960  19.375
76956W        W81024  15.502  17.755  21.254
76957W        W81025  14.979  16.578  18.950
76958W        W81026  14.864  15.121  19.949
76959W        W81027  16.412  17.086  20.006
76960W        W81028  14.664  14.940  19.026
76961W        W81029  17.328  16.146  20.953
76962W        W81030  17.205  15.532  18.525
76963W        W81031  17.722  17.204  20.173
76964W        W81032  16.383  17.688  20.004
76965W        W81033  15.795  17.792  18.915
76966W        W81034  17.077  14.695  18.345
76967W        W81035  14.877  17.955  20.086
76968W        W81036  17.074  15.713  21.721
76969W        W81037  15.057  15.243  21.720
76970W        W81038  14.788  15.843  19.053
76971W        W81039  15.479  15.832  18.778
76972W        W81040  17.242  16.159  21.595
76973W        W81041  15.585  16.440  20.304
76974W        W81042  17.059  14.726  19.424
76975W        W81043  16.190  18.157  19.927
76976W        W81044  17.404  17.619  20.864
76977W        W81045  16.988  17.768  19.975
76978W        W81046  17.007  16.748  19.569
76979W        W81047  16.469  14.973  18.640
76980W        W81048  18.150  14.601  19.362
76981W        W81049  15.838  16.236  18.525
76982W        W81050  18.004  15.573  19.515
76983W        W81051  16.696  16.743  18.392
76984W        W81052  17.632  16.943  21.140
76985W        W81053  17.286  17.644  18.607
76986W        W81054  15.901  15.319  21.513
76987W        W81055  15.721  15.903  20.754
76988W        W81056  17.813  17.398  21.031
76989W        W81057  16.913  15.348  21.408
76990W        W81058  14.757  15.819  21.185
76991W        W81059  16.517  16.296  20.911
76992W        W81060  14.874  17.054  19.568
76993W        W81061  15.021  16.351  20.458
76994W        W81062  17.338  16.637  20.808
76995W        W81063  17.110  18.017  21.619
76996W        W81064  17.006  15.756  21.172
76997W        W81065  17.283  17.810  19.577
76998W        W81066  16.285  17.530  20.900
76999W        W81067  15.770  17.885  20.169
77000W        W81068  17.575  17.056  20.588
77001W        W81069  16.625  17.128  21.725
77002W        W81070  15.230  17.081  20.064
77003W        W81071  17.576  16.840  19.709
77004W        W81072  17.217  17.906  20.460
77005W        W81073  15.195  17.635  20.330
77006W        W81074  16.216  15.687  21.540
77007W        W81075  16.667  17.853  19.051
77008W        W81076  15.975  17.108  21.689
77009W        W81077  16.101  17.346  19.066
77010W        W81078  15.322  16.086  18.325
77011W        W81079  17.742  16.795  22.518
77012W        W81080  15.790  17.871  22.071
77013W        W81081  15.873  16.023  23.054
77014W        W81082  15.388  15.871  23.218
77015W        W81083  16.379  16.686  22.652
77016W        W81084  16.808  15.878  22.229
77017W        W81085  16.365  17.113  22.198
77018W        W81086  15.061  14.952  23.033
77019W        W81087  17.749  15.346  21.984
77020W        W81088  17.955  17.320  22.481
77021W        W81089  15.084  18.106  22.235
77022W        W81090  15.477  18.152  22.911
77023W        W81091  17.302  16.346  23.071
77024W        W81092  17.268  16.034  22.098
77025W        W81093  17.753  16.386  22.853
77026W        W81094  16.655  15.044  22.869
77027W        W81095  15.312  17.738  22.552
77028W        W81096  16.268  17.811  22.410
77029W        W81097  17.660  15.837  21.874
77030W        W81098  15.847  16.527  23.137
77031W        W81099  15.317  16.566  21.995
77032W        W81100  14.972  15.599  22.174
77033W        W81101  15.034  17.555  22.968
77034W        W81102  16.165  17.038  23.216
77035W        W81103  16.423  15.539  22.614
77036W        W81104  14.589  16.289  22.808
77037W        W81105  16.904  15.968  22.759
77038W        W81106  16.781  16.458  22.863
77039W        W81107  16.770  15.352  22.320
77040W        W81108  17.169  15.232  23.101
77041W        W81109  15.960  15.659  22.477
77042W        W81110  17.581  15.427  22.822
77043W        W81111  17.948  15.909  22.767
77044W        W81112  15.617  14.662  22.473
77045W        W81113  18.088  17.445  21.953
77046W        W81114  16.912  15.235  21.885
77047W        W81115  16.623  17.312  22.612
77048W        W81116  16.722  17.879  23.204
77049W        W81117  17.896  16.882  22.048
77050W        W81118  16.331  16.365  23.109
77051W        W81119  17.401  15.895  22.727
77052W        W81120  17.688  15.628  22.369
77053W        W81121  17.497  17.668  22.758
77054W        W81122  17.227  16.350  22.532
77055W        W81123  17.880  15.002  22.999
77056W        W81124  16.066  17.878  22.964
77057W        W81125  15.181  15.058  22.222
77058W        W81126  15.313  17.832  21.880
77059W        W81127  15.687  16.298  22.631
77060W        W81128  16.171  15.285  22.934
77061W        W81129  15.519  15.075  22.886
77062W        W81130  15.524  15.303  21.911
77063W        W81131  16.297  16.439  22.218
77064W        W81132  15.565  14.754  21.988
77065W        W81133  16.303  15.835  23.039
77066W        W81134  15.214  15.347  23.253
77067W        W81135  15.000  18.059  22.929
77068W        W81136  15.367  16.874  22.413
77069W        W81137  17.002  17.106  22.099
77070W        W81138  18.153  15.405  22.695
77071W        W81139  14.631  18.066  22.490
77072W        W81140  15.893  17.359  22.145
77073W        W81141  17.798  17.741  22.331
77074W        W81142  16.773  16.394  22.345
77075W        W81143  15.616  15.585  22.862
77076W        W81144  16.448  15.495  21.914
77077W        W81145  17.385  14.966  22.709
77078W        W81146  14.715  14.814  22.157
77079W        W81147  15.542  17.001  21.937
77080W        W81148  14.783  17.242  22.705
77081W        W81149  15.895  14.782  22.970
77082W        W81150  16.954  14.859  22.475
77083W        W81151  15.058  15.360  22.642
77084W        W81152  18.025  16.251  21.943
77085W        W81153  14.579  15.271  22.180
77086W        W81154  16.590  18.137  22.216
77087W        W81155  14.736  16.644  21.913
77088W        W81156  18.137  16.496  22.403
77089W        W81157  17.000  16.828  22.502
77090W        W81158  17.474  18.128  22.197
77091W        W81159  16.068  14.694  22.156
77092W        W81160  17.607  17.293  22.099
77093W        W81161  17.147  18.030  22.613
77094W        W81162  15.608  17.313  22.598
77095W        W81163  17.363  16.811  22.862
77096W        W81164  16.460  17.499  23.050
77097W        W81165  18.210  16.059  23.231
77098W        W81166  16.734  17.543  22.165
77099W        W81167  15.876  16.788  22.247
77100W        W81168  17.588  18.170  22.966
77101W        W81169  14.844  16.176  22.131
77102W        W81170  17.978  17.834  22.828
77103W        W81171  17.815  15.158  22.447
77104W        W81172  17.689  16.035  23.213
77105W        W81173  15.220  17.363  22.108
77106W        W81174  17.737  17.121  22.918
77107W        W81175  18.114  15.843  22.285
77108W        W81176  15.859  16.900  22.756
77109W        W81177  15.782  15.791  21.995
77110W        W81178  15.993  15.284  22.088
77111W        W81179  15.128  16.100  22.869
77112W        W81180  17.694  16.178  22.414
77113W        W81181  17.225  17.303  23.063
77114W        W81182  17.789  14.691  22.536
77115W        W81183  17.309  17.166  22.547
77116W        W81184  16.211  16.224  22.632
77117W        W81185  17.398  15.028  22.155
77118W        W81186  15.466  17.167  23.197
77119W        W81187  17.229  15.787  23.162
77120W        W81188  14.671  17.894  23.306
77121W        W81189  15.180  17.081  22.842
77122W        W81190  17.969  16.519  23.287
77123W        W81191  17.323  16.696  22.167
77124W        W81192  16.290  14.649  22.696
77125W        W81193  15.942  15.067  22.528
77126W        W81194  16.740  15.532  23.091
77127W        W81195  15.541  15.327  22.385
77128W        W81196  17.058  15.469  22.710
77129W        W81197  18.101  17.984  22.012
77130W        W81198  14.755  16.977  22.304
77131W        W81199  16.274  15.928  22.174
77132W        W81200  14.920  16.477  23.193
77133W        W81201  17.882  14.828  22.084
77134W        W81202  18.193  16.801  22.820
77135W        W81203  16.490  14.680  23.223
77136W        W81204  15.549  17.664  23.060
77137W        W81205  14.811  17.596  22.302
77138W        W81206  16.627  16.960  23.020
77139W        W81207  14.979  16.578  22.595
77140W        W81208  14.664  14.940  22.671
77141W        W81209  17.205  15.532  22.170
77142W        W81210  15.795  17.792  22.560
77143W        W81211  17.077  14.695  21.990
77144W        W81212  14.788  15.843  22.698
77145W        W81213  15.479  15.832  22.423
77146W        W81214  17.007  16.748  23.214
77147W        W81215  16.469  14.973  22.285
77148W        W81216  18.150  14.601  23.007
77149W        W81217  15.838  16.236  22.170
77150W        W81218  18.004  15.573  23.160
77151W        W81219  16.696  16.743  22.037
77152W        W81220  17.286  17.644  22.252
77153W        W81221  14.874  17.054  23.213
77154W        W81222  17.283  17.810  23.222
77155W        W81223  16.667  17.853  22.696
77156W        W81224  16.101  17.346  22.711
77157W        W81225  15.322  16.086  21.970
77158W        W81226  14.661  21.816   3.359
77159W        W81227  15.037  20.709   2.882
77160W        W81228  17.742  20.439   0.652
77161W        W81229  17.872  21.524   2.679
77162W        W81230  15.790  21.515   0.205
77163W        W81231  15.873  19.667   1.188
77164W        W81232  15.388  19.515   1.352
77165W        W81233  16.379  20.330   0.786
77166W        W81234  16.054  21.422   3.141
77167W        W81235  14.703  18.983   3.104
77168W        W81236  15.465  18.263   2.906
77169W        W81237  17.159  18.651   1.793
77170W        W81238  16.808  19.522   0.363
77171W        W81239  17.378  18.956   3.454
77172W        W81240  14.744  18.748   2.579
77173W        W81241  14.843  21.367   3.600
77174W        W81242  16.365  20.757   0.332
77175W        W81243  14.797  19.540   2.025
77176W        W81244  15.690  19.431   3.262
77177W        W81245  18.149  19.290   1.761
77178W        W81246  17.913  20.333   2.620
77179W        W81247  16.221  19.666   1.647
77180W        W81248  16.767  21.005   2.016
77181W        W81249  15.267  20.439   2.248
77182W        W81250  14.626  19.967   1.819
77183W        W81251  15.662  19.939   3.011
77184W        W81252  17.933  19.722   3.265
77185W        W81253  15.549  21.166   1.710
77186W        W81254  16.670  20.855   2.844
77187W        W81255  15.890  19.495   2.069
77188W        W81256  16.182  20.279   1.712
77189W        W81257  17.179  21.052   3.560
77190W        W81258  16.258  20.372   3.570
77191W        W81259  16.239  20.088   3.048
77192W        W81260  14.648  19.479   3.570
77193W        W81261  17.480  21.014   3.169
77194W        W81262  15.061  18.596   1.167
77195W        W81263  15.588  20.854   2.166
77196W        W81264  18.051  20.637   1.456
77197W        W81265  17.464  19.037   2.023
77198W        W81266  17.749  18.990   0.118
77199W        W81267  18.214  19.791   2.424
77200W        W81268  16.181  21.498   2.177
77201W        W81269  17.955  20.964   0.615
77202W        W81270  15.084  21.750   0.369
77203W        W81271  15.477  21.796   1.045
77204W        W81272  15.274  18.550   2.471
77205W        W81273  17.897  19.568   2.746
77206W        W81274  17.302  19.990   1.205
77207W        W81275  17.268  19.678   0.232
77208W        W81276  16.476  20.822   2.372
77209W        W81277  16.282  19.152   1.571
77210W        W81278  16.882  21.239   2.565
77211W        W81279  17.753  20.030   0.987
77212W        W81280  16.655  18.688   1.003
77213W        W81281  15.312  21.382   0.686
77214W        W81282  14.683  18.881   1.285
77215W        W81283  17.469  19.488   1.759
77216W        W81284  14.927  21.105   1.674
77217W        W81285  16.268  21.455   0.544
77218W        W81286  17.660  19.481   0.008
77219W        W81287  14.683  21.239   2.172
77220W        W81288  15.474  20.811   2.652
77221W        W81289  15.847  20.171   1.271
77222W        W81290  15.869  18.576   2.364
77223W        W81291  18.098  18.338   1.661
77224W        W81292  15.317  20.210   0.129
77225W        W81293  14.972  19.243   0.308
77226W        W81294  15.034  21.199   1.102
77227W        W81295  16.165  20.682   1.350
77228W        W81296  17.497  21.541   3.064
77229W        W81297  16.423  19.183   0.748
77230W        W81298  17.806  21.581   1.520
77231W        W81299  17.483  19.434   3.118
77232W        W81300  18.196  21.090   1.252
77233W        W81301  16.823  20.382   2.736
77234W        W81302  14.589  19.933   0.942
77235W        W81303  15.700  20.348   2.515
77236W        W81304  16.904  19.612   0.893
77237W        W81305  16.781  20.102   0.997
77238W        W81306  15.124  19.522   2.471
77239W        W81307  15.109  19.398   3.393
77240W        W81308  14.999  18.315   1.552
77241W        W81309  16.767  18.662   2.113
77242W        W81310  16.770  18.996   0.454
77243W        W81311  17.953  21.389   3.208
77244W        W81312  16.920  18.470   3.247
77245W        W81313  17.939  20.771   3.369
77246W        W81314  17.369  18.938   2.965
77247W        W81315  17.169  18.876   1.235
77248W        W81316  17.562  20.010   3.639
77249W        W81317  15.302  21.586   1.625
77250W        W81318  15.960  19.303   0.611
77251W        W81319  15.529  18.587   3.275
77252W        W81320  17.581  19.071   0.956
77253W        W81321  17.948  19.553   0.901
77254W        W81322  15.691  21.770   3.372
77255W        W81323  15.617  18.306   0.607
77256W        W81324  17.938  18.840   1.642
77257W        W81325  18.088  21.089   0.087
77258W        W81326  14.995  20.292   1.789
77259W        W81327  16.912  18.879   0.019
77260W        W81328  18.046  21.211   1.739
77261W        W81329  18.085  18.405   2.489
77262W        W81330  16.530  19.617   3.043
77263W        W81331  16.623  20.956   0.746
77264W        W81332  17.023  20.250   3.486
77265W        W81333  16.697  18.227   1.795
77266W        W81334  15.309  19.130   1.858
77267W        W81335  14.863  20.330   2.632
77268W        W81336  16.722  21.523   1.338
77269W        W81337  17.916  19.120   2.210
77270W        W81338  16.553  21.467   2.977
77271W        W81339  17.896  20.526   0.182
77272W        W81340  16.331  20.009   1.243
77273W        W81341  18.183  18.520   2.984
77274W        W81342  16.332  20.355   2.578
77275W        W81343  16.549  19.241   2.023
77276W        W81344  17.401  19.539   0.861
77277W        W81345  17.688  19.272   0.503
77278W        W81346  17.497  21.312   0.892
77279W        W81347  17.331  20.915   1.688
77280W        W81348  17.227  19.994   0.666
77281W        W81349  16.660  20.204   1.652
77282W        W81350  17.541  19.992   1.719
77283W        W81351  14.916  19.007   2.143
77284W        W81352  17.694  20.059   2.970
77285W        W81353  18.045  21.677   2.116
77286W        W81354  15.975  21.121   1.518
77287W        W81355  16.982  21.654   2.842
77288W        W81356  16.976  18.984   2.606
77289W        W81357  16.183  21.692   2.667
77290W        W81358  17.880  18.646   1.133
77291W        W81359  17.671  19.965   2.434
77292W        W81360  14.654  19.286   2.472
77293W        W81361  17.514  19.081   1.490
77294W        W81362  17.925  19.232   3.267
77295W        W81363  16.810  20.931   1.485
77296W        W81364  16.066  21.522   1.098
77297W        W81365  15.181  18.702   0.356
77298W        W81366  16.285  18.356   2.166
77299W        W81367  15.313  21.476   0.014
77300W        W81368  15.687  19.942   0.765
77301W        W81369  16.341  20.571   3.078
77302W        W81370  16.171  18.929   1.068
77303W        W81371  17.527  18.526   1.496
77304W        W81372  17.247  21.808   1.824
77305W        W81373  16.659  21.456   2.164
77306W        W81374  16.055  20.493   2.125
77307W        W81375  17.825  21.216   2.251
77308W        W81376  15.519  18.719   1.020
77309W        W81377  16.041  21.016   1.980
77310W        W81378  15.524  18.947   0.045
77311W        W81379  16.325  19.556   2.439
77312W        W81380  17.173  18.422   2.309
77313W        W81381  14.593  20.265   2.194
77314W        W81382  16.297  20.083   0.352
77315W        W81383  15.565  18.398   0.122
77316W        W81384  16.303  19.479   1.173
77317W        W81385  17.273  18.455   2.872
77318W        W81386  15.861  20.467   2.981
77319W        W81387  16.665  20.249   3.198
77320W        W81388  17.282  20.279   3.091
77321W        W81389  15.788  19.035   1.989
77322W        W81390  15.214  18.991   1.387
77323W        W81391  15.000  21.703   1.063
77324W        W81392  16.332  21.033   3.188
77325W        W81393  15.367  20.518   0.547
77326W        W81394  17.047  19.903   1.768
77327W        W81395  17.327  19.702   2.167
77328W        W81396  16.532  20.376   2.101
77329W        W81397  17.002  20.750   0.233
77330W        W81398  16.674  18.771   1.561
77331W        W81399  18.153  19.049   0.829
77332W        W81400  14.647  21.638   2.860
77333W        W81401  15.064  20.864   2.392
77334W        W81402  14.631  21.710   0.624
77335W        W81403  16.530  18.980   2.430
77336W        W81404  15.893  21.003   0.279
77337W        W81405  17.798  21.385   0.465
77338W        W81406  16.773  20.038   0.479
77339W        W81407  15.616  19.229   0.996
77340W        W81408  16.448  19.139   0.048
77341W        W81409  17.032  20.704   3.226
77342W        W81410  17.385  18.610   0.843
77343W        W81411  14.715  18.458   0.291
77344W        W81412  16.001  20.777   2.581
77345W        W81413  15.800  20.693   1.673
77346W        W81414  15.542  20.645   0.071
77347W        W81415  14.783  20.886   0.839
77348W        W81416  15.287  19.956   3.281
77349W        W81417  15.991  18.516   3.467
77350W        W81418  16.700  18.658   2.823
77351W        W81419  15.895  18.426   1.104
77352W        W81420  16.954  18.503   0.609
77353W        W81421  14.899  18.435   2.186
77354W        W81422  14.947  19.398   1.556
77355W        W81423  17.636  18.506   1.962
77356W        W81424  15.058  19.004   0.776
77357W        W81425  17.629  18.692   2.392
77358W        W81426  18.025  19.895   0.077
77359W        W81427  15.317  18.653   1.896
77360W        W81428  16.431  19.225   2.836
77361W        W81429  14.579  18.915   0.314
77362W        W81430  15.365  20.304   2.875
77363W        W81431  16.723  19.702   2.054
77364W        W81432  16.590  21.781   0.350
77365W        W81433  14.736  20.288   0.047
77366W        W81434  15.471  20.699   3.173
77367W        W81435  14.992  19.866   2.804
77368W        W81436  15.983  19.971   2.598
77369W        W81437  17.751  18.330   2.860
77370W        W81438  18.149  19.940   2.851
77371W        W81439  18.137  20.140   0.537
77372W        W81440  17.000  20.472   0.636
77373W        W81441  17.474  21.772   0.331
77374W        W81442  16.651  19.762   3.473
77375W        W81443  14.981  20.729   3.513
77376W        W81444  18.187  18.651   3.465
77377W        W81445  17.905  19.579   2.086
77378W        W81446  16.213  21.709   3.563
77379W        W81447  16.068  18.338   0.290
77380W        W81448  17.607  20.937   0.233
77381W        W81449  15.376  19.030   3.119
77382W        W81450  15.810  21.024   2.981
77383W        W81451  17.936  19.015   2.779
77384W        W81452  17.147  21.674   0.747
77385W        W81453  17.386  20.293   2.114
77386W        W81454  15.636  18.709   2.781
77387W        W81455  16.105  19.778   3.538
77388W        W81456  15.608  20.957   0.732
77389W        W81457  17.363  20.455   0.996
77390W        W81458  15.131  19.081   2.720
77391W        W81459  16.460  21.143   1.184
77392W        W81460  18.210  19.703   1.365
77393W        W81461  16.432  18.336   3.084
77394W        W81462  17.212  21.041   2.163
77395W        W81463  17.515  21.385   1.871
77396W        W81464  16.734  21.187   0.299
77397W        W81465  14.744  21.079   3.141
77398W        W81466  15.487  19.071   2.379
77399W        W81467  15.457  18.419   1.489
77400W        W81468  17.078  19.261   2.181
77401W        W81469  15.876  20.432   0.381
77402W        W81470  17.874  20.374   1.880
77403W        W81471  15.201  21.132   3.303
77404W        W81472  17.588  21.814   1.100
77405W        W81473  15.687  18.834   1.545
77406W        W81474  15.456  20.327   1.635
77407W        W81475  15.769  21.738   2.385
77408W        W81476  17.836  21.834   3.417
77409W        W81477  16.995  20.022   2.350
77410W        W81478  14.844  19.820   0.265
77411W        W81479  17.978  21.478   0.962
77412W        W81480  17.815  18.802   0.581
77413W        W81481  15.954  18.321   2.984
77414W        W81482  17.660  21.123   1.442
77415W        W81483  17.689  19.679   1.347
77416W        W81484  15.806  19.352   1.563
77417W        W81485  16.051  19.614   2.887
77418W        W81486  17.162  20.767   2.750
77419W        W81487  15.812  19.221   2.862
77420W        W81488  15.791  21.687   1.478
77421W        W81489  15.108  21.646   3.112
77422W        W81490  15.220  21.007   0.242
77423W        W81491  17.737  20.765   1.052
77424W        W81492  15.341  19.557   2.938
77425W        W81493  18.114  19.487   0.419
77426W        W81494  15.859  20.544   0.890
77427W        W81495  16.958  19.926   2.971
77428W        W81496  16.849  19.554   2.515
77429W        W81497  15.409  19.926   2.544
77430W        W81498  17.619  21.814   2.373
77431W        W81499  17.410  18.448   3.367
77432W        W81500  15.074  18.598   2.954
77433W        W81501  15.413  19.621   2.007
77434W        W81502  15.782  19.435   0.129
77435W        W81503  14.585  21.194   2.674
77436W        W81504  16.170  19.903   2.117
77437W        W81505  15.993  18.928   0.222
77438W        W81506  15.128  19.744   1.003
77439W        W81507  14.899  21.596   2.440
77440W        W81508  17.694  19.822   0.548
77441W        W81509  17.789  18.738   3.234
77442W        W81510  17.225  20.947   1.197
77443W        W81511  14.823  19.871   3.374
77444W        W81512  17.789  18.335   0.670
77445W        W81513  17.309  20.810   0.681
77446W        W81514  16.211  19.868   0.766
77447W        W81515  17.398  18.672   0.289
77448W        W81516  17.463  19.279   2.475
77449W        W81517  15.172  19.872   1.682
77450W        W81518  15.466  20.811   1.331
77451W        W81519  17.229  19.431   1.296
77452W        W81520  16.252  18.810   1.992
77453W        W81521  18.214  20.721   2.503
77454W        W81522  18.132  18.708   2.064
77455W        W81523  14.671  21.538   1.440
77456W        W81524  15.180  20.725   0.976
77457W        W81525  15.095  18.342   3.529
77458W        W81526  16.214  21.195   3.631
77459W        W81527  17.969  20.163   1.421
77460W        W81528  17.323  20.340   0.301
77461W        W81529  16.618  21.861   2.513
77462W        W81530  17.475  20.583   3.550
77463W        W81531  16.290  18.293   0.830
77464W        W81532  17.003  19.162   1.689
77465W        W81533  14.689  20.749   2.021
77466W        W81534  15.942  18.711   0.662
77467W        W81535  15.746  20.195   3.511
77468W        W81536  16.740  19.176   1.225
77469W        W81537  16.945  20.586   2.347
77470W        W81538  15.099  21.191   2.782
77471W        W81539  15.690  21.174   3.505
77472W        W81540  15.541  18.971   0.519
77473W        W81541  17.058  19.113   0.844
77474W        W81542  17.016  21.221   3.081
77475W        W81543  15.701  19.813   1.680
77476W        W81544  15.356  21.511   2.545
77477W        W81545  18.101  21.628   0.146
77478W        W81546  14.964  20.300   3.142
77479W        W81547  16.959  20.562   1.830
77480W        W81548  15.395  20.211   1.072
77481W        W81549  15.766  21.218   2.467
77482W        W81550  16.144  18.637   1.508
77483W        W81551  14.755  20.621   0.438
77484W        W81552  16.274  19.572   0.308
77485W        W81553  14.920  20.121   1.327
77486W        W81554  16.210  18.763   2.791
77487W        W81555  17.882  18.472   0.218
77488W        W81556  17.975  20.218   3.317
77489W        W81557  16.629  21.475   3.469
77490W        W81558  18.187  20.569   2.991
77491W        W81559  17.595  21.367   3.602
77492W        W81560  15.334  21.823   2.080
77493W        W81561  18.193  20.445   0.954
77494W        W81562  16.723  19.712   1.467
77495W        W81563  16.490  18.324   1.357
77496W        W81564  15.549  21.308   1.194
77497W        W81565  16.048  19.049   2.419
77498W        W81566  15.748  18.418   1.888
77499W        W81567  14.811  21.240   0.436
77500W        W81568  16.627  20.604   1.154
77501W        W81569  15.502  21.399   3.033
77502W        W81570  14.979  20.222   0.729
77503W        W81571  14.864  18.765   1.728
77504W        W81572  16.412  20.730   1.785
77505W        W81573  14.664  18.584   0.805
77506W        W81574  17.328  19.790   2.732
77507W        W81575  17.205  19.176   0.304
77508W        W81576  17.722  20.848   1.952
77509W        W81577  16.383  21.332   1.783
77510W        W81578  15.795  21.436   0.694
77511W        W81579  17.077  18.339   0.124
77512W        W81580  14.877  21.599   1.865
77513W        W81581  17.074  19.357   3.500
77514W        W81582  15.057  18.887   3.499
77515W        W81583  14.788  19.487   0.832
77516W        W81584  15.479  19.476   0.557
77517W        W81585  17.242  19.803   3.374
77518W        W81586  15.585  20.084   2.083
77519W        W81587  17.059  18.370   1.203
77520W        W81588  16.190  21.801   1.706
77521W        W81589  17.404  21.263   2.643
77522W        W81590  16.988  21.412   1.754
77523W        W81591  17.007  20.392   1.348
77524W        W81592  16.469  18.617   0.419
77525W        W81593  18.150  18.245   1.141
77526W        W81594  15.838  19.880   0.304
77527W        W81595  18.004  19.217   1.294
77528W        W81596  16.696  20.387   0.171
77529W        W81597  17.632  20.587   2.919
77530W        W81598  17.286  21.288   0.386
77531W        W81599  15.901  18.963   3.292
77532W        W81600  15.721  19.547   2.533
77533W        W81601  17.813  21.042   2.810
77534W        W81602  16.913  18.992   3.187
77535W        W81603  14.757  19.463   2.964
77536W        W81604  16.517  19.940   2.690
77537W        W81605  14.874  20.698   1.347
77538W        W81606  15.021  19.995   2.237
77539W        W81607  17.338  20.281   2.587
77540W        W81608  17.110  21.661   3.398
77541W        W81609  17.006  19.400   2.951
77542W        W81610  17.283  21.454   1.356
77543W        W81611  16.285  21.174   2.679
77544W        W81612  15.770  21.529   1.948
77545W        W81613  17.575  20.700   2.367
77546W        W81614  16.625  20.772   3.504
77547W        W81615  15.230  20.725   1.843
77548W        W81616  17.576  20.484   1.488
77549W        W81617  17.217  21.550   2.239
77550W        W81618  15.195  21.279   2.109
77551W        W81619  16.216  19.331   3.319
77552W        W81620  16.667  21.497   0.830
77553W        W81621  15.975  20.752   3.468
77554W        W81622  16.101  20.990   0.845
77555W        W81623  15.322  19.730   0.104
77556W        W81624  14.661  21.816   7.003
77557W        W81625  17.742  20.439   4.296
77558W        W81626  17.872  21.524   6.323
77559W        W81627  15.790  21.515   3.849
77560W        W81628  15.873  19.667   4.832
77561W        W81629  15.388  19.515   4.996
77562W        W81630  16.379  20.330   4.430
77563W        W81631  16.054  21.422   6.785
77564W        W81632  15.465  18.263   6.550
77565W        W81633  17.159  18.651   5.437
77566W        W81634  16.808  19.522   4.007
77567W        W81635  17.378  18.956   7.098
77568W        W81636  14.744  18.748   6.223
77569W        W81637  14.843  21.367   7.244
77570W        W81638  16.365  20.757   3.976
77571W        W81639  14.797  19.540   5.669
77572W        W81640  15.690  19.431   6.906
77573W        W81641  18.149  19.290   5.405
77574W        W81642  17.913  20.333   6.264
77575W        W81643  16.221  19.666   5.291
77576W        W81644  16.767  21.005   5.660
77577W        W81645  15.267  20.439   5.892
77578W        W81646  14.626  19.967   5.463
77579W        W81647  15.662  19.939   6.655
77580W        W81648  17.933  19.722   6.909
77581W        W81649  15.549  21.166   5.354
77582W        W81650  16.670  20.855   6.488
77583W        W81651  15.890  19.495   5.713
77584W        W81652  16.182  20.279   5.356
77585W        W81653  17.179  21.052   7.204
77586W        W81654  16.258  20.372   7.214
77587W        W81655  16.239  20.088   6.692
77588W        W81656  14.648  19.479   7.214
77589W        W81657  17.480  21.014   6.813
77590W        W81658  15.061  18.596   4.811
77591W        W81659  15.588  20.854   5.810
77592W        W81660  18.051  20.637   5.100
77593W        W81661  17.464  19.037   5.667
77594W        W81662  17.749  18.990   3.762
77595W        W81663  18.214  19.791   6.068
77596W        W81664  16.181  21.498   5.821
77597W        W81665  17.955  20.964   4.259
77598W        W81666  15.084  21.750   4.013
77599W        W81667  15.477  21.796   4.689
77600W        W81668  15.274  18.550   6.115
77601W        W81669  17.897  19.568   6.390
77602W        W81670  17.302  19.990   4.849
77603W        W81671  17.268  19.678   3.876
77604W        W81672  16.476  20.822   6.016
77605W        W81673  16.282  19.152   5.215
77606W        W81674  16.882  21.239   6.209
77607W        W81675  17.753  20.030   4.631
77608W        W81676  16.655  18.688   4.647
77609W        W81677  15.312  21.382   4.330
77610W        W81678  14.683  18.881   4.929
77611W        W81679  17.469  19.488   5.403
77612W        W81680  14.927  21.105   5.318
77613W        W81681  16.268  21.455   4.188
77614W        W81682  17.660  19.481   3.652
77615W        W81683  14.683  21.239   5.816
77616W        W81684  15.474  20.811   6.296
77617W        W81685  15.847  20.171   4.915
77618W        W81686  15.869  18.576   6.008
77619W        W81687  18.098  18.338   5.305
77620W        W81688  15.317  20.210   3.773
77621W        W81689  14.972  19.243   3.952
77622W        W81690  15.034  21.199   4.746
77623W        W81691  16.165  20.682   4.994
77624W        W81692  17.497  21.541   6.708
77625W        W81693  17.806  21.581   5.164
77626W        W81694  17.483  19.434   6.762
77627W        W81695  18.196  21.090   4.896
77628W        W81696  16.823  20.382   6.380
77629W        W81697  14.589  19.933   4.586
77630W        W81698  15.700  20.348   6.159
77631W        W81699  16.904  19.612   4.537
77632W        W81700  16.781  20.102   4.641
77633W        W81701  15.124  19.522   6.115
77634W        W81702  15.109  19.398   7.037
77635W        W81703  14.999  18.315   5.196
77636W        W81704  16.767  18.662   5.757
77637W        W81705  16.415  18.847   6.920
77638W        W81706  17.953  21.389   6.852
77639W        W81707  16.920  18.470   6.891
77640W        W81708  17.939  20.771   7.013
77641W        W81709  17.369  18.938   6.609
77642W        W81710  17.169  18.876   4.879
77643W        W81711  17.562  20.010   7.283
77644W        W81712  15.302  21.586   5.269
77645W        W81713  15.960  19.303   4.255
77646W        W81714  15.529  18.587   6.919
77647W        W81715  17.581  19.071   4.600
77648W        W81716  17.948  19.553   4.545
77649W        W81717  15.691  21.770   7.016
77650W        W81718  15.617  18.306   4.251
77651W        W81719  17.938  18.840   5.286
77652W        W81720  18.088  21.089   3.731
77653W        W81721  14.995  20.292   5.433
77654W        W81722  18.046  21.211   5.383
77655W        W81723  18.085  18.405   6.133
77656W        W81724  16.530  19.617   6.687
77657W        W81725  16.623  20.956   4.390
77658W        W81726  17.023  20.250   7.130
77659W        W81727  16.697  18.227   5.439
77660W        W81728  15.309  19.130   5.502
77661W        W81729  14.863  20.330   6.276
77662W        W81730  16.722  21.523   4.982
77663W        W81731  17.916  19.120   5.854
77664W        W81732  16.553  21.467   6.621
77665W        W81733  17.896  20.526   3.826
77666W        W81734  16.331  20.009   4.887
77667W        W81735  18.183  18.520   6.628
77668W        W81736  16.332  20.355   6.222
77669W        W81737  16.549  19.241   5.667
77670W        W81738  17.401  19.539   4.505
77671W        W81739  17.688  19.272   4.147
77672W        W81740  17.497  21.312   4.536
77673W        W81741  17.331  20.915   5.332
77674W        W81742  17.227  19.994   4.310
77675W        W81743  16.660  20.204   5.296
77676W        W81744  17.541  19.992   5.363
77677W        W81745  14.916  19.007   5.787
77678W        W81746  17.694  20.059   6.614
77679W        W81747  18.045  21.677   5.760
77680W        W81748  15.975  21.121   5.162
77681W        W81749  16.982  21.654   6.486
77682W        W81750  16.976  18.984   6.250
77683W        W81751  16.183  21.692   6.311
77684W        W81752  17.880  18.646   4.777
77685W        W81753  17.671  19.965   6.078
77686W        W81754  14.654  19.286   6.116
77687W        W81755  17.514  19.081   5.134
77688W        W81756  17.925  19.232   6.911
77689W        W81757  16.810  20.931   5.129
77690W        W81758  16.066  21.522   4.742
77691W        W81759  15.181  18.702   4.000
77692W        W81760  15.313  21.476   3.658
77693W        W81761  15.687  19.942   4.409
77694W        W81762  16.341  20.571   6.722
77695W        W81763  16.171  18.929   4.712
77696W        W81764  17.527  18.526   5.140
77697W        W81765  17.247  21.808   5.468
77698W        W81766  16.659  21.456   5.808
77699W        W81767  16.055  20.493   5.769
77700W        W81768  17.825  21.216   5.895
77701W        W81769  15.519  18.719   4.664
77702W        W81770  16.041  21.016   5.624
77703W        W81771  15.524  18.947   3.689
77704W        W81772  16.325  19.556   6.083
77705W        W81773  14.593  20.265   5.838
77706W        W81774  16.297  20.083   3.996
77707W        W81775  15.565  18.398   3.766
77708W        W81776  16.303  19.479   4.817
77709W        W81777  15.861  20.467   6.625
77710W        W81778  16.665  20.249   6.842
77711W        W81779  17.282  20.279   6.735
77712W        W81780  16.566  18.419   7.240
77713W        W81781  15.788  19.035   5.633
77714W        W81782  15.214  18.991   5.031
77715W        W81783  15.000  21.703   4.707
77716W        W81784  16.332  21.033   6.832
77717W        W81785  15.367  20.518   4.191
77718W        W81786  17.047  19.903   5.412
77719W        W81787  17.327  19.702   5.811
77720W        W81788  16.532  20.376   5.745
77721W        W81789  17.002  20.750   3.877
77722W        W81790  16.674  18.771   5.205
77723W        W81791  18.153  19.049   4.473
77724W        W81792  14.647  21.638   6.504
77725W        W81793  15.064  20.864   6.036
77726W        W81794  14.631  21.710   4.268
77727W        W81795  16.530  18.980   6.074
77728W        W81796  15.893  21.003   3.923
77729W        W81797  17.798  21.385   4.109
77730W        W81798  16.773  20.038   4.123
77731W        W81799  15.616  19.229   4.640
77732W        W81800  17.032  20.704   6.870
77733W        W81801  17.385  18.610   4.487
77734W        W81802  14.715  18.458   3.935
77735W        W81803  16.001  20.777   6.225
77736W        W81804  15.800  20.693   5.317
77737W        W81805  15.542  20.645   3.715
77738W        W81806  14.783  20.886   4.483
77739W        W81807  15.287  19.956   6.925
77740W        W81808  15.991  18.516   7.111
77741W        W81809  16.700  18.658   6.467
77742W        W81810  15.895  18.426   4.748
77743W        W81811  16.954  18.503   4.253
77744W        W81812  14.899  18.435   5.830
77745W        W81813  14.947  19.398   5.200
77746W        W81814  17.636  18.506   5.606
77747W        W81815  15.058  19.004   4.420
77748W        W81816  17.629  18.692   6.036
77749W        W81817  18.025  19.895   3.721
77750W        W81818  15.317  18.653   5.540
77751W        W81819  16.431  19.225   6.480
77752W        W81820  14.579  18.915   3.958
77753W        W81821  15.365  20.304   6.519
77754W        W81822  16.723  19.702   5.698
77755W        W81823  16.590  21.781   3.994
77756W        W81824  14.736  20.288   3.691
77757W        W81825  15.471  20.699   6.817
77758W        W81826  14.992  19.866   6.448
77759W        W81827  15.983  19.971   6.242
77760W        W81828  17.751  18.330   6.504
77761W        W81829  18.149  19.940   6.495
77762W        W81830  18.137  20.140   4.181
77763W        W81831  17.000  20.472   4.280
77764W        W81832  17.474  21.772   3.975
77765W        W81833  16.651  19.762   7.117
77766W        W81834  14.981  20.729   7.157
77767W        W81835  18.187  18.651   7.109
77768W        W81836  17.905  19.579   5.730
77769W        W81837  16.213  21.709   7.207
77770W        W81838  16.068  18.338   3.934
77771W        W81839  17.607  20.937   3.877
77772W        W81840  15.376  19.030   6.763
77773W        W81841  15.810  21.024   6.625
77774W        W81842  17.936  19.015   6.423
77775W        W81843  17.147  21.674   4.391
77776W        W81844  17.386  20.293   5.758
77777W        W81845  15.636  18.709   6.425
77778W        W81846  16.105  19.778   7.182
77779W        W81847  15.608  20.957   4.376
77780W        W81848  17.363  20.455   4.640
77781W        W81849  15.131  19.081   6.364
77782W        W81850  16.460  21.143   4.828
77783W        W81851  18.210  19.703   5.009
77784W        W81852  16.432  18.336   6.728
77785W        W81853  17.212  21.041   5.807
77786W        W81854  17.515  21.385   5.515
77787W        W81855  16.734  21.187   3.943
77788W        W81856  14.744  21.079   6.785
77789W        W81857  15.487  19.071   6.023
77790W        W81858  15.457  18.419   5.133
77791W        W81859  17.078  19.261   5.825
77792W        W81860  15.876  20.432   4.025
77793W        W81861  17.874  20.374   5.524
77794W        W81862  15.201  21.132   6.947
77795W        W81863  17.588  21.814   4.744
77796W        W81864  15.687  18.834   5.189
77797W        W81865  15.456  20.327   5.279
77798W        W81866  15.769  21.738   6.029
77799W        W81867  17.836  21.834   7.061
77800W        W81868  16.995  20.022   5.994
77801W        W81869  14.844  19.820   3.909
77802W        W81870  17.978  21.478   4.606
77803W        W81871  17.815  18.802   4.225
77804W        W81872  15.954  18.321   6.628
77805W        W81873  17.660  21.123   5.086
77806W        W81874  17.689  19.679   4.991
77807W        W81875  15.806  19.352   5.207
77808W        W81876  16.051  19.614   6.531
77809W        W81877  17.162  20.767   6.394
77810W        W81878  15.812  19.221   6.506
77811W        W81879  15.791  21.687   5.122
77812W        W81880  15.108  21.646   6.756
77813W        W81881  15.220  21.007   3.886
77814W        W81882  17.737  20.765   4.696
77815W        W81883  15.341  19.557   6.582
77816W        W81884  18.114  19.487   4.063
77817W        W81885  15.859  20.544   4.534
77818W        W81886  16.958  19.926   6.615
77819W        W81887  16.849  19.554   6.159
77820W        W81888  15.409  19.926   6.188
77821W        W81889  17.619  21.814   6.017
77822W        W81890  17.410  18.448   7.011
77823W        W81891  15.074  18.598   6.598
77824W        W81892  15.413  19.621   5.651
77825W        W81893  15.782  19.435   3.773
77826W        W81894  14.585  21.194   6.318
77827W        W81895  16.170  19.903   5.761
77828W        W81896  15.993  18.928   3.866
77829W        W81897  15.128  19.744   4.647
77830W        W81898  14.899  21.596   6.084
77831W        W81899  17.694  19.822   4.192
77832W        W81900  17.789  18.738   6.878
77833W        W81901  17.225  20.947   4.841
77834W        W81902  14.823  19.871   7.018
77835W        W81903  17.789  18.335   4.314
77836W        W81904  17.309  20.810   4.325
77837W        W81905  16.211  19.868   4.410
77838W        W81906  17.398  18.672   3.933
77839W        W81907  17.463  19.279   6.119
77840W        W81908  15.172  19.872   5.326
77841W        W81909  15.466  20.811   4.975
77842W        W81910  17.229  19.431   4.940
77843W        W81911  16.252  18.810   5.636
77844W        W81912  18.214  20.721   6.147
77845W        W81913  18.132  18.708   5.708
77846W        W81914  14.671  21.538   5.084
77847W        W81915  15.180  20.725   4.620
77848W        W81916  15.095  18.342   7.173
77849W        W81917  16.214  21.195   7.275
77850W        W81918  17.969  20.163   5.065
77851W        W81919  17.323  20.340   3.945
77852W        W81920  16.618  21.861   6.157
77853W        W81921  17.475  20.583   7.194
77854W        W81922  16.290  18.293   4.474
77855W        W81923  17.003  19.162   5.333
77856W        W81924  14.689  20.749   5.665
77857W        W81925  15.942  18.711   4.306
77858W        W81926  15.746  20.195   7.155
77859W        W81927  16.740  19.176   4.869
77860W        W81928  16.945  20.586   5.991
77861W        W81929  15.099  21.191   6.426
77862W        W81930  15.690  21.174   7.149
77863W        W81931  15.541  18.971   4.163
77864W        W81932  17.058  19.113   4.488
77865W        W81933  17.016  21.221   6.725
77866W        W81934  15.701  19.813   5.324
77867W        W81935  15.356  21.511   6.189
77868W        W81936  18.101  21.628   3.790
77869W        W81937  16.959  20.562   5.474
77870W        W81938  15.395  20.211   4.716
77871W        W81939  15.766  21.218   6.111
77872W        W81940  16.144  18.637   5.152
77873W        W81941  14.755  20.621   4.082
77874W        W81942  16.274  19.572   3.952
77875W        W81943  14.920  20.121   4.971
77876W        W81944  16.210  18.763   6.435
77877W        W81945  17.882  18.472   3.862
77878W        W81946  17.975  20.218   6.961
77879W        W81947  16.629  21.475   7.113
77880W        W81948  18.187  20.569   6.635
77881W        W81949  17.595  21.367   7.246
77882W        W81950  15.334  21.823   5.724
77883W        W81951  18.193  20.445   4.598
77884W        W81952  16.723  19.712   5.111
77885W        W81953  16.490  18.324   5.001
77886W        W81954  15.549  21.308   4.838
77887W        W81955  16.048  19.049   6.063
77888W        W81956  15.748  18.418   5.532
77889W        W81957  14.811  21.240   4.080
77890W        W81958  16.627  20.604   4.798
77891W        W81959  15.502  21.399   6.677
77892W        W81960  14.979  20.222   4.373
77893W        W81961  14.864  18.765   5.372
77894W        W81962  16.412  20.730   5.429
77895W        W81963  14.664  18.584   4.449
77896W        W81964  17.328  19.790   6.376
77897W        W81965  17.205  19.176   3.948
77898W        W81966  17.722  20.848   5.596
77899W        W81967  16.383  21.332   5.427
77900W        W81968  15.795  21.436   4.338
77901W        W81969  17.077  18.339   3.768
77902W        W81970  14.877  21.599   5.509
77903W        W81971  17.074  19.357   7.144
77904W        W81972  14.788  19.487   4.476
77905W        W81973  15.479  19.476   4.201
77906W        W81974  17.242  19.803   7.018
77907W        W81975  15.585  20.084   5.727
77908W        W81976  17.059  18.370   4.847
77909W        W81977  16.190  21.801   5.350
77910W        W81978  17.404  21.263   6.287
77911W        W81979  16.988  21.412   5.398
77912W        W81980  17.007  20.392   4.992
77913W        W81981  16.469  18.617   4.063
77914W        W81982  18.150  18.245   4.785
77915W        W81983  15.838  19.880   3.948
77916W        W81984  18.004  19.217   4.938
77917W        W81985  16.696  20.387   3.815
77918W        W81986  17.632  20.587   6.563
77919W        W81987  17.286  21.288   4.030
77920W        W81988  15.901  18.963   6.936
77921W        W81989  15.721  19.547   6.177
77922W        W81990  17.813  21.042   6.454
77923W        W81991  16.913  18.992   6.831
77924W        W81992  14.757  19.463   6.608
77925W        W81993  16.517  19.940   6.334
77926W        W81994  14.874  20.698   4.991
77927W        W81995  15.021  19.995   5.881
77928W        W81996  17.338  20.281   6.231
77929W        W81997  17.110  21.661   7.042
77930W        W81998  17.006  19.400   6.595
77931W        W81999  17.283  21.454   5.000
77932W        W82000  16.285  21.174   6.323
77933W        W82001  15.770  21.529   5.592
77934W        W82002  17.575  20.700   6.011
77935W        W82003  16.625  20.772   7.148
77936W        W82004  15.230  20.725   5.487
77937W        W82005  17.576  20.484   5.132
77938W        W82006  17.217  21.550   5.883
77939W        W82007  15.195  21.279   5.753
77940W        W82008  16.216  19.331   6.963
77941W        W82009  16.667  21.497   4.474
77942W        W82010  15.975  20.752   7.112
77943W        W82011  16.101  20.990   4.489
77944W        W82012  15.322  19.730   3.748
77945W        W82013  14.661  21.816  10.648
77946W        W82014  15.037  20.709  10.171
77947W        W82015  17.742  20.439   7.941
77948W        W82016  17.872  21.524   9.968
77949W        W82017  15.790  21.515   7.494
77950W        W82018  15.873  19.667   8.477
77951W        W82019  15.388  19.515   8.641
77952W        W82020  16.379  20.330   8.075
77953W        W82021  16.054  21.422  10.430
77954W        W82022  14.703  18.983  10.393
77955W        W82023  15.465  18.263  10.195
77956W        W82024  17.159  18.651   9.082
77957W        W82025  16.808  19.522   7.652
77958W        W82026  17.378  18.956  10.743
77959W        W82027  14.744  18.748   9.868
77960W        W82028  14.843  21.367  10.889
77961W        W82029  16.365  20.757   7.621
77962W        W82030  14.797  19.540   9.314
77963W        W82031  15.690  19.431  10.551
77964W        W82032  18.149  19.290   9.050
77965W        W82033  17.913  20.333   9.909
77966W        W82034  16.221  19.666   8.936
77967W        W82035  16.767  21.005   9.305
77968W        W82036  15.267  20.439   9.537
77969W        W82037  14.626  19.967   9.108
77970W        W82038  15.662  19.939  10.300
77971W        W82039  17.933  19.722  10.554
77972W        W82040  15.549  21.166   8.999
77973W        W82041  16.670  20.855  10.133
77974W        W82042  15.890  19.495   9.358
77975W        W82043  16.182  20.279   9.001
77976W        W82044  17.179  21.052  10.849
77977W        W82045  16.258  20.372  10.859
77978W        W82046  16.239  20.088  10.337
77979W        W82047  14.648  19.479  10.859
77980W        W82048  17.480  21.014  10.458
77981W        W82049  15.061  18.596   8.456
77982W        W82050  15.588  20.854   9.455
77983W        W82051  18.051  20.637   8.745
77984W        W82052  17.464  19.037   9.312
77985W        W82053  17.749  18.990   7.407
77986W        W82054  18.214  19.791   9.713
77987W        W82055  16.181  21.498   9.466
77988W        W82056  17.955  20.964   7.904
77989W        W82057  15.084  21.750   7.658
77990W        W82058  15.477  21.796   8.334
77991W        W82059  15.274  18.550   9.760
77992W        W82060  17.897  19.568  10.035
77993W        W82061  17.302  19.990   8.494
77994W        W82062  17.268  19.678   7.521
77995W        W82063  16.476  20.822   9.661
77996W        W82064  16.282  19.152   8.860
77997W        W82065  16.882  21.239   9.854
77998W        W82066  17.753  20.030   8.276
77999W        W82067  16.655  18.688   8.292
78000W        W82068  15.312  21.382   7.975
78001W        W82069  14.683  18.881   8.574
78002W        W82070  17.469  19.488   9.048
78003W        W82071  14.927  21.105   8.963
78004W        W82072  16.268  21.455   7.833
78005W        W82073  17.660  19.481   7.297
78006W        W82074  14.683  21.239   9.461
78007W        W82075  15.474  20.811   9.941
78008W        W82076  15.847  20.171   8.560
78009W        W82077  15.869  18.576   9.653
78010W        W82078  18.098  18.338   8.950
78011W        W82079  15.317  20.210   7.418
78012W        W82080  14.972  19.243   7.597
78013W        W82081  15.034  21.199   8.391
78014W        W82082  16.165  20.682   8.639
78015W        W82083  17.497  21.541  10.353
78016W        W82084  16.423  19.183   8.037
78017W        W82085  17.806  21.581   8.809
78018W        W82086  17.483  19.434  10.407
78019W        W82087  18.196  21.090   8.541
78020W        W82088  16.823  20.382  10.025
78021W        W82089  14.589  19.933   8.231
78022W        W82090  15.700  20.348   9.804
78023W        W82091  16.904  19.612   8.182
78024W        W82092  16.781  20.102   8.286
78025W        W82093  15.124  19.522   9.760
78026W        W82094  15.109  19.398  10.682
78027W        W82095  14.999  18.315   8.841
78028W        W82096  16.767  18.662   9.402
78029W        W82097  16.415  18.847  10.565
78030W        W82098  16.770  18.996   7.743
78031W        W82099  17.953  21.389  10.497
78032W        W82100  16.920  18.470  10.536
78033W        W82101  17.939  20.771  10.658
78034W        W82102  17.369  18.938  10.254
78035W        W82103  17.169  18.876   8.524
78036W        W82104  17.562  20.010  10.928
78037W        W82105  15.302  21.586   8.914
78038W        W82106  15.960  19.303   7.900
78039W        W82107  15.529  18.587  10.564
78040W        W82108  17.581  19.071   8.245
78041W        W82109  17.948  19.553   8.190
78042W        W82110  15.691  21.770  10.661
78043W        W82111  15.617  18.306   7.896
78044W        W82112  17.938  18.840   8.931
78045W        W82113  18.088  21.089   7.376
78046W        W82114  14.995  20.292   9.078
78047W        W82115  16.912  18.879   7.308
78048W        W82116  18.046  21.211   9.028
78049W        W82117  18.085  18.405   9.778
78050W        W82118  16.530  19.617  10.332
78051W        W82119  16.623  20.956   8.035
78052W        W82120  17.023  20.250  10.775
78053W        W82121  16.697  18.227   9.084
78054W        W82122  15.309  19.130   9.147
78055W        W82123  14.863  20.330   9.921
78056W        W82124  16.722  21.523   8.627
78057W        W82125  17.916  19.120   9.499
78058W        W82126  16.553  21.467  10.266
78059W        W82127  17.896  20.526   7.471
78060W        W82128  16.331  20.009   8.532
78061W        W82129  18.183  18.520  10.273
78062W        W82130  16.332  20.355   9.867
78063W        W82131  16.549  19.241   9.312
78064W        W82132  17.401  19.539   8.150
78065W        W82133  17.688  19.272   7.792
78066W        W82134  17.497  21.312   8.181
78067W        W82135  17.331  20.915   8.977
78068W        W82136  17.227  19.994   7.955
78069W        W82137  16.660  20.204   8.941
78070W        W82138  17.541  19.992   9.008
78071W        W82139  14.916  19.007   9.432
78072W        W82140  17.694  20.059  10.259
78073W        W82141  18.045  21.677   9.405
78074W        W82142  15.975  21.121   8.807
78075W        W82143  16.982  21.654  10.131
78076W        W82144  16.976  18.984   9.895
78077W        W82145  16.183  21.692   9.956
78078W        W82146  17.880  18.646   8.422
78079W        W82147  17.671  19.965   9.723
78080W        W82148  14.654  19.286   9.761
78081W        W82149  17.514  19.081   8.779
78082W        W82150  17.925  19.232  10.556
78083W        W82151  16.810  20.931   8.774
78084W        W82152  16.066  21.522   8.387
78085W        W82153  15.181  18.702   7.645
78086W        W82154  16.285  18.356   9.455
78087W        W82155  15.313  21.476   7.303
78088W        W82156  15.687  19.942   8.054
78089W        W82157  16.341  20.571  10.367
78090W        W82158  16.171  18.929   8.357
78091W        W82159  17.247  21.808   9.113
78092W        W82160  16.659  21.456   9.453
78093W        W82161  16.055  20.493   9.414
78094W        W82162  17.825  21.216   9.540
78095W        W82163  15.519  18.719   8.309
78096W        W82164  16.041  21.016   9.269
78097W        W82165  15.524  18.947   7.334
78098W        W82166  16.325  19.556   9.728
78099W        W82167  17.173  18.422   9.598
78100W        W82168  14.593  20.265   9.483
78101W        W82169  16.297  20.083   7.641
78102W        W82170  15.565  18.398   7.411
78103W        W82171  16.303  19.479   8.462
78104W        W82172  17.273  18.455  10.161
78105W        W82173  15.861  20.467  10.270
78106W        W82174  16.665  20.249  10.487
78107W        W82175  17.282  20.279  10.380
78108W        W82176  16.566  18.419  10.885
78109W        W82177  15.788  19.035   9.278
78110W        W82178  15.214  18.991   8.676
78111W        W82179  15.000  21.703   8.352
78112W        W82180  16.332  21.033  10.477
78113W        W82181  15.367  20.518   7.836
78114W        W82182  17.047  19.903   9.057
78115W        W82183  17.327  19.702   9.456
78116W        W82184  16.532  20.376   9.390
78117W        W82185  17.002  20.750   7.522
78118W        W82186  16.674  18.771   8.850
78119W        W82187  18.153  19.049   8.118
78120W        W82188  14.647  21.638  10.149
78121W        W82189  15.064  20.864   9.681
78122W        W82190  14.631  21.710   7.913
78123W        W82191  16.530  18.980   9.719
78124W        W82192  15.893  21.003   7.568
78125W        W82193  17.798  21.385   7.754
78126W        W82194  16.773  20.038   7.768
78127W        W82195  15.616  19.229   8.285
78128W        W82196  16.448  19.139   7.337
78129W        W82197  17.032  20.704  10.515
78130W        W82198  17.385  18.610   8.132
78131W        W82199  16.001  20.777   9.870
78132W        W82200  15.800  20.693   8.962
78133W        W82201  15.542  20.645   7.360
78134W        W82202  14.783  20.886   8.128
78135W        W82203  15.287  19.956  10.570
78136W        W82204  15.991  18.516  10.756
78137W        W82205  16.700  18.658  10.112
78138W        W82206  15.895  18.426   8.393
78139W        W82207  16.954  18.503   7.898
78140W        W82208  14.899  18.435   9.475
78141W        W82209  14.947  19.398   8.845
78142W        W82210  17.636  18.506   9.251
78143W        W82211  15.058  19.004   8.065
78144W        W82212  17.629  18.692   9.681
78145W        W82213  18.025  19.895   7.366
78146W        W82214  15.317  18.653   9.185
78147W        W82215  16.431  19.225  10.125
78148W        W82216  14.579  18.915   7.603
78149W        W82217  15.365  20.304  10.164
78150W        W82218  16.723  19.702   9.343
78151W        W82219  16.590  21.781   7.639
78152W        W82220  14.736  20.288   7.336
78153W        W82221  15.471  20.699  10.462
78154W        W82222  14.992  19.866  10.093
78155W        W82223  15.983  19.971   9.887
78156W        W82224  17.751  18.330  10.149
78157W        W82225  18.149  19.940  10.140
78158W        W82226  18.137  20.140   7.826
78159W        W82227  17.000  20.472   7.925
78160W        W82228  17.474  21.772   7.620
78161W        W82229  16.651  19.762  10.762
78162W        W82230  14.981  20.729  10.802
78163W        W82231  18.187  18.651  10.754
78164W        W82232  17.905  19.579   9.375
78165W        W82233  16.213  21.709  10.852
78166W        W82234  16.068  18.338   7.579
78167W        W82235  17.607  20.937   7.522
78168W        W82236  15.376  19.030  10.408
78169W        W82237  15.810  21.024  10.270
78170W        W82238  17.936  19.015  10.068
78171W        W82239  17.147  21.674   8.036
78172W        W82240  17.386  20.293   9.403
78173W        W82241  15.636  18.709  10.070
78174W        W82242  16.105  19.778  10.827
78175W        W82243  15.608  20.957   8.021
78176W        W82244  17.363  20.455   8.285
78177W        W82245  15.131  19.081  10.009
78178W        W82246  16.460  21.143   8.473
78179W        W82247  18.210  19.703   8.654
78180W        W82248  16.432  18.336  10.373
78181W        W82249  17.212  21.041   9.452
78182W        W82250  17.515  21.385   9.160
78183W        W82251  16.734  21.187   7.588
78184W        W82252  14.744  21.079  10.430
78185W        W82253  15.487  19.071   9.668
78186W        W82254  15.457  18.419   8.778
78187W        W82255  17.078  19.261   9.470
78188W        W82256  15.876  20.432   7.670
78189W        W82257  17.874  20.374   9.169
78190W        W82258  15.201  21.132  10.592
78191W        W82259  17.588  21.814   8.389
78192W        W82260  15.687  18.834   8.834
78193W        W82261  15.456  20.327   8.924
78194W        W82262  15.769  21.738   9.674
78195W        W82263  17.836  21.834  10.706
78196W        W82264  16.995  20.022   9.639
78197W        W82265  14.844  19.820   7.554
78198W        W82266  17.978  21.478   8.251
78199W        W82267  17.815  18.802   7.870
78200W        W82268  15.954  18.321  10.273
78201W        W82269  17.660  21.123   8.731
78202W        W82270  17.689  19.679   8.636
78203W        W82271  15.806  19.352   8.852
78204W        W82272  16.051  19.614  10.176
78205W        W82273  17.162  20.767  10.039
78206W        W82274  15.812  19.221  10.151
78207W        W82275  15.791  21.687   8.767
78208W        W82276  15.108  21.646  10.401
78209W        W82277  15.220  21.007   7.531
78210W        W82278  17.737  20.765   8.341
78211W        W82279  15.341  19.557  10.227
78212W        W82280  18.114  19.487   7.708
78213W        W82281  15.859  20.544   8.179
78214W        W82282  16.958  19.926  10.260
78215W        W82283  16.849  19.554   9.804
78216W        W82284  15.409  19.926   9.833
78217W        W82285  17.619  21.814   9.662
78218W        W82286  17.410  18.448  10.656
78219W        W82287  15.074  18.598  10.243
78220W        W82288  15.413  19.621   9.296
78221W        W82289  15.782  19.435   7.418
78222W        W82290  14.585  21.194   9.963
78223W        W82291  16.170  19.903   9.406
78224W        W82292  15.993  18.928   7.511
78225W        W82293  15.128  19.744   8.292
78226W        W82294  14.899  21.596   9.729
78227W        W82295  17.694  19.822   7.837
78228W        W82296  17.789  18.738  10.523
78229W        W82297  17.225  20.947   8.486
78230W        W82298  14.823  19.871  10.663
78231W        W82299  17.789  18.335   7.959
78232W        W82300  17.309  20.810   7.970
78233W        W82301  16.211  19.868   8.055
78234W        W82302  17.398  18.672   7.578
78235W        W82303  17.463  19.279   9.764
78236W        W82304  15.172  19.872   8.971
78237W        W82305  15.466  20.811   8.620
78238W        W82306  17.229  19.431   8.585
78239W        W82307  16.252  18.810   9.281
78240W        W82308  18.214  20.721   9.792
78241W        W82309  18.132  18.708   9.353
78242W        W82310  14.671  21.538   8.729
78243W        W82311  15.180  20.725   8.265
78244W        W82312  15.095  18.342  10.818
78245W        W82313  16.214  21.195  10.920
78246W        W82314  17.969  20.163   8.710
78247W        W82315  17.323  20.340   7.590
78248W        W82316  16.618  21.861   9.802
78249W        W82317  17.475  20.583  10.839
78250W        W82318  16.290  18.293   8.119
78251W        W82319  17.003  19.162   8.978
78252W        W82320  14.689  20.749   9.310
78253W        W82321  15.942  18.711   7.951
78254W        W82322  15.746  20.195  10.800
78255W        W82323  16.740  19.176   8.514
78256W        W82324  16.945  20.586   9.636
78257W        W82325  15.099  21.191  10.071
78258W        W82326  15.690  21.174  10.794
78259W        W82327  15.541  18.971   7.808
78260W        W82328  17.058  19.113   8.133
78261W        W82329  17.016  21.221  10.370
78262W        W82330  15.701  19.813   8.969
78263W        W82331  15.356  21.511   9.834
78264W        W82332  18.101  21.628   7.435
78265W        W82333  14.964  20.300  10.431
78266W        W82334  16.959  20.562   9.119
78267W        W82335  15.395  20.211   8.361
78268W        W82336  15.766  21.218   9.756
78269W        W82337  16.144  18.637   8.797
78270W        W82338  14.755  20.621   7.727
78271W        W82339  16.274  19.572   7.597
78272W        W82340  14.920  20.121   8.616
78273W        W82341  16.210  18.763  10.080
78274W        W82342  17.882  18.472   7.507
78275W        W82343  17.975  20.218  10.606
78276W        W82344  16.629  21.475  10.758
78277W        W82345  18.187  20.569  10.280
78278W        W82346  17.595  21.367  10.891
78279W        W82347  15.334  21.823   9.369
78280W        W82348  18.193  20.445   8.243
78281W        W82349  16.723  19.712   8.756
78282W        W82350  16.490  18.324   8.646
78283W        W82351  15.549  21.308   8.483
78284W        W82352  16.048  19.049   9.708
78285W        W82353  15.748  18.418   9.177
78286W        W82354  14.811  21.240   7.725
78287W        W82355  16.627  20.604   8.443
78288W        W82356  15.502  21.399  10.322
78289W        W82357  14.979  20.222   8.018
78290W        W82358  14.864  18.765   9.017
78291W        W82359  16.412  20.730   9.074
78292W        W82360  14.664  18.584   8.094
78293W        W82361  17.328  19.790  10.021
78294W        W82362  17.205  19.176   7.593
78295W        W82363  17.722  20.848   9.241
78296W        W82364  16.383  21.332   9.072
78297W        W82365  15.795  21.436   7.983
78298W        W82366  17.077  18.339   7.413
78299W        W82367  14.877  21.599   9.154
78300W        W82368  17.074  19.357  10.789
78301W        W82369  15.057  18.887  10.788
78302W        W82370  14.788  19.487   8.121
78303W        W82371  15.479  19.476   7.846
78304W        W82372  17.242  19.803  10.663
78305W        W82373  15.585  20.084   9.372
78306W        W82374  17.059  18.370   8.492
78307W        W82375  16.190  21.801   8.995
78308W        W82376  17.404  21.263   9.932
78309W        W82377  16.988  21.412   9.043
78310W        W82378  17.007  20.392   8.637
78311W        W82379  16.469  18.617   7.708
78312W        W82380  18.150  18.245   8.430
78313W        W82381  15.838  19.880   7.593
78314W        W82382  18.004  19.217   8.583
78315W        W82383  16.696  20.387   7.460
78316W        W82384  17.632  20.587  10.208
78317W        W82385  17.286  21.288   7.675
78318W        W82386  15.901  18.963  10.581
78319W        W82387  15.721  19.547   9.822
78320W        W82388  17.813  21.042  10.099
78321W        W82389  16.913  18.992  10.476
78322W        W82390  14.757  19.463  10.253
78323W        W82391  16.517  19.940   9.979
78324W        W82392  14.874  20.698   8.636
78325W        W82393  15.021  19.995   9.526
78326W        W82394  17.338  20.281   9.876
78327W        W82395  17.110  21.661  10.687
78328W        W82396  17.006  19.400  10.240
78329W        W82397  17.283  21.454   8.645
78330W        W82398  16.285  21.174   9.968
78331W        W82399  15.770  21.529   9.237
78332W        W82400  17.575  20.700   9.656
78333W        W82401  16.625  20.772  10.793
78334W        W82402  15.230  20.725   9.132
78335W        W82403  17.576  20.484   8.777
78336W        W82404  17.217  21.550   9.528
78337W        W82405  15.195  21.279   9.398
78338W        W82406  16.216  19.331  10.608
78339W        W82407  16.667  21.497   8.119
78340W        W82408  15.975  20.752  10.757
78341W        W82409  16.101  20.990   8.134
78342W        W82410  15.322  19.730   7.393
78343W        W82411  14.661  21.816  14.292
78344W        W82412  15.037  20.709  13.815
78345W        W82413  17.742  20.439  11.585
78346W        W82414  17.872  21.524  13.612
78347W        W82415  15.790  21.515  11.138
78348W        W82416  15.873  19.667  12.121
78349W        W82417  15.388  19.515  12.285
78350W        W82418  16.379  20.330  11.719
78351W        W82419  16.054  21.422  14.074
78352W        W82420  14.703  18.983  14.037
78353W        W82421  15.465  18.263  13.839
78354W        W82422  17.159  18.651  12.726
78355W        W82423  16.808  19.522  11.296
78356W        W82424  17.378  18.956  14.387
78357W        W82425  14.744  18.748  13.512
78358W        W82426  14.843  21.367  14.533
78359W        W82427  16.365  20.757  11.265
78360W        W82428  14.797  19.540  12.958
78361W        W82429  15.690  19.431  14.195
78362W        W82430  18.149  19.290  12.694
78363W        W82431  17.913  20.333  13.553
78364W        W82432  16.221  19.666  12.580
78365W        W82433  16.767  21.005  12.949
78366W        W82434  15.267  20.439  13.181
78367W        W82435  14.626  19.967  12.752
78368W        W82436  15.662  19.939  13.944
78369W        W82437  17.933  19.722  14.198
78370W        W82438  15.549  21.166  12.643
78371W        W82439  16.670  20.855  13.777
78372W        W82440  15.890  19.495  13.002
78373W        W82441  16.182  20.279  12.645
78374W        W82442  17.179  21.052  14.493
78375W        W82443  16.258  20.372  14.503
78376W        W82444  16.239  20.088  13.981
78377W        W82445  14.648  19.479  14.503
78378W        W82446  17.480  21.014  14.102
78379W        W82447  15.061  18.596  12.100
78380W        W82448  15.588  20.854  13.099
78381W        W82449  18.051  20.637  12.389
78382W        W82450  17.464  19.037  12.956
78383W        W82451  17.749  18.990  11.051
78384W        W82452  18.214  19.791  13.357
78385W        W82453  16.181  21.498  13.110
78386W        W82454  17.955  20.964  11.548
78387W        W82455  15.084  21.750  11.302
78388W        W82456  15.477  21.796  11.978
78389W        W82457  15.274  18.550  13.404
78390W        W82458  17.897  19.568  13.679
78391W        W82459  17.302  19.990  12.138
78392W        W82460  17.268  19.678  11.165
78393W        W82461  16.476  20.822  13.305
78394W        W82462  16.282  19.152  12.504
78395W        W82463  16.882  21.239  13.498
78396W        W82464  17.753  20.030  11.920
78397W        W82465  16.655  18.688  11.936
78398W        W82466  15.312  21.382  11.619
78399W        W82467  14.683  18.881  12.218
78400W        W82468  17.469  19.488  12.692
78401W        W82469  14.927  21.105  12.607
78402W        W82470  16.268  21.455  11.477
78403W        W82471  17.660  19.481  10.941
78404W        W82472  14.683  21.239  13.105
78405W        W82473  15.474  20.811  13.585
78406W        W82474  15.847  20.171  12.204
78407W        W82475  15.869  18.576  13.297
78408W        W82476  18.098  18.338  12.594
78409W        W82477  15.317  20.210  11.062
78410W        W82478  14.972  19.243  11.241
78411W        W82479  15.034  21.199  12.035
78412W        W82480  16.165  20.682  12.283
78413W        W82481  17.497  21.541  13.997
78414W        W82482  16.423  19.183  11.681
78415W        W82483  17.806  21.581  12.453
78416W        W82484  17.483  19.434  14.051
78417W        W82485  18.196  21.090  12.185
78418W        W82486  16.823  20.382  13.669
78419W        W82487  14.589  19.933  11.875
78420W        W82488  15.700  20.348  13.448
78421W        W82489  16.904  19.612  11.826
78422W        W82490  16.781  20.102  11.930
78423W        W82491  15.124  19.522  13.404
78424W        W82492  15.109  19.398  14.326
78425W        W82493  14.999  18.315  12.485
78426W        W82494  16.767  18.662  13.046
78427W        W82495  16.415  18.847  14.209
78428W        W82496  16.770  18.996  11.387
78429W        W82497  17.953  21.389  14.141
78430W        W82498  16.920  18.470  14.180
78431W        W82499  17.939  20.771  14.302
78432W        W82500  17.369  18.938  13.898
78433W        W82501  17.169  18.876  12.168
78434W        W82502  17.562  20.010  14.572
78435W        W82503  15.302  21.586  12.558
78436W        W82504  15.960  19.303  11.544
78437W        W82505  15.529  18.587  14.208
78438W        W82506  17.581  19.071  11.889
78439W        W82507  17.948  19.553  11.834
78440W        W82508  15.691  21.770  14.305
78441W        W82509  15.617  18.306  11.540
78442W        W82510  17.938  18.840  12.575
78443W        W82511  18.088  21.089  11.020
78444W        W82512  14.995  20.292  12.722
78445W        W82513  16.912  18.879  10.952
78446W        W82514  18.046  21.211  12.672
78447W        W82515  18.085  18.405  13.422
78448W        W82516  16.530  19.617  13.976
78449W        W82517  16.623  20.956  11.679
78450W        W82518  17.023  20.250  14.419
78451W        W82519  16.697  18.227  12.728
78452W        W82520  15.309  19.130  12.791
78453W        W82521  14.863  20.330  13.565
78454W        W82522  16.722  21.523  12.271
78455W        W82523  17.916  19.120  13.143
78456W        W82524  16.553  21.467  13.910
78457W        W82525  17.896  20.526  11.115
78458W        W82526  16.331  20.009  12.176
78459W        W82527  18.183  18.520  13.917
78460W        W82528  16.332  20.355  13.511
78461W        W82529  16.549  19.241  12.956
78462W        W82530  17.401  19.539  11.794
78463W        W82531  17.688  19.272  11.436
78464W        W82532  17.497  21.312  11.825
78465W        W82533  17.331  20.915  12.621
78466W        W82534  17.227  19.994  11.599
78467W        W82535  16.660  20.204  12.585
78468W        W82536  17.541  19.992  12.652
78469W        W82537  14.916  19.007  13.076
78470W        W82538  17.694  20.059  13.903
78471W        W82539  18.045  21.677  13.049
78472W        W82540  15.975  21.121  12.451
78473W        W82541  16.982  21.654  13.775
78474W        W82542  16.976  18.984  13.539
78475W        W82543  16.183  21.692  13.600
78476W        W82544  17.880  18.646  12.066
78477W        W82545  17.671  19.965  13.367
78478W        W82546  14.654  19.286  13.405
78479W        W82547  17.514  19.081  12.423
78480W        W82548  17.925  19.232  14.200
78481W        W82549  16.810  20.931  12.418
78482W        W82550  16.066  21.522  12.031
78483W        W82551  15.181  18.702  11.289
78484W        W82552  16.285  18.356  13.099
78485W        W82553  15.313  21.476  10.947
78486W        W82554  15.687  19.942  11.698
78487W        W82555  16.341  20.571  14.011
78488W        W82556  16.171  18.929  12.001
78489W        W82557  17.527  18.526  12.429
78490W        W82558  17.247  21.808  12.757
78491W        W82559  16.659  21.456  13.097
78492W        W82560  16.055  20.493  13.058
78493W        W82561  17.825  21.216  13.184
78494W        W82562  15.519  18.719  11.953
78495W        W82563  16.041  21.016  12.913
78496W        W82564  15.524  18.947  10.978
78497W        W82565  16.325  19.556  13.372
78498W        W82566  17.173  18.422  13.242
78499W        W82567  14.593  20.265  13.127
78500W        W82568  16.297  20.083  11.285
78501W        W82569  15.565  18.398  11.055
78502W        W82570  16.303  19.479  12.106
78503W        W82571  17.273  18.455  13.805
78504W        W82572  15.861  20.467  13.914
78505W        W82573  16.665  20.249  14.131
78506W        W82574  17.282  20.279  14.024
78507W        W82575  16.566  18.419  14.529
78508W        W82576  15.788  19.035  12.922
78509W        W82577  15.214  18.991  12.320
78510W        W82578  15.000  21.703  11.996
78511W        W82579  16.332  21.033  14.121
78512W        W82580  15.367  20.518  11.480
78513W        W82581  17.047  19.903  12.701
78514W        W82582  17.327  19.702  13.100
78515W        W82583  16.532  20.376  13.034
78516W        W82584  17.002  20.750  11.166
78517W        W82585  16.674  18.771  12.494
78518W        W82586  18.153  19.049  11.762
78519W        W82587  14.647  21.638  13.793
78520W        W82588  15.064  20.864  13.325
78521W        W82589  14.631  21.710  11.557
78522W        W82590  16.530  18.980  13.363
78523W        W82591  15.893  21.003  11.212
78524W        W82592  17.798  21.385  11.398
78525W        W82593  16.773  20.038  11.412
78526W        W82594  15.616  19.229  11.929
78527W        W82595  16.448  19.139  10.981
78528W        W82596  17.032  20.704  14.159
78529W        W82597  17.385  18.610  11.776
78530W        W82598  14.715  18.458  11.224
78531W        W82599  16.001  20.777  13.514
78532W        W82600  15.800  20.693  12.606
78533W        W82601  15.542  20.645  11.004
78534W        W82602  14.783  20.886  11.772
78535W        W82603  15.287  19.956  14.214
78536W        W82604  15.991  18.516  14.400
78537W        W82605  16.700  18.658  13.756
78538W        W82606  15.895  18.426  12.037
78539W        W82607  16.954  18.503  11.542
78540W        W82608  14.899  18.435  13.119
78541W        W82609  14.947  19.398  12.489
78542W        W82610  17.636  18.506  12.895
78543W        W82611  15.058  19.004  11.709
78544W        W82612  17.629  18.692  13.325
78545W        W82613  18.025  19.895  11.010
78546W        W82614  15.317  18.653  12.829
78547W        W82615  16.431  19.225  13.769
78548W        W82616  14.579  18.915  11.247
78549W        W82617  15.365  20.304  13.808
78550W        W82618  16.723  19.702  12.987
78551W        W82619  16.590  21.781  11.283
78552W        W82620  14.736  20.288  10.980
78553W        W82621  15.471  20.699  14.106
78554W        W82622  14.992  19.866  13.737
78555W        W82623  15.983  19.971  13.531
78556W        W82624  17.751  18.330  13.793
78557W        W82625  18.149  19.940  13.784
78558W        W82626  18.137  20.140  11.470
78559W        W82627  17.000  20.472  11.569
78560W        W82628  17.474  21.772  11.264
78561W        W82629  16.651  19.762  14.406
78562W        W82630  14.981  20.729  14.446
78563W        W82631  18.187  18.651  14.398
78564W        W82632  17.905  19.579  13.019
78565W        W82633  16.213  21.709  14.496
78566W        W82634  16.068  18.338  11.223
78567W        W82635  17.607  20.937  11.166
78568W        W82636  15.376  19.030  14.052
78569W        W82637  15.810  21.024  13.914
78570W        W82638  17.936  19.015  13.712
78571W        W82639  17.147  21.674  11.680
78572W        W82640  17.386  20.293  13.047
78573W        W82641  15.636  18.709  13.714
78574W        W82642  16.105  19.778  14.471
78575W        W82643  15.608  20.957  11.665
78576W        W82644  17.363  20.455  11.929
78577W        W82645  15.131  19.081  13.653
78578W        W82646  16.460  21.143  12.117
78579W        W82647  18.210  19.703  12.298
78580W        W82648  16.432  18.336  14.017
78581W        W82649  17.212  21.041  13.096
78582W        W82650  17.515  21.385  12.804
78583W        W82651  16.734  21.187  11.232
78584W        W82652  14.744  21.079  14.074
78585W        W82653  15.487  19.071  13.312
78586W        W82654  15.457  18.419  12.422
78587W        W82655  17.078  19.261  13.114
78588W        W82656  15.876  20.432  11.314
78589W        W82657  17.874  20.374  12.813
78590W        W82658  15.201  21.132  14.236
78591W        W82659  17.588  21.814  12.033
78592W        W82660  15.687  18.834  12.478
78593W        W82661  15.456  20.327  12.568
78594W        W82662  15.769  21.738  13.318
78595W        W82663  17.836  21.834  14.350
78596W        W82664  16.995  20.022  13.283
78597W        W82665  14.844  19.820  11.198
78598W        W82666  17.978  21.478  11.895
78599W        W82667  17.815  18.802  11.514
78600W        W82668  15.954  18.321  13.917
78601W        W82669  17.660  21.123  12.375
78602W        W82670  17.689  19.679  12.280
78603W        W82671  15.806  19.352  12.496
78604W        W82672  16.051  19.614  13.820
78605W        W82673  17.162  20.767  13.683
78606W        W82674  15.812  19.221  13.795
78607W        W82675  15.791  21.687  12.411
78608W        W82676  15.108  21.646  14.045
78609W        W82677  15.220  21.007  11.175
78610W        W82678  17.737  20.765  11.985
78611W        W82679  15.341  19.557  13.871
78612W        W82680  18.114  19.487  11.352
78613W        W82681  15.859  20.544  11.823
78614W        W82682  16.958  19.926  13.904
78615W        W82683  16.849  19.554  13.448
78616W        W82684  15.409  19.926  13.477
78617W        W82685  17.619  21.814  13.306
78618W        W82686  17.410  18.448  14.300
78619W        W82687  15.074  18.598  13.887
78620W        W82688  15.413  19.621  12.940
78621W        W82689  15.782  19.435  11.062
78622W        W82690  14.585  21.194  13.607
78623W        W82691  16.170  19.903  13.050
78624W        W82692  15.993  18.928  11.155
78625W        W82693  15.128  19.744  11.936
78626W        W82694  14.899  21.596  13.373
78627W        W82695  17.694  19.822  11.481
78628W        W82696  17.789  18.738  14.167
78629W        W82697  17.225  20.947  12.130
78630W        W82698  14.823  19.871  14.307
78631W        W82699  17.789  18.335  11.603
78632W        W82700  17.309  20.810  11.614
78633W        W82701  16.211  19.868  11.699
78634W        W82702  17.398  18.672  11.222
78635W        W82703  17.463  19.279  13.408
78636W        W82704  15.172  19.872  12.615
78637W        W82705  15.466  20.811  12.264
78638W        W82706  17.229  19.431  12.229
78639W        W82707  16.252  18.810  12.925
78640W        W82708  18.214  20.721  13.436
78641W        W82709  18.132  18.708  12.997
78642W        W82710  14.671  21.538  12.373
78643W        W82711  15.180  20.725  11.909
78644W        W82712  15.095  18.342  14.462
78645W        W82713  16.214  21.195  14.564
78646W        W82714  17.969  20.163  12.354
78647W        W82715  17.323  20.340  11.234
78648W        W82716  16.618  21.861  13.446
78649W        W82717  17.475  20.583  14.483
78650W        W82718  16.290  18.293  11.763
78651W        W82719  17.003  19.162  12.622
78652W        W82720  14.689  20.749  12.954
78653W        W82721  15.942  18.711  11.595
78654W        W82722  15.746  20.195  14.444
78655W        W82723  16.740  19.176  12.158
78656W        W82724  16.945  20.586  13.280
78657W        W82725  15.099  21.191  13.715
78658W        W82726  15.690  21.174  14.438
78659W        W82727  15.541  18.971  11.452
78660W        W82728  17.058  19.113  11.777
78661W        W82729  17.016  21.221  14.014
78662W        W82730  15.701  19.813  12.613
78663W        W82731  15.356  21.511  13.478
78664W        W82732  18.101  21.628  11.079
78665W        W82733  14.964  20.300  14.075
78666W        W82734  16.959  20.562  12.763
78667W        W82735  15.395  20.211  12.005
78668W        W82736  15.766  21.218  13.400
78669W        W82737  16.144  18.637  12.441
78670W        W82738  14.755  20.621  11.371
78671W        W82739  16.274  19.572  11.241
78672W        W82740  14.920  20.121  12.260
78673W        W82741  16.210  18.763  13.724
78674W        W82742  17.882  18.472  11.151
78675W        W82743  17.975  20.218  14.250
78676W        W82744  16.629  21.475  14.402
78677W        W82745  18.187  20.569  13.924
78678W        W82746  17.595  21.367  14.535
78679W        W82747  15.334  21.823  13.013
78680W        W82748  18.193  20.445  11.887
78681W        W82749  16.723  19.712  12.400
78682W        W82750  16.490  18.324  12.290
78683W        W82751  15.549  21.308  12.127
78684W        W82752  16.048  19.049  13.352
78685W        W82753  15.748  18.418  12.821
78686W        W82754  14.811  21.240  11.369
78687W        W82755  16.627  20.604  12.087
78688W        W82756  15.502  21.399  13.966
78689W        W82757  14.979  20.222  11.662
78690W        W82758  14.864  18.765  12.661
78691W        W82759  16.412  20.730  12.718
78692W        W82760  14.664  18.584  11.738
78693W        W82761  17.328  19.790  13.665
78694W        W82762  17.205  19.176  11.237
78695W        W82763  17.722  20.848  12.885
78696W        W82764  16.383  21.332  12.716
78697W        W82765  15.795  21.436  11.627
78698W        W82766  17.077  18.339  11.057
78699W        W82767  14.877  21.599  12.798
78700W        W82768  17.074  19.357  14.433
78701W        W82769  15.057  18.887  14.432
78702W        W82770  14.788  19.487  11.765
78703W        W82771  15.479  19.476  11.490
78704W        W82772  17.242  19.803  14.307
78705W        W82773  15.585  20.084  13.016
78706W        W82774  17.059  18.370  12.136
78707W        W82775  16.190  21.801  12.639
78708W        W82776  17.404  21.263  13.576
78709W        W82777  16.988  21.412  12.687
78710W        W82778  17.007  20.392  12.281
78711W        W82779  16.469  18.617  11.352
78712W        W82780  18.150  18.245  12.074
78713W        W82781  15.838  19.880  11.237
78714W        W82782  18.004  19.217  12.227
78715W        W82783  16.696  20.387  11.104
78716W        W82784  17.632  20.587  13.852
78717W        W82785  17.286  21.288  11.319
78718W        W82786  15.901  18.963  14.225
78719W        W82787  15.721  19.547  13.466
78720W        W82788  17.813  21.042  13.743
78721W        W82789  16.913  18.992  14.120
78722W        W82790  14.757  19.463  13.897
78723W        W82791  16.517  19.940  13.623
78724W        W82792  14.874  20.698  12.280
78725W        W82793  15.021  19.995  13.170
78726W        W82794  17.338  20.281  13.520
78727W        W82795  17.110  21.661  14.331
78728W        W82796  17.006  19.400  13.884
78729W        W82797  17.283  21.454  12.289
78730W        W82798  16.285  21.174  13.612
78731W        W82799  15.770  21.529  12.881
78732W        W82800  17.575  20.700  13.300
78733W        W82801  16.625  20.772  14.437
78734W        W82802  15.230  20.725  12.776
78735W        W82803  17.576  20.484  12.421
78736W        W82804  17.217  21.550  13.172
78737W        W82805  15.195  21.279  13.042
78738W        W82806  16.216  19.331  14.252
78739W        W82807  16.667  21.497  11.763
78740W        W82808  15.975  20.752  14.401
78741W        W82809  16.101  20.990  11.778
78742W        W82810  15.322  19.730  11.037
78743W        W82811  14.661  21.816  17.936
78744W        W82812  15.037  20.709  17.459
78745W        W82813  17.742  20.439  15.229
78746W        W82814  17.872  21.524  17.256
78747W        W82815  15.790  21.515  14.782
78748W        W82816  15.873  19.667  15.765
78749W        W82817  15.388  19.515  15.929
78750W        W82818  16.379  20.330  15.363
78751W        W82819  16.054  21.422  17.718
78752W        W82820  14.703  18.983  17.681
78753W        W82821  15.465  18.263  17.483
78754W        W82822  17.159  18.651  16.370
78755W        W82823  16.808  19.522  14.940
78756W        W82824  17.378  18.956  18.031
78757W        W82825  14.744  18.748  17.156
78758W        W82826  14.843  21.367  18.177
78759W        W82827  16.365  20.757  14.909
78760W        W82828  14.797  19.540  16.602
78761W        W82829  15.690  19.431  17.839
78762W        W82830  18.149  19.290  16.338
78763W        W82831  17.913  20.333  17.197
78764W        W82832  16.221  19.666  16.224
78765W        W82833  16.767  21.005  16.593
78766W        W82834  15.267  20.439  16.825
78767W        W82835  14.626  19.967  16.396
78768W        W82836  15.662  19.939  17.588
78769W        W82837  17.933  19.722  17.842
78770W        W82838  15.549  21.166  16.287
78771W        W82839  16.670  20.855  17.421
78772W        W82840  15.890  19.495  16.646
78773W        W82841  16.182  20.279  16.289
78774W        W82842  17.179  21.052  18.137
78775W        W82843  16.258  20.372  18.147
78776W        W82844  16.239  20.088  17.625
78777W        W82845  14.648  19.479  18.147
78778W        W82846  17.480  21.014  17.746
78779W        W82847  15.061  18.596  15.744
78780W        W82848  15.588  20.854  16.743
78781W        W82849  18.051  20.637  16.033
78782W        W82850  17.464  19.037  16.600
78783W        W82851  17.749  18.990  14.695
78784W        W82852  18.214  19.791  17.001
78785W        W82853  16.181  21.498  16.754
78786W        W82854  17.955  20.964  15.192
78787W        W82855  15.084  21.750  14.946
78788W        W82856  15.477  21.796  15.622
78789W        W82857  15.274  18.550  17.048
78790W        W82858  17.897  19.568  17.323
78791W        W82859  17.302  19.990  15.782
78792W        W82860  17.268  19.678  14.809
78793W        W82861  16.476  20.822  16.949
78794W        W82862  16.282  19.152  16.148
78795W        W82863  16.882  21.239  17.142
78796W        W82864  17.753  20.030  15.564
78797W        W82865  16.655  18.688  15.580
78798W        W82866  15.312  21.382  15.263
78799W        W82867  14.683  18.881  15.862
78800W        W82868  17.469  19.488  16.336
78801W        W82869  14.927  21.105  16.251
78802W        W82870  16.268  21.455  15.121
78803W        W82871  17.660  19.481  14.585
78804W        W82872  14.683  21.239  16.749
78805W        W82873  15.474  20.811  17.229
78806W        W82874  15.847  20.171  15.848
78807W        W82875  15.869  18.576  16.941
78808W        W82876  18.098  18.338  16.238
78809W        W82877  15.317  20.210  14.706
78810W        W82878  14.972  19.243  14.885
78811W        W82879  15.034  21.199  15.679
78812W        W82880  16.165  20.682  15.927
78813W        W82881  17.497  21.541  17.641
78814W        W82882  16.423  19.183  15.325
78815W        W82883  17.806  21.581  16.097
78816W        W82884  17.483  19.434  17.695
78817W        W82885  18.196  21.090  15.829
78818W        W82886  16.823  20.382  17.313
78819W        W82887  14.589  19.933  15.519
78820W        W82888  15.700  20.348  17.092
78821W        W82889  16.904  19.612  15.470
78822W        W82890  16.781  20.102  15.574
78823W        W82891  15.124  19.522  17.048
78824W        W82892  15.109  19.398  17.970
78825W        W82893  14.999  18.315  16.129
78826W        W82894  16.767  18.662  16.690
78827W        W82895  16.415  18.847  17.853
78828W        W82896  16.770  18.996  15.031
78829W        W82897  17.953  21.389  17.785
78830W        W82898  16.920  18.470  17.824
78831W        W82899  17.939  20.771  17.946
78832W        W82900  17.369  18.938  17.542
78833W        W82901  17.169  18.876  15.812
78834W        W82902  17.562  20.010  18.216
78835W        W82903  15.302  21.586  16.202
78836W        W82904  15.960  19.303  15.188
78837W        W82905  15.529  18.587  17.852
78838W        W82906  17.581  19.071  15.533
78839W        W82907  17.948  19.553  15.478
78840W        W82908  15.691  21.770  17.949
78841W        W82909  15.617  18.306  15.184
78842W        W82910  17.938  18.840  16.219
78843W        W82911  18.088  21.089  14.664
78844W        W82912  14.995  20.292  16.366
78845W        W82913  16.912  18.879  14.596
78846W        W82914  18.046  21.211  16.316
78847W        W82915  18.085  18.405  17.066
78848W        W82916  16.530  19.617  17.620
78849W        W82917  16.623  20.956  15.323
78850W        W82918  17.023  20.250  18.063
78851W        W82919  16.697  18.227  16.372
78852W        W82920  15.309  19.130  16.435
78853W        W82921  14.863  20.330  17.209
78854W        W82922  16.722  21.523  15.915
78855W        W82923  17.916  19.120  16.787
78856W        W82924  16.553  21.467  17.554
78857W        W82925  17.896  20.526  14.759
78858W        W82926  16.331  20.009  15.820
78859W        W82927  18.183  18.520  17.561
78860W        W82928  16.332  20.355  17.155
78861W        W82929  16.549  19.241  16.600
78862W        W82930  17.401  19.539  15.438
78863W        W82931  17.688  19.272  15.080
78864W        W82932  17.497  21.312  15.469
78865W        W82933  17.331  20.915  16.265
78866W        W82934  17.227  19.994  15.243
78867W        W82935  16.660  20.204  16.229
78868W        W82936  17.541  19.992  16.296
78869W        W82937  14.916  19.007  16.720
78870W        W82938  17.694  20.059  17.547
78871W        W82939  18.045  21.677  16.693
78872W        W82940  15.975  21.121  16.095
78873W        W82941  16.982  21.654  17.419
78874W        W82942  16.976  18.984  17.183
78875W        W82943  16.183  21.692  17.244
78876W        W82944  17.880  18.646  15.710
78877W        W82945  17.671  19.965  17.011
78878W        W82946  14.654  19.286  17.049
78879W        W82947  17.514  19.081  16.067
78880W        W82948  17.925  19.232  17.844
78881W        W82949  16.810  20.931  16.062
78882W        W82950  16.066  21.522  15.675
78883W        W82951  15.181  18.702  14.933
78884W        W82952  16.285  18.356  16.743
78885W        W82953  15.313  21.476  14.591
78886W        W82954  15.687  19.942  15.342
78887W        W82955  16.341  20.571  17.655
78888W        W82956  16.171  18.929  15.645
78889W        W82957  17.527  18.526  16.073
78890W        W82958  17.247  21.808  16.401
78891W        W82959  16.659  21.456  16.741
78892W        W82960  16.055  20.493  16.702
78893W        W82961  17.825  21.216  16.828
78894W        W82962  15.519  18.719  15.597
78895W        W82963  16.041  21.016  16.557
78896W        W82964  15.524  18.947  14.622
78897W        W82965  16.325  19.556  17.016
78898W        W82966  17.173  18.422  16.886
78899W        W82967  14.593  20.265  16.771
78900W        W82968  16.297  20.083  14.929
78901W        W82969  15.565  18.398  14.699
78902W        W82970  16.303  19.479  15.750
78903W        W82971  17.273  18.455  17.449
78904W        W82972  15.861  20.467  17.558
78905W        W82973  16.665  20.249  17.775
78906W        W82974  17.282  20.279  17.668
78907W        W82975  16.566  18.419  18.173
78908W        W82976  15.788  19.035  16.566
78909W        W82977  15.214  18.991  15.964
78910W        W82978  15.000  21.703  15.640
78911W        W82979  16.332  21.033  17.765
78912W        W82980  15.367  20.518  15.124
78913W        W82981  17.047  19.903  16.345
78914W        W82982  17.327  19.702  16.744
78915W        W82983  16.532  20.376  16.678
78916W        W82984  17.002  20.750  14.810
78917W        W82985  16.674  18.771  16.138
78918W        W82986  18.153  19.049  15.406
78919W        W82987  14.647  21.638  17.437
78920W        W82988  15.064  20.864  16.969
78921W        W82989  14.631  21.710  15.201
78922W        W82990  16.530  18.980  17.007
78923W        W82991  15.893  21.003  14.856
78924W        W82992  17.798  21.385  15.042
78925W        W82993  16.773  20.038  15.056
78926W        W82994  15.616  19.229  15.573
78927W        W82995  16.448  19.139  14.625
78928W        W82996  17.032  20.704  17.803
78929W        W82997  17.385  18.610  15.420
78930W        W82998  14.715  18.458  14.868
78931W        W82999  16.001  20.777  17.158
78932W        W83000  15.800  20.693  16.250
78933W        W83001  15.542  20.645  14.648
78934W        W83002  14.783  20.886  15.416
78935W        W83003  15.287  19.956  17.858
78936W        W83004  15.991  18.516  18.044
78937W        W83005  16.700  18.658  17.400
78938W        W83006  15.895  18.426  15.681
78939W        W83007  16.954  18.503  15.186
78940W        W83008  14.899  18.435  16.763
78941W        W83009  14.947  19.398  16.133
78942W        W83010  17.636  18.506  16.539
78943W        W83011  15.058  19.004  15.353
78944W        W83012  17.629  18.692  16.969
78945W        W83013  18.025  19.895  14.654
78946W        W83014  15.317  18.653  16.473
78947W        W83015  16.431  19.225  17.413
78948W        W83016  14.579  18.915  14.891
78949W        W83017  15.365  20.304  17.452
78950W        W83018  16.723  19.702  16.631
78951W        W83019  16.590  21.781  14.927
78952W        W83020  14.736  20.288  14.624
78953W        W83021  15.471  20.699  17.750
78954W        W83022  14.992  19.866  17.381
78955W        W83023  15.983  19.971  17.175
78956W        W83024  17.751  18.330  17.437
78957W        W83025  18.149  19.940  17.428
78958W        W83026  18.137  20.140  15.114
78959W        W83027  17.000  20.472  15.213
78960W        W83028  17.474  21.772  14.908
78961W        W83029  16.651  19.762  18.050
78962W        W83030  14.981  20.729  18.090
78963W        W83031  18.187  18.651  18.042
78964W        W83032  17.905  19.579  16.663
78965W        W83033  16.213  21.709  18.140
78966W        W83034  16.068  18.338  14.867
78967W        W83035  17.607  20.937  14.810
78968W        W83036  15.376  19.030  17.696
78969W        W83037  15.810  21.024  17.558
78970W        W83038  17.936  19.015  17.356
78971W        W83039  17.147  21.674  15.324
78972W        W83040  17.386  20.293  16.691
78973W        W83041  15.636  18.709  17.358
78974W        W83042  16.105  19.778  18.115
78975W        W83043  15.608  20.957  15.309
78976W        W83044  17.363  20.455  15.573
78977W        W83045  15.131  19.081  17.297
78978W        W83046  16.460  21.143  15.761
78979W        W83047  18.210  19.703  15.942
78980W        W83048  16.432  18.336  17.661
78981W        W83049  17.212  21.041  16.740
78982W        W83050  17.515  21.385  16.448
78983W        W83051  16.734  21.187  14.876
78984W        W83052  14.744  21.079  17.718
78985W        W83053  15.487  19.071  16.956
78986W        W83054  15.457  18.419  16.066
78987W        W83055  17.078  19.261  16.758
78988W        W83056  15.876  20.432  14.958
78989W        W83057  17.874  20.374  16.457
78990W        W83058  15.201  21.132  17.880
78991W        W83059  17.588  21.814  15.677
78992W        W83060  15.687  18.834  16.122
78993W        W83061  15.456  20.327  16.212
78994W        W83062  15.769  21.738  16.962
78995W        W83063  17.836  21.834  17.994
78996W        W83064  16.995  20.022  16.927
78997W        W83065  14.844  19.820  14.842
78998W        W83066  17.978  21.478  15.539
78999W        W83067  17.815  18.802  15.158
79000W        W83068  15.954  18.321  17.561
79001W        W83069  17.660  21.123  16.019
79002W        W83070  17.689  19.679  15.924
79003W        W83071  15.806  19.352  16.140
79004W        W83072  16.051  19.614  17.464
79005W        W83073  17.162  20.767  17.327
79006W        W83074  15.812  19.221  17.439
79007W        W83075  15.791  21.687  16.055
79008W        W83076  15.108  21.646  17.689
79009W        W83077  15.220  21.007  14.819
79010W        W83078  17.737  20.765  15.629
79011W        W83079  15.341  19.557  17.515
79012W        W83080  18.114  19.487  14.996
79013W        W83081  15.859  20.544  15.467
79014W        W83082  16.958  19.926  17.548
79015W        W83083  16.849  19.554  17.092
79016W        W83084  15.409  19.926  17.121
79017W        W83085  17.619  21.814  16.950
79018W        W83086  17.410  18.448  17.944
79019W        W83087  15.074  18.598  17.531
79020W        W83088  15.413  19.621  16.584
79021W        W83089  15.782  19.435  14.706
79022W        W83090  14.585  21.194  17.251
79023W        W83091  16.170  19.903  16.694
79024W        W83092  15.993  18.928  14.799
79025W        W83093  15.128  19.744  15.580
79026W        W83094  14.899  21.596  17.017
79027W        W83095  17.694  19.822  15.125
79028W        W83096  17.789  18.738  17.811
79029W        W83097  17.225  20.947  15.774
79030W        W83098  14.823  19.871  17.951
79031W        W83099  17.789  18.335  15.247
79032W        W83100  17.309  20.810  15.258
79033W        W83101  16.211  19.868  15.343
79034W        W83102  17.398  18.672  14.866
79035W        W83103  17.463  19.279  17.052
79036W        W83104  15.172  19.872  16.259
79037W        W83105  15.466  20.811  15.908
79038W        W83106  17.229  19.431  15.873
79039W        W83107  16.252  18.810  16.569
79040W        W83108  18.214  20.721  17.080
79041W        W83109  18.132  18.708  16.641
79042W        W83110  14.671  21.538  16.017
79043W        W83111  15.180  20.725  15.553
79044W        W83112  15.095  18.342  18.106
79045W        W83113  16.214  21.195  18.208
79046W        W83114  17.969  20.163  15.998
79047W        W83115  17.323  20.340  14.878
79048W        W83116  16.618  21.861  17.090
79049W        W83117  17.475  20.583  18.127
79050W        W83118  16.290  18.293  15.407
79051W        W83119  17.003  19.162  16.266
79052W        W83120  14.689  20.749  16.598
79053W        W83121  15.942  18.711  15.239
79054W        W83122  15.746  20.195  18.088
79055W        W83123  16.740  19.176  15.802
79056W        W83124  16.945  20.586  16.924
79057W        W83125  15.099  21.191  17.359
79058W        W83126  15.690  21.174  18.082
79059W        W83127  15.541  18.971  15.096
79060W        W83128  17.058  19.113  15.421
79061W        W83129  17.016  21.221  17.658
79062W        W83130  15.701  19.813  16.257
79063W        W83131  15.356  21.511  17.122
79064W        W83132  18.101  21.628  14.723
79065W        W83133  14.964  20.300  17.719
79066W        W83134  16.959  20.562  16.407
79067W        W83135  15.395  20.211  15.649
79068W        W83136  15.766  21.218  17.044
79069W        W83137  16.144  18.637  16.085
79070W        W83138  14.755  20.621  15.015
79071W        W83139  16.274  19.572  14.885
79072W        W83140  14.920  20.121  15.904
79073W        W83141  16.210  18.763  17.368
79074W        W83142  17.882  18.472  14.795
79075W        W83143  17.975  20.218  17.894
79076W        W83144  16.629  21.475  18.046
79077W        W83145  18.187  20.569  17.568
79078W        W83146  17.595  21.367  18.179
79079W        W83147  15.334  21.823  16.657
79080W        W83148  18.193  20.445  15.531
79081W        W83149  16.723  19.712  16.044
79082W        W83150  16.490  18.324  15.934
79083W        W83151  15.549  21.308  15.771
79084W        W83152  16.048  19.049  16.996
79085W        W83153  15.748  18.418  16.465
79086W        W83154  14.811  21.240  15.013
79087W        W83155  16.627  20.604  15.731
79088W        W83156  15.502  21.399  17.610
79089W        W83157  14.979  20.222  15.306
79090W        W83158  14.864  18.765  16.305
79091W        W83159  16.412  20.730  16.362
79092W        W83160  14.664  18.584  15.382
79093W        W83161  17.328  19.790  17.309
79094W        W83162  17.205  19.176  14.881
79095W        W83163  17.722  20.848  16.529
79096W        W83164  16.383  21.332  16.360
79097W        W83165  15.795  21.436  15.271
79098W        W83166  17.077  18.339  14.701
79099W        W83167  14.877  21.599  16.442
79100W        W83168  17.074  19.357  18.077
79101W        W83169  15.057  18.887  18.076
79102W        W83170  14.788  19.487  15.409
79103W        W83171  15.479  19.476  15.134
79104W        W83172  17.242  19.803  17.951
79105W        W83173  15.585  20.084  16.660
79106W        W83174  17.059  18.370  15.780
79107W        W83175  16.190  21.801  16.283
79108W        W83176  17.404  21.263  17.220
79109W        W83177  16.988  21.412  16.331
79110W        W83178  17.007  20.392  15.925
79111W        W83179  16.469  18.617  14.996
79112W        W83180  18.150  18.245  15.718
79113W        W83181  15.838  19.880  14.881
79114W        W83182  18.004  19.217  15.871
79115W        W83183  16.696  20.387  14.748
79116W        W83184  17.632  20.587  17.496
79117W        W83185  17.286  21.288  14.963
79118W        W83186  15.901  18.963  17.869
79119W        W83187  15.721  19.547  17.110
79120W        W83188  17.813  21.042  17.387
79121W        W83189  16.913  18.992  17.764
79122W        W83190  14.757  19.463  17.541
79123W        W83191  16.517  19.940  17.267
79124W        W83192  14.874  20.698  15.924
79125W        W83193  15.021  19.995  16.814
79126W        W83194  17.338  20.281  17.164
79127W        W83195  17.110  21.661  17.975
79128W        W83196  17.006  19.400  17.528
79129W        W83197  17.283  21.454  15.933
79130W        W83198  16.285  21.174  17.256
79131W        W83199  15.770  21.529  16.525
79132W        W83200  17.575  20.700  16.944
79133W        W83201  16.625  20.772  18.081
79134W        W83202  15.230  20.725  16.420
79135W        W83203  17.576  20.484  16.065
79136W        W83204  17.217  21.550  16.816
79137W        W83205  15.195  21.279  16.686
79138W        W83206  16.216  19.331  17.896
79139W        W83207  16.667  21.497  15.407
79140W        W83208  15.975  20.752  18.045
79141W        W83209  16.101  20.990  15.422
79142W        W83210  15.322  19.730  14.681
79143W        W83211  14.661  21.816  21.580
79144W        W83212  15.037  20.709  21.103
79145W        W83213  17.742  20.439  18.873
79146W        W83214  17.872  21.524  20.900
79147W        W83215  15.790  21.515  18.426
79148W        W83216  15.873  19.667  19.409
79149W        W83217  15.388  19.515  19.573
79150W        W83218  16.379  20.330  19.007
79151W        W83219  16.054  21.422  21.362
79152W        W83220  14.703  18.983  21.325
79153W        W83221  15.465  18.263  21.127
79154W        W83222  17.159  18.651  20.014
79155W        W83223  16.808  19.522  18.584
79156W        W83224  17.378  18.956  21.675
79157W        W83225  14.744  18.748  20.800
79158W        W83226  14.843  21.367  21.821
79159W        W83227  16.365  20.757  18.553
79160W        W83228  14.797  19.540  20.246
79161W        W83229  15.690  19.431  21.483
79162W        W83230  18.149  19.290  19.982
79163W        W83231  17.913  20.333  20.841
79164W        W83232  16.221  19.666  19.868
79165W        W83233  16.767  21.005  20.237
79166W        W83234  15.267  20.439  20.469
79167W        W83235  14.626  19.967  20.040
79168W        W83236  15.662  19.939  21.232
79169W        W83237  17.933  19.722  21.486
79170W        W83238  15.549  21.166  19.931
79171W        W83239  16.670  20.855  21.065
79172W        W83240  15.890  19.495  20.290
79173W        W83241  16.182  20.279  19.933
79174W        W83242  17.179  21.052  21.781
79175W        W83243  16.258  20.372  21.791
79176W        W83244  16.239  20.088  21.269
79177W        W83245  14.648  19.479  21.791
79178W        W83246  17.480  21.014  21.390
79179W        W83247  15.061  18.596  19.388
79180W        W83248  15.588  20.854  20.387
79181W        W83249  18.051  20.637  19.677
79182W        W83250  17.464  19.037  20.244
79183W        W83251  17.749  18.990  18.339
79184W        W83252  18.214  19.791  20.645
79185W        W83253  16.181  21.498  20.398
79186W        W83254  17.955  20.964  18.836
79187W        W83255  15.084  21.750  18.590
79188W        W83256  15.477  21.796  19.266
79189W        W83257  15.274  18.550  20.692
79190W        W83258  17.897  19.568  20.967
79191W        W83259  17.302  19.990  19.426
79192W        W83260  17.268  19.678  18.453
79193W        W83261  16.476  20.822  20.593
79194W        W83262  16.282  19.152  19.792
79195W        W83263  16.882  21.239  20.786
79196W        W83264  17.753  20.030  19.208
79197W        W83265  16.655  18.688  19.224
79198W        W83266  15.312  21.382  18.907
79199W        W83267  14.683  18.881  19.506
79200W        W83268  17.469  19.488  19.980
79201W        W83269  14.927  21.105  19.895
79202W        W83270  16.268  21.455  18.765
79203W        W83271  17.660  19.481  18.229
79204W        W83272  14.683  21.239  20.393
79205W        W83273  15.474  20.811  20.873
79206W        W83274  15.847  20.171  19.492
79207W        W83275  15.869  18.576  20.585
79208W        W83276  18.098  18.338  19.882
79209W        W83277  15.317  20.210  18.350
79210W        W83278  14.972  19.243  18.529
79211W        W83279  15.034  21.199  19.323
79212W        W83280  16.165  20.682  19.571
79213W        W83281  17.497  21.541  21.285
79214W        W83282  16.423  19.183  18.969
79215W        W83283  17.806  21.581  19.741
79216W        W83284  17.483  19.434  21.339
79217W        W83285  18.196  21.090  19.473
79218W        W83286  16.823  20.382  20.957
79219W        W83287  14.589  19.933  19.163
79220W        W83288  15.700  20.348  20.736
79221W        W83289  16.904  19.612  19.114
79222W        W83290  16.781  20.102  19.218
79223W        W83291  15.124  19.522  20.692
79224W        W83292  15.109  19.398  21.614
79225W        W83293  14.999  18.315  19.773
79226W        W83294  16.767  18.662  20.334
79227W        W83295  16.415  18.847  21.497
79228W        W83296  16.770  18.996  18.675
79229W        W83297  17.953  21.389  21.429
79230W        W83298  16.920  18.470  21.468
79231W        W83299  17.939  20.771  21.590
79232W        W83300  17.369  18.938  21.186
79233W        W83301  17.169  18.876  19.456
79234W        W83302  17.562  20.010  21.860
79235W        W83303  15.302  21.586  19.846
79236W        W83304  15.960  19.303  18.832
79237W        W83305  15.529  18.587  21.496
79238W        W83306  17.581  19.071  19.177
79239W        W83307  17.948  19.553  19.122
79240W        W83308  15.691  21.770  21.593
79241W        W83309  15.617  18.306  18.828
79242W        W83310  17.938  18.840  19.863
79243W        W83311  18.088  21.089  18.308
79244W        W83312  14.995  20.292  20.010
79245W        W83313  16.912  18.879  18.240
79246W        W83314  18.046  21.211  19.960
79247W        W83315  18.085  18.405  20.710
79248W        W83316  16.530  19.617  21.264
79249W        W83317  16.623  20.956  18.967
79250W        W83318  17.023  20.250  21.707
79251W        W83319  16.697  18.227  20.016
79252W        W83320  15.309  19.130  20.079
79253W        W83321  14.863  20.330  20.853
79254W        W83322  16.722  21.523  19.559
79255W        W83323  17.916  19.120  20.431
79256W        W83324  16.553  21.467  21.198
79257W        W83325  17.896  20.526  18.403
79258W        W83326  16.331  20.009  19.464
79259W        W83327  18.183  18.520  21.205
79260W        W83328  16.332  20.355  20.799
79261W        W83329  16.549  19.241  20.244
79262W        W83330  17.401  19.539  19.082
79263W        W83331  17.688  19.272  18.724
79264W        W83332  17.497  21.312  19.113
79265W        W83333  17.331  20.915  19.909
79266W        W83334  17.227  19.994  18.887
79267W        W83335  16.660  20.204  19.873
79268W        W83336  17.541  19.992  19.940
79269W        W83337  14.916  19.007  20.364
79270W        W83338  17.694  20.059  21.191
79271W        W83339  18.045  21.677  20.337
79272W        W83340  15.975  21.121  19.739
79273W        W83341  16.982  21.654  21.063
79274W        W83342  16.976  18.984  20.827
79275W        W83343  16.183  21.692  20.888
79276W        W83344  17.880  18.646  19.354
79277W        W83345  17.671  19.965  20.655
79278W        W83346  14.654  19.286  20.693
79279W        W83347  17.514  19.081  19.711
79280W        W83348  17.925  19.232  21.488
79281W        W83349  16.810  20.931  19.706
79282W        W83350  16.066  21.522  19.319
79283W        W83351  15.181  18.702  18.577
79284W        W83352  16.285  18.356  20.387
79285W        W83353  15.313  21.476  18.235
79286W        W83354  15.687  19.942  18.986
79287W        W83355  16.341  20.571  21.299
79288W        W83356  16.171  18.929  19.289
79289W        W83357  17.527  18.526  19.717
79290W        W83358  17.247  21.808  20.045
79291W        W83359  16.659  21.456  20.385
79292W        W83360  16.055  20.493  20.346
79293W        W83361  17.825  21.216  20.472
79294W        W83362  15.519  18.719  19.241
79295W        W83363  16.041  21.016  20.201
79296W        W83364  15.524  18.947  18.266
79297W        W83365  16.325  19.556  20.660
79298W        W83366  17.173  18.422  20.530
79299W        W83367  14.593  20.265  20.415
79300W        W83368  16.297  20.083  18.573
79301W        W83369  15.565  18.398  18.343
79302W        W83370  16.303  19.479  19.394
79303W        W83371  17.273  18.455  21.093
79304W        W83372  15.861  20.467  21.202
79305W        W83373  16.665  20.249  21.419
79306W        W83374  17.282  20.279  21.312
79307W        W83375  16.566  18.419  21.817
79308W        W83376  15.788  19.035  20.210
79309W        W83377  15.214  18.991  19.608
79310W        W83378  15.000  21.703  19.284
79311W        W83379  16.332  21.033  21.409
79312W        W83380  15.367  20.518  18.768
79313W        W83381  17.047  19.903  19.989
79314W        W83382  17.327  19.702  20.388
79315W        W83383  16.532  20.376  20.322
79316W        W83384  17.002  20.750  18.454
79317W        W83385  16.674  18.771  19.782
79318W        W83386  18.153  19.049  19.050
79319W        W83387  14.647  21.638  21.081
79320W        W83388  15.064  20.864  20.613
79321W        W83389  14.631  21.710  18.845
79322W        W83390  16.530  18.980  20.651
79323W        W83391  15.893  21.003  18.500
79324W        W83392  17.798  21.385  18.686
79325W        W83393  16.773  20.038  18.700
79326W        W83394  15.616  19.229  19.217
79327W        W83395  16.448  19.139  18.269
79328W        W83396  17.032  20.704  21.447
79329W        W83397  17.385  18.610  19.064
79330W        W83398  14.715  18.458  18.512
79331W        W83399  16.001  20.777  20.802
79332W        W83400  15.800  20.693  19.894
79333W        W83401  15.542  20.645  18.292
79334W        W83402  14.783  20.886  19.060
79335W        W83403  15.287  19.956  21.502
79336W        W83404  15.991  18.516  21.688
79337W        W83405  16.700  18.658  21.044
79338W        W83406  15.895  18.426  19.325
79339W        W83407  16.954  18.503  18.830
79340W        W83408  14.899  18.435  20.407
79341W        W83409  14.947  19.398  19.777
79342W        W83410  17.636  18.506  20.183
79343W        W83411  15.058  19.004  18.997
79344W        W83412  17.629  18.692  20.613
79345W        W83413  18.025  19.895  18.298
79346W        W83414  15.317  18.653  20.117
79347W        W83415  16.431  19.225  21.057
79348W        W83416  14.579  18.915  18.535
79349W        W83417  15.365  20.304  21.096
79350W        W83418  16.723  19.702  20.275
79351W        W83419  16.590  21.781  18.571
79352W        W83420  14.736  20.288  18.268
79353W        W83421  15.471  20.699  21.394
79354W        W83422  14.992  19.866  21.025
79355W        W83423  15.983  19.971  20.819
79356W        W83424  17.751  18.330  21.081
79357W        W83425  18.149  19.940  21.072
79358W        W83426  18.137  20.140  18.758
79359W        W83427  17.000  20.472  18.857
79360W        W83428  17.474  21.772  18.552
79361W        W83429  16.651  19.762  21.694
79362W        W83430  14.981  20.729  21.734
79363W        W83431  18.187  18.651  21.686
79364W        W83432  17.905  19.579  20.307
79365W        W83433  16.213  21.709  21.784
79366W        W83434  16.068  18.338  18.511
79367W        W83435  17.607  20.937  18.454
79368W        W83436  15.376  19.030  21.340
79369W        W83437  15.810  21.024  21.202
79370W        W83438  17.936  19.015  21.000
79371W        W83439  17.147  21.674  18.968
79372W        W83440  17.386  20.293  20.335
79373W        W83441  15.636  18.709  21.002
79374W        W83442  16.105  19.778  21.759
79375W        W83443  15.608  20.957  18.953
79376W        W83444  17.363  20.455  19.217
79377W        W83445  15.131  19.081  20.941
79378W        W83446  16.460  21.143  19.405
79379W        W83447  18.210  19.703  19.586
79380W        W83448  16.432  18.336  21.305
79381W        W83449  17.212  21.041  20.384
79382W        W83450  17.515  21.385  20.092
79383W        W83451  16.734  21.187  18.520
79384W        W83452  14.744  21.079  21.362
79385W        W83453  15.487  19.071  20.600
79386W        W83454  15.457  18.419  19.710
79387W        W83455  17.078  19.261  20.402
79388W        W83456  15.876  20.432  18.602
79389W        W83457  17.874  20.374  20.101
79390W        W83458  15.201  21.132  21.524
79391W        W83459  17.588  21.814  19.321
79392W        W83460  15.687  18.834  19.766
79393W        W83461  15.456  20.327  19.856
79394W        W83462  15.769  21.738  20.606
79395W        W83463  17.836  21.834  21.638
79396W        W83464  16.995  20.022  20.571
79397W        W83465  14.844  19.820  18.486
79398W        W83466  17.978  21.478  19.183
79399W        W83467  17.815  18.802  18.802
79400W        W83468  15.954  18.321  21.205
79401W        W83469  17.660  21.123  19.663
79402W        W83470  17.689  19.679  19.568
79403W        W83471  15.806  19.352  19.784
79404W        W83472  16.051  19.614  21.108
79405W        W83473  17.162  20.767  20.971
79406W        W83474  15.812  19.221  21.083
79407W        W83475  15.791  21.687  19.699
79408W        W83476  15.108  21.646  21.333
79409W        W83477  15.220  21.007  18.463
79410W        W83478  17.737  20.765  19.273
79411W        W83479  15.341  19.557  21.159
79412W        W83480  18.114  19.487  18.640
79413W        W83481  15.859  20.544  19.111
79414W        W83482  16.958  19.926  21.192
79415W        W83483  16.849  19.554  20.736
79416W        W83484  15.409  19.926  20.765
79417W        W83485  17.619  21.814  20.594
79418W        W83486  17.410  18.448  21.588
79419W        W83487  15.074  18.598  21.175
79420W        W83488  15.413  19.621  20.228
79421W        W83489  15.782  19.435  18.350
79422W        W83490  14.585  21.194  20.895
79423W        W83491  16.170  19.903  20.338
79424W        W83492  15.993  18.928  18.443
79425W        W83493  15.128  19.744  19.224
79426W        W83494  14.899  21.596  20.661
79427W        W83495  17.694  19.822  18.769
79428W        W83496  17.789  18.738  21.455
79429W        W83497  17.225  20.947  19.418
79430W        W83498  14.823  19.871  21.595
79431W        W83499  17.789  18.335  18.891
79432W        W83500  17.309  20.810  18.902
79433W        W83501  16.211  19.868  18.987
79434W        W83502  17.398  18.672  18.510
79435W        W83503  17.463  19.279  20.696
79436W        W83504  15.172  19.872  19.903
79437W        W83505  15.466  20.811  19.552
79438W        W83506  17.229  19.431  19.517
79439W        W83507  16.252  18.810  20.213
79440W        W83508  18.214  20.721  20.724
79441W        W83509  18.132  18.708  20.285
79442W        W83510  14.671  21.538  19.661
79443W        W83511  15.180  20.725  19.197
79444W        W83512  15.095  18.342  21.750
79445W        W83513  16.214  21.195  21.852
79446W        W83514  17.969  20.163  19.642
79447W        W83515  17.323  20.340  18.522
79448W        W83516  16.618  21.861  20.734
79449W        W83517  17.475  20.583  21.771
79450W        W83518  16.290  18.293  19.051
79451W        W83519  17.003  19.162  19.910
79452W        W83520  14.689  20.749  20.242
79453W        W83521  15.942  18.711  18.883
79454W        W83522  15.746  20.195  21.732
79455W        W83523  16.740  19.176  19.446
79456W        W83524  16.945  20.586  20.568
79457W        W83525  15.099  21.191  21.003
79458W        W83526  15.690  21.174  21.726
79459W        W83527  15.541  18.971  18.740
79460W        W83528  17.058  19.113  19.065
79461W        W83529  17.016  21.221  21.302
79462W        W83530  15.701  19.813  19.901
79463W        W83531  15.356  21.511  20.766
79464W        W83532  18.101  21.628  18.367
79465W        W83533  14.964  20.300  21.363
79466W        W83534  16.959  20.562  20.051
79467W        W83535  15.395  20.211  19.293
79468W        W83536  15.766  21.218  20.688
79469W        W83537  16.144  18.637  19.729
79470W        W83538  14.755  20.621  18.659
79471W        W83539  16.274  19.572  18.529
79472W        W83540  14.920  20.121  19.548
79473W        W83541  16.210  18.763  21.012
79474W        W83542  17.882  18.472  18.439
79475W        W83543  17.975  20.218  21.538
79476W        W83544  16.629  21.475  21.690
79477W        W83545  18.187  20.569  21.212
79478W        W83546  17.595  21.367  21.823
79479W        W83547  15.334  21.823  20.301
79480W        W83548  18.193  20.445  19.175
79481W        W83549  16.723  19.712  19.688
79482W        W83550  16.490  18.324  19.578
79483W        W83551  15.549  21.308  19.415
79484W        W83552  16.048  19.049  20.640
79485W        W83553  15.748  18.418  20.109
79486W        W83554  14.811  21.240  18.657
79487W        W83555  16.627  20.604  19.375
79488W        W83556  15.502  21.399  21.254
79489W        W83557  14.979  20.222  18.950
79490W        W83558  14.864  18.765  19.949
79491W        W83559  16.412  20.730  20.006
79492W        W83560  14.664  18.584  19.026
79493W        W83561  17.328  19.790  20.953
79494W        W83562  17.205  19.176  18.525
79495W        W83563  17.722  20.848  20.173
79496W        W83564  16.383  21.332  20.004
79497W        W83565  15.795  21.436  18.915
79498W        W83566  17.077  18.339  18.345
79499W        W83567  14.877  21.599  20.086
79500W        W83568  17.074  19.357  21.721
79501W        W83569  15.057  18.887  21.720
79502W        W83570  14.788  19.487  19.053
79503W        W83571  15.479  19.476  18.778
79504W        W83572  17.242  19.803  21.595
79505W        W83573  15.585  20.084  20.304
79506W        W83574  17.059  18.370  19.424
79507W        W83575  16.190  21.801  19.927
79508W        W83576  17.404  21.263  20.864
79509W        W83577  16.988  21.412  19.975
79510W        W83578  17.007  20.392  19.569
79511W        W83579  16.469  18.617  18.640
79512W        W83580  18.150  18.245  19.362
79513W        W83581  15.838  19.880  18.525
79514W        W83582  18.004  19.217  19.515
79515W        W83583  16.696  20.387  18.392
79516W        W83584  17.632  20.587  21.140
79517W        W83585  17.286  21.288  18.607
79518W        W83586  15.901  18.963  21.513
79519W        W83587  15.721  19.547  20.754
79520W        W83588  17.813  21.042  21.031
79521W        W83589  16.913  18.992  21.408
79522W        W83590  14.757  19.463  21.185
79523W        W83591  16.517  19.940  20.911
79524W        W83592  14.874  20.698  19.568
79525W        W83593  15.021  19.995  20.458
79526W        W83594  17.338  20.281  20.808
79527W        W83595  17.110  21.661  21.619
79528W        W83596  17.006  19.400  21.172
79529W        W83597  17.283  21.454  19.577
79530W        W83598  16.285  21.174  20.900
79531W        W83599  15.770  21.529  20.169
79532W        W83600  17.575  20.700  20.588
79533W        W83601  16.625  20.772  21.725
79534W        W83602  15.230  20.725  20.064
79535W        W83603  17.576  20.484  19.709
79536W        W83604  17.217  21.550  20.460
79537W        W83605  15.195  21.279  20.330
79538W        W83606  16.216  19.331  21.540
79539W        W83607  16.667  21.497  19.051
79540W        W83608  15.975  20.752  21.689
79541W        W83609  16.101  20.990  19.066
79542W        W83610  15.322  19.730  18.325
79543W        W83611  17.742  20.439  22.518
79544W        W83612  15.790  21.515  22.071
79545W        W83613  15.873  19.667  23.054
79546W        W83614  15.388  19.515  23.218
79547W        W83615  16.379  20.330  22.652
79548W        W83616  16.808  19.522  22.229
79549W        W83617  16.365  20.757  22.198
79550W        W83618  15.061  18.596  23.033
79551W        W83619  17.749  18.990  21.984
79552W        W83620  17.955  20.964  22.481
79553W        W83621  15.084  21.750  22.235
79554W        W83622  15.477  21.796  22.911
79555W        W83623  17.302  19.990  23.071
79556W        W83624  17.268  19.678  22.098
79557W        W83625  17.753  20.030  22.853
79558W        W83626  16.655  18.688  22.869
79559W        W83627  15.312  21.382  22.552
79560W        W83628  16.268  21.455  22.410
79561W        W83629  17.660  19.481  21.874
79562W        W83630  15.847  20.171  23.137
79563W        W83631  15.317  20.210  21.995
79564W        W83632  14.972  19.243  22.174
79565W        W83633  15.034  21.199  22.968
79566W        W83634  16.165  20.682  23.216
79567W        W83635  16.423  19.183  22.614
79568W        W83636  14.589  19.933  22.808
79569W        W83637  16.904  19.612  22.759
79570W        W83638  16.781  20.102  22.863
79571W        W83639  16.770  18.996  22.320
79572W        W83640  17.169  18.876  23.101
79573W        W83641  15.960  19.303  22.477
79574W        W83642  17.581  19.071  22.822
79575W        W83643  17.948  19.553  22.767
79576W        W83644  15.617  18.306  22.473
79577W        W83645  18.088  21.089  21.953
79578W        W83646  16.912  18.879  21.885
79579W        W83647  16.623  20.956  22.612
79580W        W83648  16.722  21.523  23.204
79581W        W83649  17.896  20.526  22.048
79582W        W83650  16.331  20.009  23.109
79583W        W83651  17.401  19.539  22.727
79584W        W83652  17.688  19.272  22.369
79585W        W83653  17.497  21.312  22.758
79586W        W83654  17.227  19.994  22.532
79587W        W83655  17.880  18.646  22.999
79588W        W83656  16.066  21.522  22.964
79589W        W83657  15.181  18.702  22.222
79590W        W83658  15.313  21.476  21.880
79591W        W83659  15.687  19.942  22.631
79592W        W83660  16.171  18.929  22.934
79593W        W83661  15.519  18.719  22.886
79594W        W83662  15.524  18.947  21.911
79595W        W83663  16.297  20.083  22.218
79596W        W83664  15.565  18.398  21.988
79597W        W83665  16.303  19.479  23.039
79598W        W83666  15.214  18.991  23.253
79599W        W83667  15.000  21.703  22.929
79600W        W83668  15.367  20.518  22.413
79601W        W83669  17.002  20.750  22.099
79602W        W83670  18.153  19.049  22.695
79603W        W83671  14.631  21.710  22.490
79604W        W83672  15.893  21.003  22.145
79605W        W83673  17.798  21.385  22.331
79606W        W83674  16.773  20.038  22.345
79607W        W83675  15.616  19.229  22.862
79608W        W83676  16.448  19.139  21.914
79609W        W83677  17.385  18.610  22.709
79610W        W83678  14.715  18.458  22.157
79611W        W83679  15.542  20.645  21.937
79612W        W83680  14.783  20.886  22.705
79613W        W83681  15.895  18.426  22.970
79614W        W83682  16.954  18.503  22.475
79615W        W83683  15.058  19.004  22.642
79616W        W83684  18.025  19.895  21.943
79617W        W83685  14.579  18.915  22.180
79618W        W83686  16.590  21.781  22.216
79619W        W83687  14.736  20.288  21.913
79620W        W83688  18.137  20.140  22.403
79621W        W83689  17.000  20.472  22.502
79622W        W83690  17.474  21.772  22.197
79623W        W83691  16.068  18.338  22.156
79624W        W83692  17.607  20.937  22.099
79625W        W83693  17.147  21.674  22.613
79626W        W83694  15.608  20.957  22.598
79627W        W83695  17.363  20.455  22.862
79628W        W83696  16.460  21.143  23.050
79629W        W83697  18.210  19.703  23.231
79630W        W83698  16.734  21.187  22.165
79631W        W83699  15.876  20.432  22.247
79632W        W83700  17.588  21.814  22.966
79633W        W83701  14.844  19.820  22.131
79634W        W83702  17.978  21.478  22.828
79635W        W83703  17.815  18.802  22.447
79636W        W83704  17.689  19.679  23.213
79637W        W83705  15.220  21.007  22.108
79638W        W83706  17.737  20.765  22.918
79639W        W83707  18.114  19.487  22.285
79640W        W83708  15.859  20.544  22.756
79641W        W83709  15.782  19.435  21.995
79642W        W83710  15.993  18.928  22.088
79643W        W83711  15.128  19.744  22.869
79644W        W83712  17.694  19.822  22.414
79645W        W83713  17.225  20.947  23.063
79646W        W83714  17.789  18.335  22.536
79647W        W83715  17.309  20.810  22.547
79648W        W83716  16.211  19.868  22.632
79649W        W83717  17.398  18.672  22.155
79650W        W83718  15.466  20.811  23.197
79651W        W83719  17.229  19.431  23.162
79652W        W83720  14.671  21.538  23.306
79653W        W83721  15.180  20.725  22.842
79654W        W83722  17.969  20.163  23.287
79655W        W83723  17.323  20.340  22.167
79656W        W83724  16.290  18.293  22.696
79657W        W83725  15.942  18.711  22.528
79658W        W83726  16.740  19.176  23.091
79659W        W83727  15.541  18.971  22.385
79660W        W83728  17.058  19.113  22.710
79661W        W83729  18.101  21.628  22.012
79662W        W83730  14.755  20.621  22.304
79663W        W83731  16.274  19.572  22.174
79664W        W83732  14.920  20.121  23.193
79665W        W83733  17.882  18.472  22.084
79666W        W83734  18.193  20.445  22.820
79667W        W83735  16.490  18.324  23.223
79668W        W83736  15.549  21.308  23.060
79669W        W83737  14.811  21.240  22.302
79670W        W83738  16.627  20.604  23.020
79671W        W83739  14.979  20.222  22.595
79672W        W83740  14.664  18.584  22.671
79673W        W83741  17.205  19.176  22.170
79674W        W83742  15.795  21.436  22.560
79675W        W83743  17.077  18.339  21.990
79676W        W83744  14.788  19.487  22.698
79677W        W83745  15.479  19.476  22.423
79678W        W83746  17.007  20.392  23.214
79679W        W83747  16.469  18.617  22.285
79680W        W83748  18.150  18.245  23.007
79681W        W83749  15.838  19.880  22.170
79682W        W83750  18.004  19.217  23.160
79683W        W83751  16.696  20.387  22.037
79684W        W83752  17.286  21.288  22.252
79685W        W83753  14.874  20.698  23.213
79686W        W83754  17.283  21.454  23.222
79687W        W83755  16.667  21.497  22.696
79688W        W83756  16.101  20.990  22.711
79689W        W83757  15.322  19.730  21.970
79690W        W83758  14.703  22.628   3.104
79691W        W83759  15.465  21.908   2.906
79692W        W83760  17.159  22.296   1.793
79693W        W83761  16.808  23.167   0.363
79694W        W83762  17.378  22.601   3.454
79695W        W83763  14.744  22.393   2.579
79696W        W83764  15.690  23.076   3.262
79697W        W83765  18.149  22.935   1.761
79698W        W83766  15.890  23.140   2.069
79699W        W83767  14.648  23.124   3.570
79700W        W83768  15.061  22.241   1.167
79701W        W83769  17.464  22.682   2.023
79702W        W83770  17.749  22.635   0.118
79703W        W83771  15.274  22.195   2.471
79704W        W83772  17.897  23.213   2.746
79705W        W83773  16.282  22.797   1.571
79706W        W83774  16.655  22.333   1.003
79707W        W83775  14.683  22.526   1.285
79708W        W83776  17.469  23.133   1.759
79709W        W83777  17.660  23.126   0.008
79710W        W83778  15.869  22.221   2.364
79711W        W83779  18.098  21.983   1.661
79712W        W83780  14.972  22.888   0.308
79713W        W83781  16.423  22.828   0.748
79714W        W83782  17.483  23.079   3.118
79715W        W83783  16.904  23.257   0.893
79716W        W83784  15.124  23.167   2.471
79717W        W83785  14.999  21.960   1.552
79718W        W83786  16.767  22.307   2.113
79719W        W83787  16.415  22.492   3.276
79720W        W83788  16.770  22.641   0.454
79721W        W83789  16.920  22.115   3.247
79722W        W83790  17.369  22.583   2.965
79723W        W83791  17.169  22.521   1.235
79724W        W83792  15.960  22.948   0.611
79725W        W83793  15.529  22.232   3.275
79726W        W83794  17.581  22.716   0.956
79727W        W83795  17.948  23.198   0.901
79728W        W83796  15.617  21.951   0.607
79729W        W83797  17.938  22.485   1.642
79730W        W83798  16.912  22.524   0.019
79731W        W83799  18.085  22.050   2.489
79732W        W83800  16.697  21.872   1.795
79733W        W83801  15.309  22.775   1.858
79734W        W83802  17.916  22.765   2.210
79735W        W83803  18.183  22.165   2.984
79736W        W83804  16.549  22.886   2.023
79737W        W83805  17.688  22.917   0.503
79738W        W83806  14.916  22.652   2.143
79739W        W83807  16.976  22.629   2.606
79740W        W83808  17.880  22.291   1.133
79741W        W83809  14.654  22.931   2.472
79742W        W83810  17.514  22.726   1.490
79743W        W83811  17.925  22.877   3.267
79744W        W83812  15.181  22.347   0.356
79745W        W83813  16.285  22.001   2.166
79746W        W83814  16.171  22.574   1.068
79747W        W83815  17.527  22.171   1.496
79748W        W83816  15.519  22.364   1.020
79749W        W83817  15.524  22.592   0.045
79750W        W83818  16.325  23.201   2.439
79751W        W83819  17.173  22.067   2.309
79752W        W83820  15.565  22.043   0.122
79753W        W83821  16.303  23.124   1.173
79754W        W83822  17.273  22.100   2.872
79755W        W83823  16.566  22.064   3.596
79756W        W83824  15.788  22.680   1.989
79757W        W83825  15.214  22.636   1.387
79758W        W83826  16.674  22.416   1.561
79759W        W83827  18.153  22.694   0.829
79760W        W83828  16.530  22.625   2.430
79761W        W83829  15.616  22.874   0.996
79762W        W83830  16.448  22.784   0.048
79763W        W83831  17.385  22.255   0.843
79764W        W83832  14.715  22.103   0.291
79765W        W83833  15.991  22.161   3.467
79766W        W83834  16.700  22.303   2.823
79767W        W83835  15.895  22.071   1.104
79768W        W83836  16.954  22.148   0.609
79769W        W83837  14.899  22.080   2.186
79770W        W83838  17.636  22.151   1.962
79771W        W83839  15.058  22.649   0.776
79772W        W83840  17.629  22.337   2.392
79773W        W83841  15.317  22.298   1.896
79774W        W83842  16.431  22.870   2.836
79775W        W83843  14.579  22.560   0.314
79776W        W83844  17.751  21.975   2.860
79777W        W83845  18.187  22.296   3.465
79778W        W83846  17.905  23.224   2.086
79779W        W83847  16.068  21.983   0.290
79780W        W83848  15.376  22.675   3.119
79781W        W83849  17.936  22.660   2.779
79782W        W83850  15.636  22.354   2.781
79783W        W83851  15.131  22.726   2.720
79784W        W83852  16.432  21.981   3.084
79785W        W83853  15.487  22.716   2.379
79786W        W83854  15.457  22.064   1.489
79787W        W83855  17.078  22.906   2.181
79788W        W83856  15.687  22.479   1.545
79789W        W83857  17.815  22.447   0.581
79790W        W83858  15.954  21.966   2.984
79791W        W83859  15.806  22.997   1.563
79792W        W83860  15.812  22.866   2.862
79793W        W83861  18.114  23.132   0.419
79794W        W83862  16.849  23.199   2.515
79795W        W83863  17.410  22.093   3.367
79796W        W83864  15.074  22.243   2.954
79797W        W83865  15.413  23.266   2.007
79798W        W83866  15.782  23.080   0.129
79799W        W83867  15.993  22.573   0.222
79800W        W83868  17.789  22.383   3.234
79801W        W83869  17.789  21.980   0.670
79802W        W83870  17.398  22.317   0.289
79803W        W83871  17.463  22.924   2.475
79804W        W83872  16.252  22.455   1.992
79805W        W83873  18.132  22.353   2.064
79806W        W83874  15.095  21.987   3.529
79807W        W83875  16.290  21.938   0.830
79808W        W83876  17.003  22.807   1.689
79809W        W83877  15.942  22.356   0.662
79810W        W83878  16.740  22.821   1.225
79811W        W83879  15.541  22.616   0.519
79812W        W83880  17.058  22.758   0.844
79813W        W83881  16.144  22.282   1.508
79814W        W83882  16.274  23.217   0.308
79815W        W83883  16.210  22.408   2.791
79816W        W83884  17.882  22.117   0.218
79817W        W83885  16.490  21.969   1.357
79818W        W83886  16.048  22.694   2.419
79819W        W83887  15.748  22.063   1.888
79820W        W83888  14.864  22.410   1.728
79821W        W83889  14.664  22.229   0.805
79822W        W83890  17.205  22.821   0.304
79823W        W83891  17.077  21.984   0.124
79824W        W83892  17.074  23.002   3.500
79825W        W83893  15.057  22.532   3.499
79826W        W83894  14.788  23.132   0.832
79827W        W83895  17.059  22.015   1.203
79828W        W83896  16.469  22.262   0.419
79829W        W83897  18.150  21.890   1.141
79830W        W83898  18.004  22.862   1.294
79831W        W83899  15.901  22.608   3.292
79832W        W83900  15.721  23.192   2.533
79833W        W83901  16.913  22.637   3.187
79834W        W83902  14.757  23.108   2.964
79835W        W83903  17.006  23.045   2.951
79836W        W83904  16.216  22.976   3.319
79837W        W83905  14.703  22.628   6.748
79838W        W83906  15.465  21.908   6.550
79839W        W83907  17.159  22.296   5.437
79840W        W83908  16.808  23.167   4.007
79841W        W83909  17.378  22.601   7.098
79842W        W83910  14.744  22.393   6.223
79843W        W83911  15.690  23.076   6.906
79844W        W83912  18.149  22.935   5.405
79845W        W83913  15.890  23.140   5.713
79846W        W83914  14.648  23.124   7.214
79847W        W83915  15.061  22.241   4.811
79848W        W83916  17.464  22.682   5.667
79849W        W83917  17.749  22.635   3.762
79850W        W83918  15.274  22.195   6.115
79851W        W83919  17.897  23.213   6.390
79852W        W83920  16.282  22.797   5.215
79853W        W83921  16.655  22.333   4.647
79854W        W83922  14.683  22.526   4.929
79855W        W83923  17.469  23.133   5.403
79856W        W83924  17.660  23.126   3.652
79857W        W83925  15.869  22.221   6.008
79858W        W83926  18.098  21.983   5.305
79859W        W83927  14.972  22.888   3.952
79860W        W83928  16.423  22.828   4.392
79861W        W83929  17.483  23.079   6.762
79862W        W83930  16.904  23.257   4.537
79863W        W83931  15.124  23.167   6.115
79864W        W83932  14.999  21.960   5.196
79865W        W83933  16.767  22.307   5.757
79866W        W83934  16.415  22.492   6.920
79867W        W83935  16.770  22.641   4.098
79868W        W83936  16.920  22.115   6.891
79869W        W83937  17.369  22.583   6.609
79870W        W83938  17.169  22.521   4.879
79871W        W83939  15.960  22.948   4.255
79872W        W83940  15.529  22.232   6.919
79873W        W83941  17.581  22.716   4.600
79874W        W83942  17.948  23.198   4.545
79875W        W83943  15.617  21.951   4.251
79876W        W83944  17.938  22.485   5.286
79877W        W83945  16.912  22.524   3.663
79878W        W83946  18.085  22.050   6.133
79879W        W83947  16.697  21.872   5.439
79880W        W83948  15.309  22.775   5.502
79881W        W83949  17.916  22.765   5.854
79882W        W83950  18.183  22.165   6.628
79883W        W83951  16.549  22.886   5.667
79884W        W83952  17.688  22.917   4.147
79885W        W83953  14.916  22.652   5.787
79886W        W83954  16.976  22.629   6.250
79887W        W83955  17.880  22.291   4.777
79888W        W83956  14.654  22.931   6.116
79889W        W83957  17.514  22.726   5.134
79890W        W83958  17.925  22.877   6.911
79891W        W83959  15.181  22.347   4.000
79892W        W83960  16.285  22.001   5.810
79893W        W83961  16.171  22.574   4.712
79894W        W83962  17.527  22.171   5.140
79895W        W83963  15.519  22.364   4.664
79896W        W83964  15.524  22.592   3.689
79897W        W83965  16.325  23.201   6.083
79898W        W83966  17.173  22.067   5.953
79899W        W83967  15.565  22.043   3.766
79900W        W83968  16.303  23.124   4.817
79901W        W83969  17.273  22.100   6.516
79902W        W83970  16.566  22.064   7.240
79903W        W83971  15.788  22.680   5.633
79904W        W83972  15.214  22.636   5.031
79905W        W83973  16.674  22.416   5.205
79906W        W83974  18.153  22.694   4.473
79907W        W83975  16.530  22.625   6.074
79908W        W83976  15.616  22.874   4.640
79909W        W83977  16.448  22.784   3.692
79910W        W83978  17.385  22.255   4.487
79911W        W83979  14.715  22.103   3.935
79912W        W83980  15.991  22.161   7.111
79913W        W83981  16.700  22.303   6.467
79914W        W83982  15.895  22.071   4.748
79915W        W83983  16.954  22.148   4.253
79916W        W83984  14.899  22.080   5.830
79917W        W83985  17.636  22.151   5.606
79918W        W83986  15.058  22.649   4.420
79919W        W83987  17.629  22.337   6.036
79920W        W83988  15.317  22.298   5.540
79921W        W83989  16.431  22.870   6.480
79922W        W83990  14.579  22.560   3.958
79923W        W83991  17.751  21.975   6.504
79924W        W83992  18.187  22.296   7.109
79925W        W83993  17.905  23.224   5.730
79926W        W83994  16.068  21.983   3.934
79927W        W83995  15.376  22.675   6.763
79928W        W83996  17.936  22.660   6.423
79929W        W83997  15.636  22.354   6.425
79930W        W83998  15.131  22.726   6.364
79931W        W83999  16.432  21.981   6.728
79932W        W84000  15.487  22.716   6.023
79933W        W84001  15.457  22.064   5.133
79934W        W84002  17.078  22.906   5.825
79935W        W84003  15.687  22.479   5.189
79936W        W84004  17.815  22.447   4.225
79937W        W84005  15.954  21.966   6.628
79938W        W84006  15.806  22.997   5.207
79939W        W84007  15.812  22.866   6.506
79940W        W84008  18.114  23.132   4.063
79941W        W84009  16.849  23.199   6.159
79942W        W84010  17.410  22.093   7.011
79943W        W84011  15.074  22.243   6.598
79944W        W84012  15.413  23.266   5.651
79945W        W84013  15.782  23.080   3.773
79946W        W84014  15.993  22.573   3.866
79947W        W84015  17.789  22.383   6.878
79948W        W84016  17.789  21.980   4.314
79949W        W84017  17.398  22.317   3.933
79950W        W84018  17.463  22.924   6.119
79951W        W84019  16.252  22.455   5.636
79952W        W84020  18.132  22.353   5.708
79953W        W84021  15.095  21.987   7.173
79954W        W84022  16.290  21.938   4.474
79955W        W84023  17.003  22.807   5.333
79956W        W84024  15.942  22.356   4.306
79957W        W84025  16.740  22.821   4.869
79958W        W84026  15.541  22.616   4.163
79959W        W84027  17.058  22.758   4.488
79960W        W84028  16.144  22.282   5.152
79961W        W84029  16.274  23.217   3.952
79962W        W84030  16.210  22.408   6.435
79963W        W84031  17.882  22.117   3.862
79964W        W84032  16.490  21.969   5.001
79965W        W84033  16.048  22.694   6.063
79966W        W84034  15.748  22.063   5.532
79967W        W84035  14.864  22.410   5.372
79968W        W84036  14.664  22.229   4.449
79969W        W84037  17.205  22.821   3.948
79970W        W84038  17.077  21.984   3.768
79971W        W84039  17.074  23.002   7.144
79972W        W84040  15.057  22.532   7.143
79973W        W84041  14.788  23.132   4.476
79974W        W84042  17.059  22.015   4.847
79975W        W84043  16.469  22.262   4.063
79976W        W84044  18.150  21.890   4.785
79977W        W84045  18.004  22.862   4.938
79978W        W84046  15.901  22.608   6.936
79979W        W84047  15.721  23.192   6.177
79980W        W84048  16.913  22.637   6.831
79981W        W84049  14.757  23.108   6.608
79982W        W84050  17.006  23.045   6.595
79983W        W84051  16.216  22.976   6.963
79984W        W84052  14.703  22.628  10.393
79985W        W84053  15.465  21.908  10.195
79986W        W84054  17.159  22.296   9.082
79987W        W84055  16.808  23.167   7.652
79988W        W84056  17.378  22.601  10.743
79989W        W84057  14.744  22.393   9.868
79990W        W84058  15.690  23.076  10.551
79991W        W84059  18.149  22.935   9.050
79992W        W84060  15.890  23.140   9.358
79993W        W84061  14.648  23.124  10.859
79994W        W84062  15.061  22.241   8.456
79995W        W84063  17.464  22.682   9.312
79996W        W84064  17.749  22.635   7.407
79997W        W84065  15.274  22.195   9.760
79998W        W84066  17.897  23.213  10.035
79999W        W84067  16.282  22.797   8.860
80000W        W84068  16.655  22.333   8.292
80001W        W84069  14.683  22.526   8.574
80002W        W84070  17.469  23.133   9.048
80003W        W84071  17.660  23.126   7.297
80004W        W84072  15.869  22.221   9.653
80005W        W84073  18.098  21.983   8.950
80006W        W84074  14.972  22.888   7.597
80007W        W84075  16.423  22.828   8.037
80008W        W84076  17.483  23.079  10.407
80009W        W84077  16.904  23.257   8.182
80010W        W84078  15.124  23.167   9.760
80011W        W84079  14.999  21.960   8.841
80012W        W84080  16.767  22.307   9.402
80013W        W84081  16.415  22.492  10.565
80014W        W84082  16.770  22.641   7.743
80015W        W84083  16.920  22.115  10.536
80016W        W84084  17.369  22.583  10.254
80017W        W84085  17.169  22.521   8.524
80018W        W84086  15.960  22.948   7.900
80019W        W84087  15.529  22.232  10.564
80020W        W84088  17.581  22.716   8.245
80021W        W84089  17.948  23.198   8.190
80022W        W84090  15.617  21.951   7.896
80023W        W84091  17.938  22.485   8.931
80024W        W84092  16.912  22.524   7.308
80025W        W84093  18.085  22.050   9.778
80026W        W84094  16.697  21.872   9.084
80027W        W84095  15.309  22.775   9.147
80028W        W84096  17.916  22.765   9.499
80029W        W84097  18.183  22.165  10.273
80030W        W84098  16.549  22.886   9.312
80031W        W84099  17.688  22.917   7.792
80032W        W84100  14.916  22.652   9.432
80033W        W84101  16.976  22.629   9.895
80034W        W84102  17.880  22.291   8.422
80035W        W84103  14.654  22.931   9.761
80036W        W84104  17.514  22.726   8.779
80037W        W84105  17.925  22.877  10.556
80038W        W84106  15.181  22.347   7.645
80039W        W84107  16.285  22.001   9.455
80040W        W84108  16.171  22.574   8.357
80041W        W84109  17.527  22.171   8.785
80042W        W84110  15.519  22.364   8.309
80043W        W84111  15.524  22.592   7.334
80044W        W84112  16.325  23.201   9.728
80045W        W84113  17.173  22.067   9.598
80046W        W84114  15.565  22.043   7.411
80047W        W84115  16.303  23.124   8.462
80048W        W84116  17.273  22.100  10.161
80049W        W84117  16.566  22.064  10.885
80050W        W84118  15.788  22.680   9.278
80051W        W84119  15.214  22.636   8.676
80052W        W84120  16.674  22.416   8.850
80053W        W84121  18.153  22.694   8.118
80054W        W84122  16.530  22.625   9.719
80055W        W84123  15.616  22.874   8.285
80056W        W84124  16.448  22.784   7.337
80057W        W84125  17.385  22.255   8.132
80058W        W84126  14.715  22.103   7.580
80059W        W84127  15.991  22.161  10.756
80060W        W84128  16.700  22.303  10.112
80061W        W84129  15.895  22.071   8.393
80062W        W84130  16.954  22.148   7.898
80063W        W84131  14.899  22.080   9.475
80064W        W84132  17.636  22.151   9.251
80065W        W84133  15.058  22.649   8.065
80066W        W84134  17.629  22.337   9.681
80067W        W84135  15.317  22.298   9.185
80068W        W84136  16.431  22.870  10.125
80069W        W84137  14.579  22.560   7.603
80070W        W84138  17.751  21.975  10.149
80071W        W84139  18.187  22.296  10.754
80072W        W84140  17.905  23.224   9.375
80073W        W84141  16.068  21.983   7.579
80074W        W84142  15.376  22.675  10.408
80075W        W84143  17.936  22.660  10.068
80076W        W84144  15.636  22.354  10.070
80077W        W84145  15.131  22.726  10.009
80078W        W84146  16.432  21.981  10.373
80079W        W84147  15.487  22.716   9.668
80080W        W84148  15.457  22.064   8.778
80081W        W84149  17.078  22.906   9.470
80082W        W84150  15.687  22.479   8.834
80083W        W84151  17.815  22.447   7.870
80084W        W84152  15.954  21.966  10.273
80085W        W84153  15.806  22.997   8.852
80086W        W84154  15.812  22.866  10.151
80087W        W84155  18.114  23.132   7.708
80088W        W84156  16.849  23.199   9.804
80089W        W84157  17.410  22.093  10.656
80090W        W84158  15.074  22.243  10.243
80091W        W84159  15.413  23.266   9.296
80092W        W84160  15.782  23.080   7.418
80093W        W84161  15.993  22.573   7.511
80094W        W84162  17.789  22.383  10.523
80095W        W84163  17.789  21.980   7.959
80096W        W84164  17.398  22.317   7.578
80097W        W84165  17.463  22.924   9.764
80098W        W84166  16.252  22.455   9.281
80099W        W84167  18.132  22.353   9.353
80100W        W84168  15.095  21.987  10.818
80101W        W84169  16.290  21.938   8.119
80102W        W84170  17.003  22.807   8.978
80103W        W84171  15.942  22.356   7.951
80104W        W84172  16.740  22.821   8.514
80105W        W84173  15.541  22.616   7.808
80106W        W84174  17.058  22.758   8.133
80107W        W84175  16.144  22.282   8.797
80108W        W84176  16.274  23.217   7.597
80109W        W84177  16.210  22.408  10.080
80110W        W84178  17.882  22.117   7.507
80111W        W84179  16.490  21.969   8.646
80112W        W84180  16.048  22.694   9.708
80113W        W84181  15.748  22.063   9.177
80114W        W84182  14.864  22.410   9.017
80115W        W84183  14.664  22.229   8.094
80116W        W84184  17.205  22.821   7.593
80117W        W84185  17.077  21.984   7.413
80118W        W84186  17.074  23.002  10.789
80119W        W84187  15.057  22.532  10.788
80120W        W84188  14.788  23.132   8.121
80121W        W84189  17.059  22.015   8.492
80122W        W84190  16.469  22.262   7.708
80123W        W84191  18.150  21.890   8.430
80124W        W84192  18.004  22.862   8.583
80125W        W84193  15.901  22.608  10.581
80126W        W84194  15.721  23.192   9.822
80127W        W84195  16.913  22.637  10.476
80128W        W84196  14.757  23.108  10.253
80129W        W84197  17.006  23.045  10.240
80130W        W84198  16.216  22.976  10.608
80131W        W84199  14.703  22.628  14.037
80132W        W84200  15.465  21.908  13.839
80133W        W84201  17.159  22.296  12.726
80134W        W84202  16.808  23.167  11.296
80135W        W84203  17.378  22.601  14.387
80136W        W84204  14.744  22.393  13.512
80137W        W84205  15.690  23.076  14.195
80138W        W84206  18.149  22.935  12.694
80139W        W84207  15.890  23.140  13.002
80140W        W84208  14.648  23.124  14.503
80141W        W84209  15.061  22.241  12.100
80142W        W84210  17.464  22.682  12.956
80143W        W84211  17.749  22.635  11.051
80144W        W84212  15.274  22.195  13.404
80145W        W84213  17.897  23.213  13.679
80146W        W84214  16.282  22.797  12.504
80147W        W84215  16.655  22.333  11.936
80148W        W84216  14.683  22.526  12.218
80149W        W84217  17.469  23.133  12.692
80150W        W84218  17.660  23.126  10.941
80151W        W84219  15.869  22.221  13.297
80152W        W84220  18.098  21.983  12.594
80153W        W84221  14.972  22.888  11.241
80154W        W84222  16.423  22.828  11.681
80155W        W84223  17.483  23.079  14.051
80156W        W84224  16.904  23.257  11.826
80157W        W84225  15.124  23.167  13.404
80158W        W84226  14.999  21.960  12.485
80159W        W84227  16.767  22.307  13.046
80160W        W84228  16.415  22.492  14.209
80161W        W84229  16.770  22.641  11.387
80162W        W84230  16.920  22.115  14.180
80163W        W84231  17.369  22.583  13.898
80164W        W84232  17.169  22.521  12.168
80165W        W84233  15.960  22.948  11.544
80166W        W84234  15.529  22.232  14.208
80167W        W84235  17.581  22.716  11.889
80168W        W84236  17.948  23.198  11.834
80169W        W84237  15.617  21.951  11.540
80170W        W84238  17.938  22.485  12.575
80171W        W84239  16.912  22.524  10.952
80172W        W84240  18.085  22.050  13.422
80173W        W84241  16.697  21.872  12.728
80174W        W84242  15.309  22.775  12.791
80175W        W84243  17.916  22.765  13.143
80176W        W84244  18.183  22.165  13.917
80177W        W84245  16.549  22.886  12.956
80178W        W84246  17.688  22.917  11.436
80179W        W84247  14.916  22.652  13.076
80180W        W84248  16.976  22.629  13.539
80181W        W84249  17.880  22.291  12.066
80182W        W84250  14.654  22.931  13.405
80183W        W84251  17.514  22.726  12.423
80184W        W84252  17.925  22.877  14.200
80185W        W84253  15.181  22.347  11.289
80186W        W84254  16.285  22.001  13.099
80187W        W84255  16.171  22.574  12.001
80188W        W84256  17.527  22.171  12.429
80189W        W84257  15.519  22.364  11.953
80190W        W84258  15.524  22.592  10.978
80191W        W84259  16.325  23.201  13.372
80192W        W84260  17.173  22.067  13.242
80193W        W84261  15.565  22.043  11.055
80194W        W84262  16.303  23.124  12.106
80195W        W84263  17.273  22.100  13.805
80196W        W84264  16.566  22.064  14.529
80197W        W84265  15.788  22.680  12.922
80198W        W84266  15.214  22.636  12.320
80199W        W84267  16.674  22.416  12.494
80200W        W84268  18.153  22.694  11.762
80201W        W84269  16.530  22.625  13.363
80202W        W84270  15.616  22.874  11.929
80203W        W84271  16.448  22.784  10.981
80204W        W84272  17.385  22.255  11.776
80205W        W84273  14.715  22.103  11.224
80206W        W84274  15.991  22.161  14.400
80207W        W84275  16.700  22.303  13.756
80208W        W84276  15.895  22.071  12.037
80209W        W84277  16.954  22.148  11.542
80210W        W84278  14.899  22.080  13.119
80211W        W84279  17.636  22.151  12.895
80212W        W84280  15.058  22.649  11.709
80213W        W84281  17.629  22.337  13.325
80214W        W84282  15.317  22.298  12.829
80215W        W84283  16.431  22.870  13.769
80216W        W84284  14.579  22.560  11.247
80217W        W84285  17.751  21.975  13.793
80218W        W84286  18.187  22.296  14.398
80219W        W84287  17.905  23.224  13.019
80220W        W84288  16.068  21.983  11.223
80221W        W84289  15.376  22.675  14.052
80222W        W84290  17.936  22.660  13.712
80223W        W84291  15.636  22.354  13.714
80224W        W84292  15.131  22.726  13.653
80225W        W84293  16.432  21.981  14.017
80226W        W84294  15.487  22.716  13.312
80227W        W84295  15.457  22.064  12.422
80228W        W84296  17.078  22.906  13.114
80229W        W84297  15.687  22.479  12.478
80230W        W84298  17.815  22.447  11.514
80231W        W84299  15.954  21.966  13.917
80232W        W84300  15.806  22.997  12.496
80233W        W84301  15.812  22.866  13.795
80234W        W84302  18.114  23.132  11.352
80235W        W84303  16.849  23.199  13.448
80236W        W84304  17.410  22.093  14.300
80237W        W84305  15.074  22.243  13.887
80238W        W84306  15.413  23.266  12.940
80239W        W84307  15.782  23.080  11.062
80240W        W84308  15.993  22.573  11.155
80241W        W84309  17.789  22.383  14.167
80242W        W84310  17.789  21.980  11.603
80243W        W84311  17.398  22.317  11.222
80244W        W84312  17.463  22.924  13.408
80245W        W84313  16.252  22.455  12.925
80246W        W84314  18.132  22.353  12.997
80247W        W84315  15.095  21.987  14.462
80248W        W84316  16.290  21.938  11.763
80249W        W84317  17.003  22.807  12.622
80250W        W84318  15.942  22.356  11.595
80251W        W84319  16.740  22.821  12.158
80252W        W84320  15.541  22.616  11.452
80253W        W84321  17.058  22.758  11.777
80254W        W84322  16.144  22.282  12.441
80255W        W84323  16.274  23.217  11.241
80256W        W84324  16.210  22.408  13.724
80257W        W84325  17.882  22.117  11.151
80258W        W84326  16.490  21.969  12.290
80259W        W84327  16.048  22.694  13.352
80260W        W84328  15.748  22.063  12.821
80261W        W84329  14.864  22.410  12.661
80262W        W84330  14.664  22.229  11.738
80263W        W84331  17.205  22.821  11.237
80264W        W84332  17.077  21.984  11.057
80265W        W84333  17.074  23.002  14.433
80266W        W84334  15.057  22.532  14.432
80267W        W84335  14.788  23.132  11.765
80268W        W84336  17.059  22.015  12.136
80269W        W84337  16.469  22.262  11.352
80270W        W84338  18.150  21.890  12.074
80271W        W84339  18.004  22.862  12.227
80272W        W84340  15.901  22.608  14.225
80273W        W84341  15.721  23.192  13.466
80274W        W84342  16.913  22.637  14.120
80275W        W84343  14.757  23.108  13.897
80276W        W84344  17.006  23.045  13.884
80277W        W84345  16.216  22.976  14.252
80278W        W84346  14.703  22.628  17.681
80279W        W84347  15.465  21.908  17.483
80280W        W84348  17.159  22.296  16.370
80281W        W84349  16.808  23.167  14.940
80282W        W84350  17.378  22.601  18.031
80283W        W84351  14.744  22.393  17.156
80284W        W84352  15.690  23.076  17.839
80285W        W84353  18.149  22.935  16.338
80286W        W84354  15.890  23.140  16.646
80287W        W84355  14.648  23.124  18.147
80288W        W84356  15.061  22.241  15.744
80289W        W84357  17.464  22.682  16.600
80290W        W84358  17.749  22.635  14.695
80291W        W84359  15.274  22.195  17.048
80292W        W84360  17.897  23.213  17.323
80293W        W84361  16.282  22.797  16.148
80294W        W84362  16.655  22.333  15.580
80295W        W84363  14.683  22.526  15.862
80296W        W84364  17.469  23.133  16.336
80297W        W84365  17.660  23.126  14.585
80298W        W84366  15.869  22.221  16.941
80299W        W84367  18.098  21.983  16.238
80300W        W84368  14.972  22.888  14.885
80301W        W84369  16.423  22.828  15.325
80302W        W84370  17.483  23.079  17.695
80303W        W84371  16.904  23.257  15.470
80304W        W84372  15.124  23.167  17.048
80305W        W84373  14.999  21.960  16.129
80306W        W84374  16.767  22.307  16.690
80307W        W84375  16.415  22.492  17.853
80308W        W84376  16.770  22.641  15.031
80309W        W84377  16.920  22.115  17.824
80310W        W84378  17.369  22.583  17.542
80311W        W84379  17.169  22.521  15.812
80312W        W84380  15.960  22.948  15.188
80313W        W84381  15.529  22.232  17.852
80314W        W84382  17.581  22.716  15.533
80315W        W84383  17.948  23.198  15.478
80316W        W84384  15.617  21.951  15.184
80317W        W84385  17.938  22.485  16.219
80318W        W84386  16.912  22.524  14.596
80319W        W84387  18.085  22.050  17.066
80320W        W84388  16.697  21.872  16.372
80321W        W84389  15.309  22.775  16.435
80322W        W84390  17.916  22.765  16.787
80323W        W84391  18.183  22.165  17.561
80324W        W84392  16.549  22.886  16.600
80325W        W84393  17.688  22.917  15.080
80326W        W84394  14.916  22.652  16.720
80327W        W84395  16.976  22.629  17.183
80328W        W84396  17.880  22.291  15.710
80329W        W84397  14.654  22.931  17.049
80330W        W84398  17.514  22.726  16.067
80331W        W84399  17.925  22.877  17.844
80332W        W84400  15.181  22.347  14.933
80333W        W84401  16.285  22.001  16.743
80334W        W84402  16.171  22.574  15.645
80335W        W84403  17.527  22.171  16.073
80336W        W84404  15.519  22.364  15.597
80337W        W84405  15.524  22.592  14.622
80338W        W84406  16.325  23.201  17.016
80339W        W84407  17.173  22.067  16.886
80340W        W84408  15.565  22.043  14.699
80341W        W84409  16.303  23.124  15.750
80342W        W84410  17.273  22.100  17.449
80343W        W84411  16.566  22.064  18.173
80344W        W84412  15.788  22.680  16.566
80345W        W84413  15.214  22.636  15.964
80346W        W84414  16.674  22.416  16.138
80347W        W84415  18.153  22.694  15.406
80348W        W84416  16.530  22.625  17.007
80349W        W84417  15.616  22.874  15.573
80350W        W84418  16.448  22.784  14.625
80351W        W84419  17.385  22.255  15.420
80352W        W84420  14.715  22.103  14.868
80353W        W84421  15.991  22.161  18.044
80354W        W84422  16.700  22.303  17.400
80355W        W84423  15.895  22.071  15.681
80356W        W84424  16.954  22.148  15.186
80357W        W84425  14.899  22.080  16.763
80358W        W84426  17.636  22.151  16.539
80359W        W84427  15.058  22.649  15.353
80360W        W84428  17.629  22.337  16.969
80361W        W84429  15.317  22.298  16.473
80362W        W84430  16.431  22.870  17.413
80363W        W84431  14.579  22.560  14.891
80364W        W84432  17.751  21.975  17.437
80365W        W84433  18.187  22.296  18.042
80366W        W84434  17.905  23.224  16.663
80367W        W84435  16.068  21.983  14.867
80368W        W84436  15.376  22.675  17.696
80369W        W84437  17.936  22.660  17.356
80370W        W84438  15.636  22.354  17.358
80371W        W84439  15.131  22.726  17.297
80372W        W84440  16.432  21.981  17.661
80373W        W84441  15.487  22.716  16.956
80374W        W84442  15.457  22.064  16.066
80375W        W84443  17.078  22.906  16.758
80376W        W84444  15.687  22.479  16.122
80377W        W84445  17.815  22.447  15.158
80378W        W84446  15.954  21.966  17.561
80379W        W84447  15.806  22.997  16.140
80380W        W84448  15.812  22.866  17.439
80381W        W84449  18.114  23.132  14.996
80382W        W84450  16.849  23.199  17.092
80383W        W84451  17.410  22.093  17.944
80384W        W84452  15.074  22.243  17.531
80385W        W84453  15.413  23.266  16.584
80386W        W84454  15.782  23.080  14.706
80387W        W84455  15.993  22.573  14.799
80388W        W84456  17.789  22.383  17.811
80389W        W84457  17.789  21.980  15.247
80390W        W84458  17.398  22.317  14.866
80391W        W84459  17.463  22.924  17.052
80392W        W84460  16.252  22.455  16.569
80393W        W84461  18.132  22.353  16.641
80394W        W84462  15.095  21.987  18.106
80395W        W84463  16.290  21.938  15.407
80396W        W84464  17.003  22.807  16.266
80397W        W84465  15.942  22.356  15.239
80398W        W84466  16.740  22.821  15.802
80399W        W84467  15.541  22.616  15.096
80400W        W84468  17.058  22.758  15.421
80401W        W84469  16.144  22.282  16.085
80402W        W84470  16.274  23.217  14.885
80403W        W84471  16.210  22.408  17.368
80404W        W84472  17.882  22.117  14.795
80405W        W84473  16.490  21.969  15.934
80406W        W84474  16.048  22.694  16.996
80407W        W84475  15.748  22.063  16.465
80408W        W84476  14.864  22.410  16.305
80409W        W84477  14.664  22.229  15.382
80410W        W84478  17.205  22.821  14.881
80411W        W84479  17.077  21.984  14.701
80412W        W84480  17.074  23.002  18.077
80413W        W84481  15.057  22.532  18.076
80414W        W84482  14.788  23.132  15.409
80415W        W84483  17.059  22.015  15.780
80416W        W84484  16.469  22.262  14.996
80417W        W84485  18.150  21.890  15.718
80418W        W84486  18.004  22.862  15.871
80419W        W84487  15.901  22.608  17.869
80420W        W84488  15.721  23.192  17.110
80421W        W84489  16.913  22.637  17.764
80422W        W84490  14.757  23.108  17.541
80423W        W84491  17.006  23.045  17.528
80424W        W84492  16.216  22.976  17.896
80425W        W84493  14.703  22.628  21.325
80426W        W84494  15.465  21.908  21.127
80427W        W84495  17.159  22.296  20.014
80428W        W84496  16.808  23.167  18.584
80429W        W84497  17.378  22.601  21.675
80430W        W84498  14.744  22.393  20.800
80431W        W84499  15.690  23.076  21.483
80432W        W84500  18.149  22.935  19.982
80433W        W84501  15.890  23.140  20.290
80434W        W84502  14.648  23.124  21.791
80435W        W84503  15.061  22.241  19.388
80436W        W84504  17.464  22.682  20.244
80437W        W84505  17.749  22.635  18.339
80438W        W84506  15.274  22.195  20.692
80439W        W84507  17.897  23.213  20.967
80440W        W84508  16.282  22.797  19.792
80441W        W84509  16.655  22.333  19.224
80442W        W84510  14.683  22.526  19.506
80443W        W84511  17.469  23.133  19.980
80444W        W84512  17.660  23.126  18.229
80445W        W84513  15.869  22.221  20.585
80446W        W84514  18.098  21.983  19.882
80447W        W84515  14.972  22.888  18.529
80448W        W84516  16.423  22.828  18.969
80449W        W84517  17.483  23.079  21.339
80450W        W84518  16.904  23.257  19.114
80451W        W84519  15.124  23.167  20.692
80452W        W84520  14.999  21.960  19.773
80453W        W84521  16.767  22.307  20.334
80454W        W84522  16.415  22.492  21.497
80455W        W84523  16.770  22.641  18.675
80456W        W84524  16.920  22.115  21.468
80457W        W84525  17.369  22.583  21.186
80458W        W84526  17.169  22.521  19.456
80459W        W84527  15.960  22.948  18.832
80460W        W84528  15.529  22.232  21.496
80461W        W84529  17.581  22.716  19.177
80462W        W84530  17.948  23.198  19.122
80463W        W84531  15.617  21.951  18.828
80464W        W84532  17.938  22.485  19.863
80465W        W84533  16.912  22.524  18.240
80466W        W84534  18.085  22.050  20.710
80467W        W84535  16.697  21.872  20.016
80468W        W84536  15.309  22.775  20.079
80469W        W84537  17.916  22.765  20.431
80470W        W84538  18.183  22.165  21.205
80471W        W84539  16.549  22.886  20.244
80472W        W84540  17.688  22.917  18.724
80473W        W84541  14.916  22.652  20.364
80474W        W84542  16.976  22.629  20.827
80475W        W84543  17.880  22.291  19.354
80476W        W84544  14.654  22.931  20.693
80477W        W84545  17.514  22.726  19.711
80478W        W84546  17.925  22.877  21.488
80479W        W84547  15.181  22.347  18.577
80480W        W84548  16.285  22.001  20.387
80481W        W84549  16.171  22.574  19.289
80482W        W84550  17.527  22.171  19.717
80483W        W84551  15.519  22.364  19.241
80484W        W84552  15.524  22.592  18.266
80485W        W84553  16.325  23.201  20.660
80486W        W84554  17.173  22.067  20.530
80487W        W84555  15.565  22.043  18.343
80488W        W84556  16.303  23.124  19.394
80489W        W84557  17.273  22.100  21.093
80490W        W84558  16.566  22.064  21.817
80491W        W84559  15.788  22.680  20.210
80492W        W84560  15.214  22.636  19.608
80493W        W84561  16.674  22.416  19.782
80494W        W84562  18.153  22.694  19.050
80495W        W84563  16.530  22.625  20.651
80496W        W84564  15.616  22.874  19.217
80497W        W84565  16.448  22.784  18.269
80498W        W84566  17.385  22.255  19.064
80499W        W84567  14.715  22.103  18.512
80500W        W84568  15.991  22.161  21.688
80501W        W84569  16.700  22.303  21.044
80502W        W84570  15.895  22.071  19.325
80503W        W84571  16.954  22.148  18.830
80504W        W84572  14.899  22.080  20.407
80505W        W84573  17.636  22.151  20.183
80506W        W84574  15.058  22.649  18.997
80507W        W84575  17.629  22.337  20.613
80508W        W84576  15.317  22.298  20.117
80509W        W84577  16.431  22.870  21.057
80510W        W84578  14.579  22.560  18.535
80511W        W84579  17.751  21.975  21.081
80512W        W84580  18.187  22.296  21.686
80513W        W84581  17.905  23.224  20.307
80514W        W84582  16.068  21.983  18.511
80515W        W84583  15.376  22.675  21.340
80516W        W84584  17.936  22.660  21.000
80517W        W84585  15.636  22.354  21.002
80518W        W84586  15.131  22.726  20.941
80519W        W84587  16.432  21.981  21.305
80520W        W84588  15.487  22.716  20.600
80521W        W84589  15.457  22.064  19.710
80522W        W84590  17.078  22.906  20.402
80523W        W84591  15.687  22.479  19.766
80524W        W84592  17.815  22.447  18.802
80525W        W84593  15.954  21.966  21.205
80526W        W84594  15.806  22.997  19.784
80527W        W84595  15.812  22.866  21.083
80528W        W84596  18.114  23.132  18.640
80529W        W84597  16.849  23.199  20.736
80530W        W84598  17.410  22.093  21.588
80531W        W84599  15.074  22.243  21.175
80532W        W84600  15.413  23.266  20.228
80533W        W84601  15.782  23.080  18.350
80534W        W84602  15.993  22.573  18.443
80535W        W84603  17.789  22.383  21.455
80536W        W84604  17.789  21.980  18.891
80537W        W84605  17.398  22.317  18.510
80538W        W84606  17.463  22.924  20.696
80539W        W84607  16.252  22.455  20.213
80540W        W84608  18.132  22.353  20.285
80541W        W84609  15.095  21.987  21.750
80542W        W84610  16.290  21.938  19.051
80543W        W84611  17.003  22.807  19.910
80544W        W84612  15.942  22.356  18.883
80545W        W84613  16.740  22.821  19.446
80546W        W84614  15.541  22.616  18.740
80547W        W84615  17.058  22.758  19.065
80548W        W84616  16.144  22.282  19.729
80549W        W84617  16.274  23.217  18.529
80550W        W84618  16.210  22.408  21.012
80551W        W84619  17.882  22.117  18.439
80552W        W84620  16.490  21.969  19.578
80553W        W84621  16.048  22.694  20.640
80554W        W84622  15.748  22.063  20.109
80555W        W84623  14.864  22.410  19.949
80556W        W84624  14.664  22.229  19.026
80557W        W84625  17.205  22.821  18.525
80558W        W84626  17.077  21.984  18.345
80559W        W84627  17.074  23.002  21.721
80560W        W84628  15.057  22.532  21.720
80561W        W84629  14.788  23.132  19.053
80562W        W84630  17.059  22.015  19.424
80563W        W84631  16.469  22.262  18.640
80564W        W84632  18.150  21.890  19.362
80565W        W84633  18.004  22.862  19.515
80566W        W84634  15.901  22.608  21.513
80567W        W84635  15.721  23.192  20.754
80568W        W84636  16.913  22.637  21.408
80569W        W84637  14.757  23.108  21.185
80570W        W84638  17.006  23.045  21.172
80571W        W84639  16.216  22.976  21.540
80572W        W84640  16.808  23.167  22.229
80573W        W84641  15.061  22.241  23.033
80574W        W84642  17.749  22.635  21.984
80575W        W84643  16.655  22.333  22.869
80576W        W84644  17.660  23.126  21.874
80577W        W84645  14.972  22.888  22.174
80578W        W84646  16.423  22.828  22.614
80579W        W84647  16.904  23.257  22.759
80580W        W84648  16.770  22.641  22.320
80581W        W84649  17.169  22.521  23.101
80582W        W84650  15.960  22.948  22.477
80583W        W84651  17.581  22.716  22.822
80584W        W84652  17.948  23.198  22.767
80585W        W84653  15.617  21.951  22.473
80586W        W84654  16.912  22.524  21.885
80587W        W84655  17.688  22.917  22.369
80588W        W84656  17.880  22.291  22.999
80589W        W84657  15.181  22.347  22.222
80590W        W84658  16.171  22.574  22.934
80591W        W84659  15.519  22.364  22.886
80592W        W84660  15.524  22.592  21.911
80593W        W84661  15.565  22.043  21.988
80594W        W84662  16.303  23.124  23.039
80595W        W84663  15.214  22.636  23.253
80596W        W84664  18.153  22.694  22.695
80597W        W84665  15.616  22.874  22.862
80598W        W84666  16.448  22.784  21.914
80599W        W84667  17.385  22.255  22.709
80600W        W84668  14.715  22.103  22.157
80601W        W84669  15.895  22.071  22.970
80602W        W84670  16.954  22.148  22.475
80603W        W84671  15.058  22.649  22.642
80604W        W84672  14.579  22.560  22.180
80605W        W84673  16.068  21.983  22.156
80606W        W84674  17.815  22.447  22.447
80607W        W84675  18.114  23.132  22.285
80608W        W84676  15.782  23.080  21.995
80609W        W84677  15.993  22.573  22.088
80610W        W84678  17.789  21.980  22.536
80611W        W84679  17.398  22.317  22.155
80612W        W84680  16.290  21.938  22.696
80613W        W84681  15.942  22.356  22.528
80614W        W84682  16.740  22.821  23.091
80615W        W84683  15.541  22.616  22.385
80616W        W84684  17.058  22.758  22.710
80617W        W84685  16.274  23.217  22.174
80618W        W84686  17.882  22.117  22.084
80619W        W84687  16.490  21.969  23.223
80620W        W84688  14.664  22.229  22.671
80621W        W84689  17.205  22.821  22.170
80622W        W84690  17.077  21.984  21.990
80623W        W84691  14.788  23.132  22.698
80624W        W84692  16.469  22.262  22.285
80625W        W84693  18.150  21.890  23.007
80626W        W84694  18.004  22.862  23.160
80627W        W84695  18.305   3.595   3.359
80628W        W84696  18.681   2.488   2.882
80629W        W84697  21.386   2.218   0.652
80630W        W84698  21.516   3.303   2.679
80631W        W84699  19.434   3.294   0.205
80632W        W84700  19.517   1.446   1.188
80633W        W84701  19.032   1.294   1.352
80634W        W84702  20.023   2.109   0.786
80635W        W84703  19.698   3.201   3.141
80636W        W84704  18.347   0.762   3.104
80637W        W84705  19.109   0.042   2.906
80638W        W84706  20.803   0.430   1.793
80639W        W84707  20.452   1.301   0.363
80640W        W84708  21.022   0.735   3.454
80641W        W84709  18.388   0.527   2.579
80642W        W84710  18.487   3.146   3.600
80643W        W84711  20.009   2.536   0.332
80644W        W84712  18.441   1.319   2.025
80645W        W84713  19.334   1.210   3.262
80646W        W84714  21.793   1.069   1.761
80647W        W84715  21.557   2.112   2.620
80648W        W84716  19.865   1.445   1.647
80649W        W84717  20.411   2.784   2.016
80650W        W84718  18.911   2.218   2.248
80651W        W84719  18.270   1.746   1.819
80652W        W84720  19.306   1.718   3.011
80653W        W84721  21.577   1.501   3.265
80654W        W84722  19.193   2.945   1.710
80655W        W84723  20.314   2.634   2.844
80656W        W84724  19.534   1.274   2.069
80657W        W84725  19.826   2.058   1.712
80658W        W84726  20.823   2.831   3.560
80659W        W84727  19.902   2.151   3.570
80660W        W84728  19.883   1.867   3.048
80661W        W84729  18.292   1.258   3.570
80662W        W84730  21.124   2.793   3.169
80663W        W84731  18.705   0.375   1.167
80664W        W84732  19.232   2.633   2.166
80665W        W84733  21.695   2.416   1.456
80666W        W84734  21.108   0.816   2.023
80667W        W84735  21.393   0.769   0.118
80668W        W84736  21.858   1.570   2.424
80669W        W84737  19.825   3.277   2.177
80670W        W84738  21.599   2.743   0.615
80671W        W84739  18.728   3.529   0.369
80672W        W84740  19.121   3.575   1.045
80673W        W84741  18.918   0.329   2.471
80674W        W84742  21.541   1.347   2.746
80675W        W84743  20.946   1.769   1.205
80676W        W84744  20.912   1.457   0.232
80677W        W84745  20.120   2.601   2.372
80678W        W84746  19.926   0.931   1.571
80679W        W84747  20.526   3.018   2.565
80680W        W84748  21.397   1.809   0.987
80681W        W84749  20.299   0.467   1.003
80682W        W84750  18.956   3.161   0.686
80683W        W84751  18.327   0.660   1.285
80684W        W84752  21.113   1.267   1.759
80685W        W84753  18.571   2.884   1.674
80686W        W84754  19.912   3.234   0.544
80687W        W84755  21.304   1.260   0.008
80688W        W84756  18.327   3.018   2.172
80689W        W84757  19.118   2.590   2.652
80690W        W84758  19.491   1.950   1.271
80691W        W84759  19.513   0.355   2.364
80692W        W84760  21.742   0.117   1.661
80693W        W84761  18.961   1.989   0.129
80694W        W84762  18.616   1.022   0.308
80695W        W84763  18.678   2.978   1.102
80696W        W84764  19.809   2.461   1.350
80697W        W84765  21.141   3.320   3.064
80698W        W84766  20.067   0.962   0.748
80699W        W84767  21.450   3.360   1.520
80700W        W84768  21.127   1.213   3.118
80701W        W84769  21.840   2.869   1.252
80702W        W84770  20.467   2.161   2.736
80703W        W84771  18.233   1.712   0.942
80704W        W84772  19.344   2.127   2.515
80705W        W84773  20.548   1.391   0.893
80706W        W84774  20.425   1.881   0.997
80707W        W84775  18.768   1.301   2.471
80708W        W84776  18.753   1.177   3.393
80709W        W84777  18.643   0.094   1.552
80710W        W84778  20.411   0.441   2.113
80711W        W84779  20.059   0.626   3.276
80712W        W84780  20.414   0.775   0.454
80713W        W84781  21.597   3.168   3.208
80714W        W84782  20.564   0.249   3.247
80715W        W84783  21.583   2.550   3.369
80716W        W84784  21.013   0.717   2.965
80717W        W84785  20.813   0.655   1.235
80718W        W84786  21.206   1.789   3.639
80719W        W84787  18.946   3.365   1.625
80720W        W84788  19.604   1.082   0.611
80721W        W84789  19.173   0.366   3.275
80722W        W84790  21.225   0.850   0.956
80723W        W84791  21.592   1.332   0.901
80724W        W84792  19.335   3.549   3.372
80725W        W84793  19.261   0.085   0.607
80726W        W84794  21.582   0.619   1.642
80727W        W84795  21.732   2.868   0.087
80728W        W84796  18.639   2.071   1.789
80729W        W84797  20.556   0.658   0.019
80730W        W84798  21.690   2.990   1.739
80731W        W84799  21.729   0.184   2.489
80732W        W84800  20.174   1.396   3.043
80733W        W84801  20.267   2.735   0.746
80734W        W84802  20.667   2.029   3.486
80735W        W84803  20.341   0.006   1.795
80736W        W84804  18.953   0.909   1.858
80737W        W84805  18.507   2.109   2.632
80738W        W84806  20.366   3.302   1.338
80739W        W84807  21.560   0.899   2.210
80740W        W84808  20.197   3.246   2.977
80741W        W84809  21.540   2.305   0.182
80742W        W84810  19.975   1.788   1.243
80743W        W84811  21.827   0.299   2.984
80744W        W84812  19.976   2.134   2.578
80745W        W84813  20.193   1.020   2.023
80746W        W84814  21.045   1.318   0.861
80747W        W84815  21.332   1.051   0.503
80748W        W84816  21.141   3.091   0.892
80749W        W84817  20.975   2.694   1.688
80750W        W84818  20.871   1.773   0.666
80751W        W84819  20.304   1.983   1.652
80752W        W84820  21.185   1.771   1.719
80753W        W84821  18.560   0.786   2.143
80754W        W84822  21.338   1.838   2.970
80755W        W84823  21.689   3.456   2.116
80756W        W84824  19.619   2.900   1.518
80757W        W84825  20.626   3.433   2.842
80758W        W84826  20.620   0.763   2.606
80759W        W84827  19.827   3.471   2.667
80760W        W84828  21.524   0.425   1.133
80761W        W84829  21.315   1.744   2.434
80762W        W84830  18.298   1.065   2.472
80763W        W84831  21.158   0.860   1.490
80764W        W84832  21.569   1.011   3.267
80765W        W84833  20.454   2.710   1.485
80766W        W84834  19.710   3.301   1.098
80767W        W84835  18.825   0.481   0.356
80768W        W84836  19.929   0.135   2.166
80769W        W84837  18.957   3.255   0.014
80770W        W84838  19.331   1.721   0.765
80771W        W84839  19.985   2.350   3.078
80772W        W84840  19.815   0.708   1.068
80773W        W84841  21.171   0.305   1.496
80774W        W84842  20.891   3.587   1.824
80775W        W84843  20.303   3.235   2.164
80776W        W84844  19.699   2.272   2.125
80777W        W84845  21.469   2.995   2.251
80778W        W84846  19.163   0.498   1.020
80779W        W84847  19.685   2.795   1.980
80780W        W84848  19.168   0.726   0.045
80781W        W84849  19.969   1.335   2.439
80782W        W84850  20.817   0.201   2.309
80783W        W84851  18.237   2.044   2.194
80784W        W84852  19.941   1.862   0.352
80785W        W84853  19.209   0.177   0.122
80786W        W84854  19.947   1.258   1.173
80787W        W84855  20.917   0.234   2.872
80788W        W84856  19.505   2.246   2.981
80789W        W84857  20.309   2.028   3.198
80790W        W84858  20.926   2.058   3.091
80791W        W84859  20.210   0.198   3.596
80792W        W84860  19.432   0.814   1.989
80793W        W84861  18.858   0.770   1.387
80794W        W84862  18.644   3.482   1.063
80795W        W84863  19.976   2.812   3.188
80796W        W84864  19.011   2.297   0.547
80797W        W84865  20.691   1.682   1.768
80798W        W84866  20.971   1.481   2.167
80799W        W84867  20.176   2.155   2.101
80800W        W84868  20.646   2.529   0.233
80801W        W84869  20.318   0.550   1.561
80802W        W84870  21.797   0.828   0.829
80803W        W84871  18.291   3.417   2.860
80804W        W84872  18.708   2.643   2.392
80805W        W84873  18.275   3.489   0.624
80806W        W84874  20.174   0.759   2.430
80807W        W84875  19.537   2.782   0.279
80808W        W84876  21.442   3.164   0.465
80809W        W84877  20.417   1.817   0.479
80810W        W84878  19.260   1.008   0.996
80811W        W84879  20.092   0.918   0.048
80812W        W84880  20.676   2.483   3.226
80813W        W84881  21.029   0.389   0.843
80814W        W84882  18.359   0.237   0.291
80815W        W84883  19.645   2.556   2.581
80816W        W84884  19.444   2.472   1.673
80817W        W84885  19.186   2.424   0.071
80818W        W84886  18.427   2.665   0.839
80819W        W84887  18.931   1.735   3.281
80820W        W84888  19.635   0.295   3.467
80821W        W84889  20.344   0.437   2.823
80822W        W84890  19.539   0.205   1.104
80823W        W84891  20.598   0.282   0.609
80824W        W84892  18.543   0.214   2.186
80825W        W84893  18.591   1.177   1.556
80826W        W84894  21.280   0.285   1.962
80827W        W84895  18.702   0.783   0.776
80828W        W84896  21.273   0.471   2.392
80829W        W84897  21.669   1.674   0.077
80830W        W84898  18.961   0.432   1.896
80831W        W84899  20.075   1.004   2.836
80832W        W84900  18.223   0.694   0.314
80833W        W84901  19.009   2.083   2.875
80834W        W84902  20.367   1.481   2.054
80835W        W84903  20.234   3.560   0.350
80836W        W84904  18.380   2.067   0.047
80837W        W84905  19.115   2.478   3.173
80838W        W84906  18.636   1.645   2.804
80839W        W84907  19.627   1.750   2.598
80840W        W84908  21.395   0.109   2.860
80841W        W84909  21.793   1.719   2.851
80842W        W84910  21.781   1.919   0.537
80843W        W84911  20.644   2.251   0.636
80844W        W84912  21.118   3.551   0.331
80845W        W84913  20.295   1.541   3.473
80846W        W84914  18.625   2.508   3.513
80847W        W84915  21.831   0.430   3.465
80848W        W84916  21.549   1.358   2.086
80849W        W84917  19.857   3.488   3.563
80850W        W84918  19.712   0.117   0.290
80851W        W84919  21.251   2.716   0.233
80852W        W84920  19.020   0.809   3.119
80853W        W84921  19.454   2.803   2.981
80854W        W84922  21.580   0.794   2.779
80855W        W84923  20.791   3.453   0.747
80856W        W84924  21.030   2.072   2.114
80857W        W84925  19.280   0.488   2.781
80858W        W84926  19.749   1.557   3.538
80859W        W84927  19.252   2.736   0.732
80860W        W84928  21.007   2.234   0.996
80861W        W84929  18.775   0.860   2.720
80862W        W84930  20.104   2.922   1.184
80863W        W84931  21.854   1.482   1.365
80864W        W84932  20.076   0.115   3.084
80865W        W84933  20.856   2.820   2.163
80866W        W84934  21.159   3.164   1.871
80867W        W84935  20.378   2.966   0.299
80868W        W84936  18.388   2.858   3.141
80869W        W84937  19.131   0.850   2.379
80870W        W84938  19.101   0.198   1.489
80871W        W84939  20.722   1.040   2.181
80872W        W84940  19.520   2.211   0.381
80873W        W84941  21.518   2.153   1.880
80874W        W84942  18.845   2.911   3.303
80875W        W84943  21.232   3.593   1.100
80876W        W84944  19.331   0.613   1.545
80877W        W84945  19.100   2.106   1.635
80878W        W84946  19.413   3.517   2.385
80879W        W84947  21.480   3.613   3.417
80880W        W84948  20.639   1.801   2.350
80881W        W84949  18.488   1.599   0.265
80882W        W84950  21.622   3.257   0.962
80883W        W84951  21.459   0.581   0.581
80884W        W84952  19.598   0.100   2.984
80885W        W84953  21.304   2.902   1.442
80886W        W84954  21.333   1.458   1.347
80887W        W84955  19.450   1.131   1.563
80888W        W84956  19.695   1.393   2.887
80889W        W84957  20.806   2.546   2.750
80890W        W84958  19.456   1.000   2.862
80891W        W84959  19.435   3.466   1.478
80892W        W84960  18.752   3.425   3.112
80893W        W84961  18.864   2.786   0.242
80894W        W84962  21.381   2.544   1.052
80895W        W84963  18.985   1.336   2.938
80896W        W84964  21.758   1.266   0.419
80897W        W84965  19.503   2.323   0.890
80898W        W84966  20.602   1.705   2.971
80899W        W84967  20.493   1.333   2.515
80900W        W84968  19.053   1.705   2.544
80901W        W84969  21.263   3.593   2.373
80902W        W84970  21.054   0.227   3.367
80903W        W84971  18.718   0.377   2.954
80904W        W84972  19.057   1.400   2.007
80905W        W84973  19.426   1.214   0.129
80906W        W84974  18.229   2.973   2.674
80907W        W84975  19.814   1.682   2.117
80908W        W84976  19.637   0.707   0.222
80909W        W84977  18.772   1.523   1.003
80910W        W84978  18.543   3.375   2.440
80911W        W84979  21.338   1.601   0.548
80912W        W84980  21.433   0.517   3.234
80913W        W84981  20.869   2.726   1.197
80914W        W84982  18.467   1.650   3.374
80915W        W84983  21.433   0.114   0.670
80916W        W84984  20.953   2.589   0.681
80917W        W84985  19.855   1.647   0.766
80918W        W84986  21.042   0.451   0.289
80919W        W84987  21.107   1.058   2.475
80920W        W84988  18.816   1.651   1.682
80921W        W84989  19.110   2.590   1.331
80922W        W84990  20.873   1.210   1.296
80923W        W84991  19.896   0.589   1.992
80924W        W84992  21.858   2.500   2.503
80925W        W84993  21.776   0.487   2.064
80926W        W84994  18.315   3.317   1.440
80927W        W84995  18.824   2.504   0.976
80928W        W84996  18.739   0.121   3.529
80929W        W84997  19.858   2.974   3.631
80930W        W84998  21.613   1.942   1.421
80931W        W84999  20.967   2.119   0.301
80932W        W85000  20.262   3.640   2.513
80933W        W85001  21.119   2.362   3.550
80934W        W85002  19.934   0.072   0.830
80935W        W85003  20.647   0.941   1.689
80936W        W85004  18.333   2.528   2.021
80937W        W85005  19.586   0.490   0.662
80938W        W85006  19.390   1.974   3.511
80939W        W85007  20.384   0.955   1.225
80940W        W85008  20.589   2.365   2.347
80941W        W85009  18.743   2.970   2.782
80942W        W85010  19.334   2.953   3.505
80943W        W85011  19.185   0.750   0.519
80944W        W85012  20.702   0.892   0.844
80945W        W85013  20.660   3.000   3.081
80946W        W85014  19.345   1.592   1.680
80947W        W85015  19.000   3.290   2.545
80948W        W85016  21.745   3.407   0.146
80949W        W85017  18.608   2.079   3.142
80950W        W85018  20.603   2.341   1.830
80951W        W85019  19.039   1.990   1.072
80952W        W85020  19.410   2.997   2.467
80953W        W85021  19.788   0.416   1.508
80954W        W85022  18.399   2.400   0.438
80955W        W85023  19.918   1.351   0.308
80956W        W85024  18.564   1.900   1.327
80957W        W85025  19.854   0.542   2.791
80958W        W85026  21.526   0.251   0.218
80959W        W85027  21.619   1.997   3.317
80960W        W85028  20.273   3.254   3.469
80961W        W85029  21.831   2.348   2.991
80962W        W85030  21.239   3.146   3.602
80963W        W85031  18.978   3.602   2.080
80964W        W85032  21.837   2.224   0.954
80965W        W85033  20.367   1.491   1.467
80966W        W85034  20.134   0.103   1.357
80967W        W85035  19.193   3.087   1.194
80968W        W85036  19.692   0.828   2.419
80969W        W85037  19.392   0.197   1.888
80970W        W85038  18.455   3.019   0.436
80971W        W85039  20.271   2.383   1.154
80972W        W85040  19.146   3.178   3.033
80973W        W85041  18.623   2.001   0.729
80974W        W85042  18.508   0.544   1.728
80975W        W85043  20.056   2.509   1.785
80976W        W85044  18.308   0.363   0.805
80977W        W85045  20.972   1.569   2.732
80978W        W85046  20.849   0.955   0.304
80979W        W85047  21.366   2.627   1.952
80980W        W85048  20.027   3.111   1.783
80981W        W85049  19.439   3.215   0.694
80982W        W85050  20.721   0.118   0.124
80983W        W85051  18.521   3.378   1.865
80984W        W85052  20.718   1.136   3.500
80985W        W85053  18.701   0.666   3.499
80986W        W85054  18.432   1.266   0.832
80987W        W85055  19.123   1.255   0.557
80988W        W85056  20.886   1.582   3.374
80989W        W85057  19.229   1.863   2.083
80990W        W85058  20.703   0.149   1.203
80991W        W85059  19.834   3.580   1.706
80992W        W85060  21.048   3.042   2.643
80993W        W85061  20.632   3.191   1.754
80994W        W85062  20.651   2.171   1.348
80995W        W85063  20.113   0.396   0.419
80996W        W85064  21.794   0.024   1.141
80997W        W85065  19.482   1.659   0.304
80998W        W85066  21.648   0.996   1.294
80999W        W85067  20.340   2.166   0.171
81000W        W85068  21.276   2.366   2.919
81001W        W85069  20.930   3.067   0.386
81002W        W85070  19.545   0.742   3.292
81003W        W85071  19.365   1.326   2.533
81004W        W85072  21.457   2.821   2.810
81005W        W85073  20.557   0.771   3.187
81006W        W85074  18.401   1.242   2.964
81007W        W85075  20.161   1.719   2.690
81008W        W85076  18.518   2.477   1.347
81009W        W85077  18.665   1.774   2.237
81010W        W85078  20.982   2.060   2.587
81011W        W85079  20.754   3.440   3.398
81012W        W85080  20.650   1.179   2.951
81013W        W85081  20.927   3.233   1.356
81014W        W85082  19.929   2.953   2.679
81015W        W85083  19.414   3.308   1.948
81016W        W85084  21.219   2.479   2.367
81017W        W85085  20.269   2.551   3.504
81018W        W85086  18.874   2.504   1.843
81019W        W85087  21.220   2.263   1.488
81020W        W85088  20.861   3.329   2.239
81021W        W85089  18.839   3.058   2.109
81022W        W85090  19.860   1.110   3.319
81023W        W85091  20.311   3.276   0.830
81024W        W85092  19.619   2.531   3.468
81025W        W85093  19.745   2.769   0.845
81026W        W85094  18.966   1.509   0.104
81027W        W85095  18.305   3.595   7.003
81028W        W85096  18.681   2.488   6.526
81029W        W85097  21.386   2.218   4.296
81030W        W85098  21.516   3.303   6.323
81031W        W85099  19.434   3.294   3.849
81032W        W85100  19.517   1.446   4.832
81033W        W85101  19.032   1.294   4.996
81034W        W85102  20.023   2.109   4.430
81035W        W85103  19.698   3.201   6.785
81036W        W85104  18.347   0.762   6.748
81037W        W85105  19.109   0.042   6.550
81038W        W85106  20.803   0.430   5.437
81039W        W85107  20.452   1.301   4.007
81040W        W85108  21.022   0.735   7.098
81041W        W85109  18.388   0.527   6.223
81042W        W85110  18.487   3.146   7.244
81043W        W85111  20.009   2.536   3.976
81044W        W85112  18.441   1.319   5.669
81045W        W85113  19.334   1.210   6.906
81046W        W85114  21.793   1.069   5.405
81047W        W85115  21.557   2.112   6.264
81048W        W85116  19.865   1.445   5.291
81049W        W85117  20.411   2.784   5.660
81050W        W85118  18.911   2.218   5.892
81051W        W85119  18.270   1.746   5.463
81052W        W85120  19.306   1.718   6.655
81053W        W85121  21.577   1.501   6.909
81054W        W85122  19.193   2.945   5.354
81055W        W85123  20.314   2.634   6.488
81056W        W85124  19.534   1.274   5.713
81057W        W85125  19.826   2.058   5.356
81058W        W85126  20.823   2.831   7.204
81059W        W85127  19.902   2.151   7.214
81060W        W85128  19.883   1.867   6.692
81061W        W85129  18.292   1.258   7.214
81062W        W85130  21.124   2.793   6.813
81063W        W85131  18.705   0.375   4.811
81064W        W85132  19.232   2.633   5.810
81065W        W85133  21.695   2.416   5.100
81066W        W85134  21.108   0.816   5.667
81067W        W85135  21.393   0.769   3.762
81068W        W85136  21.858   1.570   6.068
81069W        W85137  19.825   3.277   5.821
81070W        W85138  21.599   2.743   4.259
81071W        W85139  18.728   3.529   4.013
81072W        W85140  19.121   3.575   4.689
81073W        W85141  18.918   0.329   6.115
81074W        W85142  21.541   1.347   6.390
81075W        W85143  20.946   1.769   4.849
81076W        W85144  20.912   1.457   3.876
81077W        W85145  20.120   2.601   6.016
81078W        W85146  19.926   0.931   5.215
81079W        W85147  20.526   3.018   6.209
81080W        W85148  21.397   1.809   4.631
81081W        W85149  20.299   0.467   4.647
81082W        W85150  18.956   3.161   4.330
81083W        W85151  18.327   0.660   4.929
81084W        W85152  21.113   1.267   5.403
81085W        W85153  18.571   2.884   5.318
81086W        W85154  19.912   3.234   4.188
81087W        W85155  21.304   1.260   3.652
81088W        W85156  18.327   3.018   5.816
81089W        W85157  19.118   2.590   6.296
81090W        W85158  19.491   1.950   4.915
81091W        W85159  19.513   0.355   6.008
81092W        W85160  21.742   0.117   5.305
81093W        W85161  18.961   1.989   3.773
81094W        W85162  18.616   1.022   3.952
81095W        W85163  18.678   2.978   4.746
81096W        W85164  19.809   2.461   4.994
81097W        W85165  21.141   3.320   6.708
81098W        W85166  20.067   0.962   4.392
81099W        W85167  21.450   3.360   5.164
81100W        W85168  21.127   1.213   6.762
81101W        W85169  21.840   2.869   4.896
81102W        W85170  20.467   2.161   6.380
81103W        W85171  18.233   1.712   4.586
81104W        W85172  19.344   2.127   6.159
81105W        W85173  20.548   1.391   4.537
81106W        W85174  20.425   1.881   4.641
81107W        W85175  18.768   1.301   6.115
81108W        W85176  18.753   1.177   7.037
81109W        W85177  18.643   0.094   5.196
81110W        W85178  20.411   0.441   5.757
81111W        W85179  20.059   0.626   6.920
81112W        W85180  20.414   0.775   4.098
81113W        W85181  21.597   3.168   6.852
81114W        W85182  20.564   0.249   6.891
81115W        W85183  21.583   2.550   7.013
81116W        W85184  21.013   0.717   6.609
81117W        W85185  20.813   0.655   4.879
81118W        W85186  21.206   1.789   7.283
81119W        W85187  18.946   3.365   5.269
81120W        W85188  19.604   1.082   4.255
81121W        W85189  19.173   0.366   6.919
81122W        W85190  21.225   0.850   4.600
81123W        W85191  21.592   1.332   4.545
81124W        W85192  19.335   3.549   7.016
81125W        W85193  19.261   0.085   4.251
81126W        W85194  21.582   0.619   5.286
81127W        W85195  21.732   2.868   3.731
81128W        W85196  18.639   2.071   5.433
81129W        W85197  20.556   0.658   3.663
81130W        W85198  21.690   2.990   5.383
81131W        W85199  21.729   0.184   6.133
81132W        W85200  20.174   1.396   6.687
81133W        W85201  20.267   2.735   4.390
81134W        W85202  20.667   2.029   7.130
81135W        W85203  20.341   0.006   5.439
81136W        W85204  18.953   0.909   5.502
81137W        W85205  18.507   2.109   6.276
81138W        W85206  20.366   3.302   4.982
81139W        W85207  21.560   0.899   5.854
81140W        W85208  20.197   3.246   6.621
81141W        W85209  21.540   2.305   3.826
81142W        W85210  19.975   1.788   4.887
81143W        W85211  21.827   0.299   6.628
81144W        W85212  19.976   2.134   6.222
81145W        W85213  20.193   1.020   5.667
81146W        W85214  21.045   1.318   4.505
81147W        W85215  21.332   1.051   4.147
81148W        W85216  21.141   3.091   4.536
81149W        W85217  20.975   2.694   5.332
81150W        W85218  20.871   1.773   4.310
81151W        W85219  20.304   1.983   5.296
81152W        W85220  21.185   1.771   5.363
81153W        W85221  18.560   0.786   5.787
81154W        W85222  21.338   1.838   6.614
81155W        W85223  21.689   3.456   5.760
81156W        W85224  19.619   2.900   5.162
81157W        W85225  20.626   3.433   6.486
81158W        W85226  20.620   0.763   6.250
81159W        W85227  19.827   3.471   6.311
81160W        W85228  21.524   0.425   4.777
81161W        W85229  21.315   1.744   6.078
81162W        W85230  18.298   1.065   6.116
81163W        W85231  21.158   0.860   5.134
81164W        W85232  21.569   1.011   6.911
81165W        W85233  20.454   2.710   5.129
81166W        W85234  19.710   3.301   4.742
81167W        W85235  18.825   0.481   4.000
81168W        W85236  19.929   0.135   5.810
81169W        W85237  18.957   3.255   3.658
81170W        W85238  19.331   1.721   4.409
81171W        W85239  19.985   2.350   6.722
81172W        W85240  19.815   0.708   4.712
81173W        W85241  21.171   0.305   5.140
81174W        W85242  20.891   3.587   5.468
81175W        W85243  20.303   3.235   5.808
81176W        W85244  19.699   2.272   5.769
81177W        W85245  21.469   2.995   5.895
81178W        W85246  19.163   0.498   4.664
81179W        W85247  19.685   2.795   5.624
81180W        W85248  19.168   0.726   3.689
81181W        W85249  19.969   1.335   6.083
81182W        W85250  20.817   0.201   5.953
81183W        W85251  18.237   2.044   5.838
81184W        W85252  19.941   1.862   3.996
81185W        W85253  19.209   0.177   3.766
81186W        W85254  19.947   1.258   4.817
81187W        W85255  20.917   0.234   6.516
81188W        W85256  19.505   2.246   6.625
81189W        W85257  20.309   2.028   6.842
81190W        W85258  20.926   2.058   6.735
81191W        W85259  20.210   0.198   7.240
81192W        W85260  19.432   0.814   5.633
81193W        W85261  18.858   0.770   5.031
81194W        W85262  18.644   3.482   4.707
81195W        W85263  19.976   2.812   6.832
81196W        W85264  19.011   2.297   4.191
81197W        W85265  20.691   1.682   5.412
81198W        W85266  20.971   1.481   5.811
81199W        W85267  20.176   2.155   5.745
81200W        W85268  20.646   2.529   3.877
81201W        W85269  20.318   0.550   5.205
81202W        W85270  21.797   0.828   4.473
81203W        W85271  18.291   3.417   6.504
81204W        W85272  18.708   2.643   6.036
81205W        W85273  18.275   3.489   4.268
81206W        W85274  20.174   0.759   6.074
81207W        W85275  19.537   2.782   3.923
81208W        W85276  21.442   3.164   4.109
81209W        W85277  20.417   1.817   4.123
81210W        W85278  19.260   1.008   4.640
81211W        W85279  20.092   0.918   3.692
81212W        W85280  20.676   2.483   6.870
81213W        W85281  21.029   0.389   4.487
81214W        W85282  18.359   0.237   3.935
81215W        W85283  19.645   2.556   6.225
81216W        W85284  19.444   2.472   5.317
81217W        W85285  19.186   2.424   3.715
81218W        W85286  18.427   2.665   4.483
81219W        W85287  18.931   1.735   6.925
81220W        W85288  19.635   0.295   7.111
81221W        W85289  20.344   0.437   6.467
81222W        W85290  19.539   0.205   4.748
81223W        W85291  20.598   0.282   4.253
81224W        W85292  18.543   0.214   5.830
81225W        W85293  18.591   1.177   5.200
81226W        W85294  21.280   0.285   5.606
81227W        W85295  18.702   0.783   4.420
81228W        W85296  21.273   0.471   6.036
81229W        W85297  21.669   1.674   3.721
81230W        W85298  18.961   0.432   5.540
81231W        W85299  20.075   1.004   6.480
81232W        W85300  18.223   0.694   3.958
81233W        W85301  19.009   2.083   6.519
81234W        W85302  20.367   1.481   5.698
81235W        W85303  20.234   3.560   3.994
81236W        W85304  18.380   2.067   3.691
81237W        W85305  19.115   2.478   6.817
81238W        W85306  18.636   1.645   6.448
81239W        W85307  19.627   1.750   6.242
81240W        W85308  21.395   0.109   6.504
81241W        W85309  21.793   1.719   6.495
81242W        W85310  21.781   1.919   4.181
81243W        W85311  20.644   2.251   4.280
81244W        W85312  21.118   3.551   3.975
81245W        W85313  20.295   1.541   7.117
81246W        W85314  18.625   2.508   7.157
81247W        W85315  21.831   0.430   7.109
81248W        W85316  21.549   1.358   5.730
81249W        W85317  19.857   3.488   7.207
81250W        W85318  19.712   0.117   3.934
81251W        W85319  21.251   2.716   3.877
81252W        W85320  19.020   0.809   6.763
81253W        W85321  19.454   2.803   6.625
81254W        W85322  21.580   0.794   6.423
81255W        W85323  20.791   3.453   4.391
81256W        W85324  21.030   2.072   5.758
81257W        W85325  19.280   0.488   6.425
81258W        W85326  19.749   1.557   7.182
81259W        W85327  19.252   2.736   4.376
81260W        W85328  21.007   2.234   4.640
81261W        W85329  18.775   0.860   6.364
81262W        W85330  20.104   2.922   4.828
81263W        W85331  21.854   1.482   5.009
81264W        W85332  20.076   0.115   6.728
81265W        W85333  20.856   2.820   5.807
81266W        W85334  21.159   3.164   5.515
81267W        W85335  20.378   2.966   3.943
81268W        W85336  18.388   2.858   6.785
81269W        W85337  19.131   0.850   6.023
81270W        W85338  19.101   0.198   5.133
81271W        W85339  20.722   1.040   5.825
81272W        W85340  19.520   2.211   4.025
81273W        W85341  21.518   2.153   5.524
81274W        W85342  18.845   2.911   6.947
81275W        W85343  21.232   3.593   4.744
81276W        W85344  19.331   0.613   5.189
81277W        W85345  19.100   2.106   5.279
81278W        W85346  19.413   3.517   6.029
81279W        W85347  21.480   3.613   7.061
81280W        W85348  20.639   1.801   5.994
81281W        W85349  18.488   1.599   3.909
81282W        W85350  21.622   3.257   4.606
81283W        W85351  21.459   0.581   4.225
81284W        W85352  19.598   0.100   6.628
81285W        W85353  21.304   2.902   5.086
81286W        W85354  21.333   1.458   4.991
81287W        W85355  19.450   1.131   5.207
81288W        W85356  19.695   1.393   6.531
81289W        W85357  20.806   2.546   6.394
81290W        W85358  19.456   1.000   6.506
81291W        W85359  19.435   3.466   5.122
81292W        W85360  18.752   3.425   6.756
81293W        W85361  18.864   2.786   3.886
81294W        W85362  21.381   2.544   4.696
81295W        W85363  18.985   1.336   6.582
81296W        W85364  21.758   1.266   4.063
81297W        W85365  19.503   2.323   4.534
81298W        W85366  20.602   1.705   6.615
81299W        W85367  20.493   1.333   6.159
81300W        W85368  19.053   1.705   6.188
81301W        W85369  21.263   3.593   6.017
81302W        W85370  21.054   0.227   7.011
81303W        W85371  18.718   0.377   6.598
81304W        W85372  19.057   1.400   5.651
81305W        W85373  19.426   1.214   3.773
81306W        W85374  18.229   2.973   6.318
81307W        W85375  19.814   1.682   5.761
81308W        W85376  19.637   0.707   3.866
81309W        W85377  18.772   1.523   4.647
81310W        W85378  18.543   3.375   6.084
81311W        W85379  21.338   1.601   4.192
81312W        W85380  21.433   0.517   6.878
81313W        W85381  20.869   2.726   4.841
81314W        W85382  18.467   1.650   7.018
81315W        W85383  21.433   0.114   4.314
81316W        W85384  20.953   2.589   4.325
81317W        W85385  19.855   1.647   4.410
81318W        W85386  21.042   0.451   3.933
81319W        W85387  21.107   1.058   6.119
81320W        W85388  18.816   1.651   5.326
81321W        W85389  19.110   2.590   4.975
81322W        W85390  20.873   1.210   4.940
81323W        W85391  19.896   0.589   5.636
81324W        W85392  21.858   2.500   6.147
81325W        W85393  21.776   0.487   5.708
81326W        W85394  18.315   3.317   5.084
81327W        W85395  18.824   2.504   4.620
81328W        W85396  18.739   0.121   7.173
81329W        W85397  19.858   2.974   7.275
81330W        W85398  21.613   1.942   5.065
81331W        W85399  20.967   2.119   3.945
81332W        W85400  20.262   3.640   6.157
81333W        W85401  21.119   2.362   7.194
81334W        W85402  19.934   0.072   4.474
81335W        W85403  20.647   0.941   5.333
81336W        W85404  18.333   2.528   5.665
81337W        W85405  19.586   0.490   4.306
81338W        W85406  19.390   1.974   7.155
81339W        W85407  20.384   0.955   4.869
81340W        W85408  20.589   2.365   5.991
81341W        W85409  18.743   2.970   6.426
81342W        W85410  19.334   2.953   7.149
81343W        W85411  19.185   0.750   4.163
81344W        W85412  20.702   0.892   4.488
81345W        W85413  20.660   3.000   6.725
81346W        W85414  19.345   1.592   5.324
81347W        W85415  19.000   3.290   6.189
81348W        W85416  21.745   3.407   3.790
81349W        W85417  18.608   2.079   6.786
81350W        W85418  20.603   2.341   5.474
81351W        W85419  19.039   1.990   4.716
81352W        W85420  19.410   2.997   6.111
81353W        W85421  19.788   0.416   5.152
81354W        W85422  18.399   2.400   4.082
81355W        W85423  19.918   1.351   3.952
81356W        W85424  18.564   1.900   4.971
81357W        W85425  19.854   0.542   6.435
81358W        W85426  21.526   0.251   3.862
81359W        W85427  21.619   1.997   6.961
81360W        W85428  20.273   3.254   7.113
81361W        W85429  21.831   2.348   6.635
81362W        W85430  21.239   3.146   7.246
81363W        W85431  18.978   3.602   5.724
81364W        W85432  21.837   2.224   4.598
81365W        W85433  20.367   1.491   5.111
81366W        W85434  20.134   0.103   5.001
81367W        W85435  19.193   3.087   4.838
81368W        W85436  19.692   0.828   6.063
81369W        W85437  19.392   0.197   5.532
81370W        W85438  18.455   3.019   4.080
81371W        W85439  20.271   2.383   4.798
81372W        W85440  19.146   3.178   6.677
81373W        W85441  18.623   2.001   4.373
81374W        W85442  18.508   0.544   5.372
81375W        W85443  20.056   2.509   5.429
81376W        W85444  18.308   0.363   4.449
81377W        W85445  20.972   1.569   6.376
81378W        W85446  20.849   0.955   3.948
81379W        W85447  21.366   2.627   5.596
81380W        W85448  20.027   3.111   5.427
81381W        W85449  19.439   3.215   4.338
81382W        W85450  20.721   0.118   3.768
81383W        W85451  18.521   3.378   5.509
81384W        W85452  20.718   1.136   7.144
81385W        W85453  18.701   0.666   7.143
81386W        W85454  18.432   1.266   4.476
81387W        W85455  19.123   1.255   4.201
81388W        W85456  20.886   1.582   7.018
81389W        W85457  19.229   1.863   5.727
81390W        W85458  20.703   0.149   4.847
81391W        W85459  19.834   3.580   5.350
81392W        W85460  21.048   3.042   6.287
81393W        W85461  20.632   3.191   5.398
81394W        W85462  20.651   2.171   4.992
81395W        W85463  20.113   0.396   4.063
81396W        W85464  21.794   0.024   4.785
81397W        W85465  19.482   1.659   3.948
81398W        W85466  21.648   0.996   4.938
81399W        W85467  20.340   2.166   3.815
81400W        W85468  21.276   2.366   6.563
81401W        W85469  20.930   3.067   4.030
81402W        W85470  19.545   0.742   6.936
81403W        W85471  19.365   1.326   6.177
81404W        W85472  21.457   2.821   6.454
81405W        W85473  20.557   0.771   6.831
81406W        W85474  18.401   1.242   6.608
81407W        W85475  20.161   1.719   6.334
81408W        W85476  18.518   2.477   4.991
81409W        W85477  18.665   1.774   5.881
81410W        W85478  20.982   2.060   6.231
81411W        W85479  20.754   3.440   7.042
81412W        W85480  20.650   1.179   6.595
81413W        W85481  20.927   3.233   5.000
81414W        W85482  19.929   2.953   6.323
81415W        W85483  19.414   3.308   5.592
81416W        W85484  21.219   2.479   6.011
81417W        W85485  20.269   2.551   7.148
81418W        W85486  18.874   2.504   5.487
81419W        W85487  21.220   2.263   5.132
81420W        W85488  20.861   3.329   5.883
81421W        W85489  18.839   3.058   5.753
81422W        W85490  19.860   1.110   6.963
81423W        W85491  20.311   3.276   4.474
81424W        W85492  19.619   2.531   7.112
81425W        W85493  19.745   2.769   4.489
81426W        W85494  18.966   1.509   3.748
81427W        W85495  18.305   3.595  10.648
81428W        W85496  18.681   2.488  10.171
81429W        W85497  21.386   2.218   7.941
81430W        W85498  21.516   3.303   9.968
81431W        W85499  19.434   3.294   7.494
81432W        W85500  19.517   1.446   8.477
81433W        W85501  19.032   1.294   8.641
81434W        W85502  20.023   2.109   8.075
81435W        W85503  19.698   3.201  10.430
81436W        W85504  18.347   0.762  10.393
81437W        W85505  19.109   0.042  10.195
81438W        W85506  20.803   0.430   9.082
81439W        W85507  20.452   1.301   7.652
81440W        W85508  21.022   0.735  10.743
81441W        W85509  18.388   0.527   9.868
81442W        W85510  18.487   3.146  10.889
81443W        W85511  20.009   2.536   7.621
81444W        W85512  18.441   1.319   9.314
81445W        W85513  19.334   1.210  10.551
81446W        W85514  21.793   1.069   9.050
81447W        W85515  21.557   2.112   9.909
81448W        W85516  19.865   1.445   8.936
81449W        W85517  20.411   2.784   9.305
81450W        W85518  18.911   2.218   9.537
81451W        W85519  18.270   1.746   9.108
81452W        W85520  19.306   1.718  10.300
81453W        W85521  21.577   1.501  10.554
81454W        W85522  19.193   2.945   8.999
81455W        W85523  20.314   2.634  10.133
81456W        W85524  19.534   1.274   9.358
81457W        W85525  19.826   2.058   9.001
81458W        W85526  20.823   2.831  10.849
81459W        W85527  19.902   2.151  10.859
81460W        W85528  19.883   1.867  10.337
81461W        W85529  18.292   1.258  10.859
81462W        W85530  21.124   2.793  10.458
81463W        W85531  18.705   0.375   8.456
81464W        W85532  19.232   2.633   9.455
81465W        W85533  21.695   2.416   8.745
81466W        W85534  21.108   0.816   9.312
81467W        W85535  21.393   0.769   7.407
81468W        W85536  21.858   1.570   9.713
81469W        W85537  19.825   3.277   9.466
81470W        W85538  21.599   2.743   7.904
81471W        W85539  18.728   3.529   7.658
81472W        W85540  19.121   3.575   8.334
81473W        W85541  18.918   0.329   9.760
81474W        W85542  21.541   1.347  10.035
81475W        W85543  20.946   1.769   8.494
81476W        W85544  20.912   1.457   7.521
81477W        W85545  20.120   2.601   9.661
81478W        W85546  19.926   0.931   8.860
81479W        W85547  20.526   3.018   9.854
81480W        W85548  21.397   1.809   8.276
81481W        W85549  20.299   0.467   8.292
81482W        W85550  18.956   3.161   7.975
81483W        W85551  18.327   0.660   8.574
81484W        W85552  21.113   1.267   9.048
81485W        W85553  18.571   2.884   8.963
81486W        W85554  19.912   3.234   7.833
81487W        W85555  21.304   1.260   7.297
81488W        W85556  18.327   3.018   9.461
81489W        W85557  19.118   2.590   9.941
81490W        W85558  19.491   1.950   8.560
81491W        W85559  19.513   0.355   9.653
81492W        W85560  21.742   0.117   8.950
81493W        W85561  18.961   1.989   7.418
81494W        W85562  18.616   1.022   7.597
81495W        W85563  18.678   2.978   8.391
81496W        W85564  19.809   2.461   8.639
81497W        W85565  21.141   3.320  10.353
81498W        W85566  20.067   0.962   8.037
81499W        W85567  21.450   3.360   8.809
81500W        W85568  21.127   1.213  10.407
81501W        W85569  21.840   2.869   8.541
81502W        W85570  20.467   2.161  10.025
81503W        W85571  18.233   1.712   8.231
81504W        W85572  19.344   2.127   9.804
81505W        W85573  20.548   1.391   8.182
81506W        W85574  20.425   1.881   8.286
81507W        W85575  18.768   1.301   9.760
81508W        W85576  18.753   1.177  10.682
81509W        W85577  18.643   0.094   8.841
81510W        W85578  20.411   0.441   9.402
81511W        W85579  20.059   0.626  10.565
81512W        W85580  20.414   0.775   7.743
81513W        W85581  21.597   3.168  10.497
81514W        W85582  20.564   0.249  10.536
81515W        W85583  21.583   2.550  10.658
81516W        W85584  21.013   0.717  10.254
81517W        W85585  20.813   0.655   8.524
81518W        W85586  21.206   1.789  10.928
81519W        W85587  18.946   3.365   8.914
81520W        W85588  19.604   1.082   7.900
81521W        W85589  19.173   0.366  10.564
81522W        W85590  21.225   0.850   8.245
81523W        W85591  21.592   1.332   8.190
81524W        W85592  19.335   3.549  10.661
81525W        W85593  19.261   0.085   7.896
81526W        W85594  21.582   0.619   8.931
81527W        W85595  21.732   2.868   7.376
81528W        W85596  18.639   2.071   9.078
81529W        W85597  20.556   0.658   7.308
81530W        W85598  21.690   2.990   9.028
81531W        W85599  21.729   0.184   9.778
81532W        W85600  20.174   1.396  10.332
81533W        W85601  20.267   2.735   8.035
81534W        W85602  20.667   2.029  10.775
81535W        W85603  20.341   0.006   9.084
81536W        W85604  18.953   0.909   9.147
81537W        W85605  18.507   2.109   9.921
81538W        W85606  20.366   3.302   8.627
81539W        W85607  21.560   0.899   9.499
81540W        W85608  20.197   3.246  10.266
81541W        W85609  21.540   2.305   7.471
81542W        W85610  19.975   1.788   8.532
81543W        W85611  21.827   0.299  10.273
81544W        W85612  19.976   2.134   9.867
81545W        W85613  20.193   1.020   9.312
81546W        W85614  21.045   1.318   8.150
81547W        W85615  21.332   1.051   7.792
81548W        W85616  21.141   3.091   8.181
81549W        W85617  20.975   2.694   8.977
81550W        W85618  20.871   1.773   7.955
81551W        W85619  20.304   1.983   8.941
81552W        W85620  21.185   1.771   9.008
81553W        W85621  18.560   0.786   9.432
81554W        W85622  21.338   1.838  10.259
81555W        W85623  21.689   3.456   9.405
81556W        W85624  19.619   2.900   8.807
81557W        W85625  20.626   3.433  10.131
81558W        W85626  20.620   0.763   9.895
81559W        W85627  19.827   3.471   9.956
81560W        W85628  21.524   0.425   8.422
81561W        W85629  21.315   1.744   9.723
81562W        W85630  18.298   1.065   9.761
81563W        W85631  21.158   0.860   8.779
81564W        W85632  21.569   1.011  10.556
81565W        W85633  20.454   2.710   8.774
81566W        W85634  19.710   3.301   8.387
81567W        W85635  18.825   0.481   7.645
81568W        W85636  19.929   0.135   9.455
81569W        W85637  18.957   3.255   7.303
81570W        W85638  19.331   1.721   8.054
81571W        W85639  19.985   2.350  10.367
81572W        W85640  19.815   0.708   8.357
81573W        W85641  21.171   0.305   8.785
81574W        W85642  20.891   3.587   9.113
81575W        W85643  20.303   3.235   9.453
81576W        W85644  19.699   2.272   9.414
81577W        W85645  21.469   2.995   9.540
81578W        W85646  19.163   0.498   8.309
81579W        W85647  19.685   2.795   9.269
81580W        W85648  19.168   0.726   7.334
81581W        W85649  19.969   1.335   9.728
81582W        W85650  20.817   0.201   9.598
81583W        W85651  18.237   2.044   9.483
81584W        W85652  19.941   1.862   7.641
81585W        W85653  19.209   0.177   7.411
81586W        W85654  19.947   1.258   8.462
81587W        W85655  20.917   0.234  10.161
81588W        W85656  19.505   2.246  10.270
81589W        W85657  20.309   2.028  10.487
81590W        W85658  20.926   2.058  10.380
81591W        W85659  20.210   0.198  10.885
81592W        W85660  19.432   0.814   9.278
81593W        W85661  18.858   0.770   8.676
81594W        W85662  18.644   3.482   8.352
81595W        W85663  19.976   2.812  10.477
81596W        W85664  19.011   2.297   7.836
81597W        W85665  20.691   1.682   9.057
81598W        W85666  20.971   1.481   9.456
81599W        W85667  20.176   2.155   9.390
81600W        W85668  20.646   2.529   7.522
81601W        W85669  20.318   0.550   8.850
81602W        W85670  21.797   0.828   8.118
81603W        W85671  18.291   3.417  10.149
81604W        W85672  18.708   2.643   9.681
81605W        W85673  18.275   3.489   7.913
81606W        W85674  20.174   0.759   9.719
81607W        W85675  19.537   2.782   7.568
81608W        W85676  21.442   3.164   7.754
81609W        W85677  20.417   1.817   7.768
81610W        W85678  19.260   1.008   8.285
81611W        W85679  20.092   0.918   7.337
81612W        W85680  20.676   2.483  10.515
81613W        W85681  21.029   0.389   8.132
81614W        W85682  18.359   0.237   7.580
81615W        W85683  19.645   2.556   9.870
81616W        W85684  19.444   2.472   8.962
81617W        W85685  19.186   2.424   7.360
81618W        W85686  18.427   2.665   8.128
81619W        W85687  18.931   1.735  10.570
81620W        W85688  19.635   0.295  10.756
81621W        W85689  20.344   0.437  10.112
81622W        W85690  19.539   0.205   8.393
81623W        W85691  20.598   0.282   7.898
81624W        W85692  18.543   0.214   9.475
81625W        W85693  18.591   1.177   8.845
81626W        W85694  21.280   0.285   9.251
81627W        W85695  18.702   0.783   8.065
81628W        W85696  21.273   0.471   9.681
81629W        W85697  21.669   1.674   7.366
81630W        W85698  18.961   0.432   9.185
81631W        W85699  20.075   1.004  10.125
81632W        W85700  18.223   0.694   7.603
81633W        W85701  19.009   2.083  10.164
81634W        W85702  20.367   1.481   9.343
81635W        W85703  20.234   3.560   7.639
81636W        W85704  18.380   2.067   7.336
81637W        W85705  19.115   2.478  10.462
81638W        W85706  18.636   1.645  10.093
81639W        W85707  19.627   1.750   9.887
81640W        W85708  21.395   0.109  10.149
81641W        W85709  21.793   1.719  10.140
81642W        W85710  21.781   1.919   7.826
81643W        W85711  20.644   2.251   7.925
81644W        W85712  21.118   3.551   7.620
81645W        W85713  20.295   1.541  10.762
81646W        W85714  18.625   2.508  10.802
81647W        W85715  21.831   0.430  10.754
81648W        W85716  21.549   1.358   9.375
81649W        W85717  19.857   3.488  10.852
81650W        W85718  19.712   0.117   7.579
81651W        W85719  21.251   2.716   7.522
81652W        W85720  19.020   0.809  10.408
81653W        W85721  19.454   2.803  10.270
81654W        W85722  21.580   0.794  10.068
81655W        W85723  20.791   3.453   8.036
81656W        W85724  21.030   2.072   9.403
81657W        W85725  19.280   0.488  10.070
81658W        W85726  19.749   1.557  10.827
81659W        W85727  19.252   2.736   8.021
81660W        W85728  21.007   2.234   8.285
81661W        W85729  18.775   0.860  10.009
81662W        W85730  20.104   2.922   8.473
81663W        W85731  21.854   1.482   8.654
81664W        W85732  20.076   0.115  10.373
81665W        W85733  20.856   2.820   9.452
81666W        W85734  21.159   3.164   9.160
81667W        W85735  20.378   2.966   7.588
81668W        W85736  18.388   2.858  10.430
81669W        W85737  19.131   0.850   9.668
81670W        W85738  19.101   0.198   8.778
81671W        W85739  20.722   1.040   9.470
81672W        W85740  19.520   2.211   7.670
81673W        W85741  21.518   2.153   9.169
81674W        W85742  18.845   2.911  10.592
81675W        W85743  21.232   3.593   8.389
81676W        W85744  19.331   0.613   8.834
81677W        W85745  19.100   2.106   8.924
81678W        W85746  19.413   3.517   9.674
81679W        W85747  21.480   3.613  10.706
81680W        W85748  20.639   1.801   9.639
81681W        W85749  18.488   1.599   7.554
81682W        W85750  21.622   3.257   8.251
81683W        W85751  21.459   0.581   7.870
81684W        W85752  19.598   0.100  10.273
81685W        W85753  21.304   2.902   8.731
81686W        W85754  21.333   1.458   8.636
81687W        W85755  19.450   1.131   8.852
81688W        W85756  19.695   1.393  10.176
81689W        W85757  20.806   2.546  10.039
81690W        W85758  19.456   1.000  10.151
81691W        W85759  19.435   3.466   8.767
81692W        W85760  18.752   3.425  10.401
81693W        W85761  18.864   2.786   7.531
81694W        W85762  21.381   2.544   8.341
81695W        W85763  18.985   1.336  10.227
81696W        W85764  21.758   1.266   7.708
81697W        W85765  19.503   2.323   8.179
81698W        W85766  20.602   1.705  10.260
81699W        W85767  20.493   1.333   9.804
81700W        W85768  19.053   1.705   9.833
81701W        W85769  21.263   3.593   9.662
81702W        W85770  21.054   0.227  10.656
81703W        W85771  18.718   0.377  10.243
81704W        W85772  19.057   1.400   9.296
81705W        W85773  19.426   1.214   7.418
81706W        W85774  18.229   2.973   9.963
81707W        W85775  19.814   1.682   9.406
81708W        W85776  19.637   0.707   7.511
81709W        W85777  18.772   1.523   8.292
81710W        W85778  18.543   3.375   9.729
81711W        W85779  21.338   1.601   7.837
81712W        W85780  21.433   0.517  10.523
81713W        W85781  20.869   2.726   8.486
81714W        W85782  18.467   1.650  10.663
81715W        W85783  21.433   0.114   7.959
81716W        W85784  20.953   2.589   7.970
81717W        W85785  19.855   1.647   8.055
81718W        W85786  21.042   0.451   7.578
81719W        W85787  21.107   1.058   9.764
81720W        W85788  18.816   1.651   8.971
81721W        W85789  19.110   2.590   8.620
81722W        W85790  20.873   1.210   8.585
81723W        W85791  19.896   0.589   9.281
81724W        W85792  21.858   2.500   9.792
81725W        W85793  21.776   0.487   9.353
81726W        W85794  18.315   3.317   8.729
81727W        W85795  18.824   2.504   8.265
81728W        W85796  18.739   0.121  10.818
81729W        W85797  19.858   2.974  10.920
81730W        W85798  21.613   1.942   8.710
81731W        W85799  20.967   2.119   7.590
81732W        W85800  20.262   3.640   9.802
81733W        W85801  21.119   2.362  10.839
81734W        W85802  19.934   0.072   8.119
81735W        W85803  20.647   0.941   8.978
81736W        W85804  18.333   2.528   9.310
81737W        W85805  19.586   0.490   7.951
81738W        W85806  19.390   1.974  10.800
81739W        W85807  20.384   0.955   8.514
81740W        W85808  20.589   2.365   9.636
81741W        W85809  18.743   2.970  10.071
81742W        W85810  19.334   2.953  10.794
81743W        W85811  19.185   0.750   7.808
81744W        W85812  20.702   0.892   8.133
81745W        W85813  20.660   3.000  10.370
81746W        W85814  19.345   1.592   8.969
81747W        W85815  19.000   3.290   9.834
81748W        W85816  21.745   3.407   7.435
81749W        W85817  18.608   2.079  10.431
81750W        W85818  20.603   2.341   9.119
81751W        W85819  19.039   1.990   8.361
81752W        W85820  19.410   2.997   9.756
81753W        W85821  19.788   0.416   8.797
81754W        W85822  18.399   2.400   7.727
81755W        W85823  19.918   1.351   7.597
81756W        W85824  18.564   1.900   8.616
81757W        W85825  19.854   0.542  10.080
81758W        W85826  21.526   0.251   7.507
81759W        W85827  21.619   1.997  10.606
81760W        W85828  20.273   3.254  10.758
81761W        W85829  21.831   2.348  10.280
81762W        W85830  21.239   3.146  10.891
81763W        W85831  18.978   3.602   9.369
81764W        W85832  21.837   2.224   8.243
81765W        W85833  20.367   1.491   8.756
81766W        W85834  20.134   0.103   8.646
81767W        W85835  19.193   3.087   8.483
81768W        W85836  19.692   0.828   9.708
81769W        W85837  19.392   0.197   9.177
81770W        W85838  18.455   3.019   7.725
81771W        W85839  20.271   2.383   8.443
81772W        W85840  19.146   3.178  10.322
81773W        W85841  18.623   2.001   8.018
81774W        W85842  18.508   0.544   9.017
81775W        W85843  20.056   2.509   9.074
81776W        W85844  18.308   0.363   8.094
81777W        W85845  20.972   1.569  10.021
81778W        W85846  20.849   0.955   7.593
81779W        W85847  21.366   2.627   9.241
81780W        W85848  20.027   3.111   9.072
81781W        W85849  19.439   3.215   7.983
81782W        W85850  20.721   0.118   7.413
81783W        W85851  18.521   3.378   9.154
81784W        W85852  20.718   1.136  10.789
81785W        W85853  18.701   0.666  10.788
81786W        W85854  18.432   1.266   8.121
81787W        W85855  19.123   1.255   7.846
81788W        W85856  20.886   1.582  10.663
81789W        W85857  19.229   1.863   9.372
81790W        W85858  20.703   0.149   8.492
81791W        W85859  19.834   3.580   8.995
81792W        W85860  21.048   3.042   9.932
81793W        W85861  20.632   3.191   9.043
81794W        W85862  20.651   2.171   8.637
81795W        W85863  20.113   0.396   7.708
81796W        W85864  21.794   0.024   8.430
81797W        W85865  19.482   1.659   7.593
81798W        W85866  21.648   0.996   8.583
81799W        W85867  20.340   2.166   7.460
81800W        W85868  21.276   2.366  10.208
81801W        W85869  20.930   3.067   7.675
81802W        W85870  19.545   0.742  10.581
81803W        W85871  19.365   1.326   9.822
81804W        W85872  21.457   2.821  10.099
81805W        W85873  20.557   0.771  10.476
81806W        W85874  18.401   1.242  10.253
81807W        W85875  20.161   1.719   9.979
81808W        W85876  18.518   2.477   8.636
81809W        W85877  18.665   1.774   9.526
81810W        W85878  20.982   2.060   9.876
81811W        W85879  20.754   3.440  10.687
81812W        W85880  20.650   1.179  10.240
81813W        W85881  20.927   3.233   8.645
81814W        W85882  19.929   2.953   9.968
81815W        W85883  19.414   3.308   9.237
81816W        W85884  21.219   2.479   9.656
81817W        W85885  20.269   2.551  10.793
81818W        W85886  18.874   2.504   9.132
81819W        W85887  21.220   2.263   8.777
81820W        W85888  20.861   3.329   9.528
81821W        W85889  18.839   3.058   9.398
81822W        W85890  19.860   1.110  10.608
81823W        W85891  20.311   3.276   8.119
81824W        W85892  19.619   2.531  10.757
81825W        W85893  19.745   2.769   8.134
81826W        W85894  18.966   1.509   7.393
81827W        W85895  18.305   3.595  14.292
81828W        W85896  18.681   2.488  13.815
81829W        W85897  21.386   2.218  11.585
81830W        W85898  21.516   3.303  13.612
81831W        W85899  19.434   3.294  11.138
81832W        W85900  19.517   1.446  12.121
81833W        W85901  19.032   1.294  12.285
81834W        W85902  20.023   2.109  11.719
81835W        W85903  19.698   3.201  14.074
81836W        W85904  18.347   0.762  14.037
81837W        W85905  19.109   0.042  13.839
81838W        W85906  20.803   0.430  12.726
81839W        W85907  20.452   1.301  11.296
81840W        W85908  21.022   0.735  14.387
81841W        W85909  18.388   0.527  13.512
81842W        W85910  18.487   3.146  14.533
81843W        W85911  20.009   2.536  11.265
81844W        W85912  18.441   1.319  12.958
81845W        W85913  19.334   1.210  14.195
81846W        W85914  21.793   1.069  12.694
81847W        W85915  21.557   2.112  13.553
81848W        W85916  19.865   1.445  12.580
81849W        W85917  20.411   2.784  12.949
81850W        W85918  18.911   2.218  13.181
81851W        W85919  18.270   1.746  12.752
81852W        W85920  19.306   1.718  13.944
81853W        W85921  21.577   1.501  14.198
81854W        W85922  19.193   2.945  12.643
81855W        W85923  20.314   2.634  13.777
81856W        W85924  19.534   1.274  13.002
81857W        W85925  19.826   2.058  12.645
81858W        W85926  20.823   2.831  14.493
81859W        W85927  19.902   2.151  14.503
81860W        W85928  19.883   1.867  13.981
81861W        W85929  18.292   1.258  14.503
81862W        W85930  21.124   2.793  14.102
81863W        W85931  18.705   0.375  12.100
81864W        W85932  19.232   2.633  13.099
81865W        W85933  21.695   2.416  12.389
81866W        W85934  21.108   0.816  12.956
81867W        W85935  21.393   0.769  11.051
81868W        W85936  21.858   1.570  13.357
81869W        W85937  19.825   3.277  13.110
81870W        W85938  21.599   2.743  11.548
81871W        W85939  18.728   3.529  11.302
81872W        W85940  19.121   3.575  11.978
81873W        W85941  18.918   0.329  13.404
81874W        W85942  21.541   1.347  13.679
81875W        W85943  20.946   1.769  12.138
81876W        W85944  20.912   1.457  11.165
81877W        W85945  20.120   2.601  13.305
81878W        W85946  19.926   0.931  12.504
81879W        W85947  20.526   3.018  13.498
81880W        W85948  21.397   1.809  11.920
81881W        W85949  20.299   0.467  11.936
81882W        W85950  18.956   3.161  11.619
81883W        W85951  18.327   0.660  12.218
81884W        W85952  21.113   1.267  12.692
81885W        W85953  18.571   2.884  12.607
81886W        W85954  19.912   3.234  11.477
81887W        W85955  21.304   1.260  10.941
81888W        W85956  18.327   3.018  13.105
81889W        W85957  19.118   2.590  13.585
81890W        W85958  19.491   1.950  12.204
81891W        W85959  19.513   0.355  13.297
81892W        W85960  21.742   0.117  12.594
81893W        W85961  18.961   1.989  11.062
81894W        W85962  18.616   1.022  11.241
81895W        W85963  18.678   2.978  12.035
81896W        W85964  19.809   2.461  12.283
81897W        W85965  21.141   3.320  13.997
81898W        W85966  20.067   0.962  11.681
81899W        W85967  21.450   3.360  12.453
81900W        W85968  21.127   1.213  14.051
81901W        W85969  21.840   2.869  12.185
81902W        W85970  20.467   2.161  13.669
81903W        W85971  18.233   1.712  11.875
81904W        W85972  19.344   2.127  13.448
81905W        W85973  20.548   1.391  11.826
81906W        W85974  20.425   1.881  11.930
81907W        W85975  18.768   1.301  13.404
81908W        W85976  18.753   1.177  14.326
81909W        W85977  18.643   0.094  12.485
81910W        W85978  20.411   0.441  13.046
81911W        W85979  20.059   0.626  14.209
81912W        W85980  20.414   0.775  11.387
81913W        W85981  21.597   3.168  14.141
81914W        W85982  20.564   0.249  14.180
81915W        W85983  21.583   2.550  14.302
81916W        W85984  21.013   0.717  13.898
81917W        W85985  20.813   0.655  12.168
81918W        W85986  21.206   1.789  14.572
81919W        W85987  18.946   3.365  12.558
81920W        W85988  19.604   1.082  11.544
81921W        W85989  19.173   0.366  14.208
81922W        W85990  21.225   0.850  11.889
81923W        W85991  21.592   1.332  11.834
81924W        W85992  19.335   3.549  14.305
81925W        W85993  19.261   0.085  11.540
81926W        W85994  21.582   0.619  12.575
81927W        W85995  21.732   2.868  11.020
81928W        W85996  18.639   2.071  12.722
81929W        W85997  20.556   0.658  10.952
81930W        W85998  21.690   2.990  12.672
81931W        W85999  21.729   0.184  13.422
81932W        W86000  20.174   1.396  13.976
81933W        W86001  20.267   2.735  11.679
81934W        W86002  20.667   2.029  14.419
81935W        W86003  20.341   0.006  12.728
81936W        W86004  18.953   0.909  12.791
81937W        W86005  18.507   2.109  13.565
81938W        W86006  20.366   3.302  12.271
81939W        W86007  21.560   0.899  13.143
81940W        W86008  20.197   3.246  13.910
81941W        W86009  21.540   2.305  11.115
81942W        W86010  19.975   1.788  12.176
81943W        W86011  21.827   0.299  13.917
81944W        W86012  19.976   2.134  13.511
81945W        W86013  20.193   1.020  12.956
81946W        W86014  21.045   1.318  11.794
81947W        W86015  21.332   1.051  11.436
81948W        W86016  20.975   2.694  12.621
81949W        W86017  20.871   1.773  11.599
81950W        W86018  20.304   1.983  12.585
81951W        W86019  21.185   1.771  12.652
81952W        W86020  18.560   0.786  13.076
81953W        W86021  21.338   1.838  13.903
81954W        W86022  21.689   3.456  13.049
81955W        W86023  19.619   2.900  12.451
81956W        W86024  20.626   3.433  13.775
81957W        W86025  20.620   0.763  13.539
81958W        W86026  19.827   3.471  13.600
81959W        W86027  21.524   0.425  12.066
81960W        W86028  21.315   1.744  13.367
81961W        W86029  18.298   1.065  13.405
81962W        W86030  21.158   0.860  12.423
81963W        W86031  21.569   1.011  14.200
81964W        W86032  20.454   2.710  12.418
81965W        W86033  19.710   3.301  12.031
81966W        W86034  18.825   0.481  11.289
81967W        W86035  19.929   0.135  13.099
81968W        W86036  18.957   3.255  10.947
81969W        W86037  19.331   1.721  11.698
81970W        W86038  19.985   2.350  14.011
81971W        W86039  19.815   0.708  12.001
81972W        W86040  21.171   0.305  12.429
81973W        W86041  20.891   3.587  12.757
81974W        W86042  20.303   3.235  13.097
81975W        W86043  19.699   2.272  13.058
81976W        W86044  21.469   2.995  13.184
81977W        W86045  19.163   0.498  11.953
81978W        W86046  19.685   2.795  12.913
81979W        W86047  19.168   0.726  10.978
81980W        W86048  19.969   1.335  13.372
81981W        W86049  20.817   0.201  13.242
81982W        W86050  18.237   2.044  13.127
81983W        W86051  19.941   1.862  11.285
81984W        W86052  19.209   0.177  11.055
81985W        W86053  19.947   1.258  12.106
81986W        W86054  20.917   0.234  13.805
81987W        W86055  19.505   2.246  13.914
81988W        W86056  20.309   2.028  14.131
81989W        W86057  20.926   2.058  14.024
81990W        W86058  20.210   0.198  14.529
81991W        W86059  19.432   0.814  12.922
81992W        W86060  18.858   0.770  12.320
81993W        W86061  18.644   3.482  11.996
81994W        W86062  19.011   2.297  11.480
81995W        W86063  20.691   1.682  12.701
81996W        W86064  20.971   1.481  13.100
81997W        W86065  20.176   2.155  13.034
81998W        W86066  20.646   2.529  11.166
81999W        W86067  20.318   0.550  12.494
82000W        W86068  21.797   0.828  11.762
82001W        W86069  18.291   3.417  13.793
82002W        W86070  18.708   2.643  13.325
82003W        W86071  18.275   3.489  11.557
82004W        W86072  20.174   0.759  13.363
82005W        W86073  19.537   2.782  11.212
82006W        W86074  21.442   3.164  11.398
82007W        W86075  20.417   1.817  11.412
82008W        W86076  19.260   1.008  11.929
82009W        W86077  20.092   0.918  10.981
82010W        W86078  20.676   2.483  14.159
82011W        W86079  21.029   0.389  11.776
82012W        W86080  18.359   0.237  11.224
82013W        W86081  19.645   2.556  13.514
82014W        W86082  19.444   2.472  12.606
82015W        W86083  19.186   2.424  11.004
82016W        W86084  18.427   2.665  11.772
82017W        W86085  18.931   1.735  14.214
82018W        W86086  19.635   0.295  14.400
82019W        W86087  20.344   0.437  13.756
82020W        W86088  19.539   0.205  12.037
82021W        W86089  20.598   0.282  11.542
82022W        W86090  18.543   0.214  13.119
82023W        W86091  18.591   1.177  12.489
82024W        W86092  21.280   0.285  12.895
82025W        W86093  18.702   0.783  11.709
82026W        W86094  21.273   0.471  13.325
82027W        W86095  21.669   1.674  11.010
82028W        W86096  18.961   0.432  12.829
82029W        W86097  20.075   1.004  13.769
82030W        W86098  18.223   0.694  11.247
82031W        W86099  19.009   2.083  13.808
82032W        W86100  20.367   1.481  12.987
82033W        W86101  20.234   3.560  11.283
82034W        W86102  18.380   2.067  10.980
82035W        W86103  19.115   2.478  14.106
82036W        W86104  18.636   1.645  13.737
82037W        W86105  19.627   1.750  13.531
82038W        W86106  21.395   0.109  13.793
82039W        W86107  21.793   1.719  13.784
82040W        W86108  21.781   1.919  11.470
82041W        W86109  20.644   2.251  11.569
82042W        W86110  20.295   1.541  14.406
82043W        W86111  18.625   2.508  14.446
82044W        W86112  21.831   0.430  14.398
82045W        W86113  21.549   1.358  13.019
82046W        W86114  19.857   3.488  14.496
82047W        W86115  19.712   0.117  11.223
82048W        W86116  19.020   0.809  14.052
82049W        W86117  19.454   2.803  13.914
82050W        W86118  21.580   0.794  13.712
82051W        W86119  21.030   2.072  13.047
82052W        W86120  19.280   0.488  13.714
82053W        W86121  19.749   1.557  14.471
82054W        W86122  19.252   2.736  11.665
82055W        W86123  21.007   2.234  11.929
82056W        W86124  18.775   0.860  13.653
82057W        W86125  20.104   2.922  12.117
82058W        W86126  21.854   1.482  12.298
82059W        W86127  20.076   0.115  14.017
82060W        W86128  20.856   2.820  13.096
82061W        W86129  21.159   3.164  12.804
82062W        W86130  20.378   2.966  11.232
82063W        W86131  18.388   2.858  14.074
82064W        W86132  19.131   0.850  13.312
82065W        W86133  19.101   0.198  12.422
82066W        W86134  20.722   1.040  13.114
82067W        W86135  19.520   2.211  11.314
82068W        W86136  21.518   2.153  12.813
82069W        W86137  18.845   2.911  14.236
82070W        W86138  21.232   3.593  12.033
82071W        W86139  19.331   0.613  12.478
82072W        W86140  19.100   2.106  12.568
82073W        W86141  19.413   3.517  13.318
82074W        W86142  21.480   3.613  14.350
82075W        W86143  20.639   1.801  13.283
82076W        W86144  18.488   1.599  11.198
82077W        W86145  21.622   3.257  11.895
82078W        W86146  21.459   0.581  11.514
82079W        W86147  19.598   0.100  13.917
82080W        W86148  21.304   2.902  12.375
82081W        W86149  21.333   1.458  12.280
82082W        W86150  19.450   1.131  12.496
82083W        W86151  19.695   1.393  13.820
82084W        W86152  20.806   2.546  13.683
82085W        W86153  19.456   1.000  13.795
82086W        W86154  19.435   3.466  12.411
82087W        W86155  18.752   3.425  14.045
82088W        W86156  18.864   2.786  11.175
82089W        W86157  21.381   2.544  11.985
82090W        W86158  18.985   1.336  13.871
82091W        W86159  21.758   1.266  11.352
82092W        W86160  19.503   2.323  11.823
82093W        W86161  20.602   1.705  13.904
82094W        W86162  20.493   1.333  13.448
82095W        W86163  19.053   1.705  13.477
82096W        W86164  21.263   3.593  13.306
82097W        W86165  21.054   0.227  14.300
82098W        W86166  18.718   0.377  13.887
82099W        W86167  19.057   1.400  12.940
82100W        W86168  19.426   1.214  11.062
82101W        W86169  18.229   2.973  13.607
82102W        W86170  19.814   1.682  13.050
82103W        W86171  19.637   0.707  11.155
82104W        W86172  18.772   1.523  11.936
82105W        W86173  18.543   3.375  13.373
82106W        W86174  21.338   1.601  11.481
82107W        W86175  21.433   0.517  14.167
82108W        W86176  20.869   2.726  12.130
82109W        W86177  18.467   1.650  14.307
82110W        W86178  21.433   0.114  11.603
82111W        W86179  20.953   2.589  11.614
82112W        W86180  19.855   1.647  11.699
82113W        W86181  21.042   0.451  11.222
82114W        W86182  21.107   1.058  13.408
82115W        W86183  18.816   1.651  12.615
82116W        W86184  19.110   2.590  12.264
82117W        W86185  20.873   1.210  12.229
82118W        W86186  19.896   0.589  12.925
82119W        W86187  21.858   2.500  13.436
82120W        W86188  21.776   0.487  12.997
82121W        W86189  18.315   3.317  12.373
82122W        W86190  18.824   2.504  11.909
82123W        W86191  18.739   0.121  14.462
82124W        W86192  19.858   2.974  14.564
82125W        W86193  21.613   1.942  12.354
82126W        W86194  20.967   2.119  11.234
82127W        W86195  20.262   3.640  13.446
82128W        W86196  21.119   2.362  14.483
82129W        W86197  19.934   0.072  11.763
82130W        W86198  20.647   0.941  12.622
82131W        W86199  18.333   2.528  12.954
82132W        W86200  19.586   0.490  11.595
82133W        W86201  19.390   1.974  14.444
82134W        W86202  20.384   0.955  12.158
82135W        W86203  20.589   2.365  13.280
82136W        W86204  18.743   2.970  13.715
82137W        W86205  19.334   2.953  14.438
82138W        W86206  19.185   0.750  11.452
82139W        W86207  20.702   0.892  11.777
82140W        W86208  20.660   3.000  14.014
82141W        W86209  19.345   1.592  12.613
82142W        W86210  19.000   3.290  13.478
82143W        W86211  21.745   3.407  11.079
82144W        W86212  18.608   2.079  14.075
82145W        W86213  20.603   2.341  12.763
82146W        W86214  19.039   1.990  12.005
82147W        W86215  19.410   2.997  13.400
82148W        W86216  19.788   0.416  12.441
82149W        W86217  18.399   2.400  11.371
82150W        W86218  19.918   1.351  11.241
82151W        W86219  18.564   1.900  12.260
82152W        W86220  19.854   0.542  13.724
82153W        W86221  21.526   0.251  11.151
82154W        W86222  21.619   1.997  14.250
82155W        W86223  20.273   3.254  14.402
82156W        W86224  21.831   2.348  13.924
82157W        W86225  21.239   3.146  14.535
82158W        W86226  18.978   3.602  13.013
82159W        W86227  21.837   2.224  11.887
82160W        W86228  20.367   1.491  12.400
82161W        W86229  20.134   0.103  12.290
82162W        W86230  19.193   3.087  12.127
82163W        W86231  19.692   0.828  13.352
82164W        W86232  19.392   0.197  12.821
82165W        W86233  18.455   3.019  11.369
82166W        W86234  20.271   2.383  12.087
82167W        W86235  19.146   3.178  13.966
82168W        W86236  18.623   2.001  11.662
82169W        W86237  18.508   0.544  12.661
82170W        W86238  20.056   2.509  12.718
82171W        W86239  18.308   0.363  11.738
82172W        W86240  20.972   1.569  13.665
82173W        W86241  20.849   0.955  11.237
82174W        W86242  21.366   2.627  12.885
82175W        W86243  20.027   3.111  12.716
82176W        W86244  19.439   3.215  11.627
82177W        W86245  20.721   0.118  11.057
82178W        W86246  18.521   3.378  12.798
82179W        W86247  20.718   1.136  14.433
82180W        W86248  18.701   0.666  14.432
82181W        W86249  18.432   1.266  11.765
82182W        W86250  19.123   1.255  11.490
82183W        W86251  20.886   1.582  14.307
82184W        W86252  19.229   1.863  13.016
82185W        W86253  20.703   0.149  12.136
82186W        W86254  19.834   3.580  12.639
82187W        W86255  21.048   3.042  13.576
82188W        W86256  20.632   3.191  12.687
82189W        W86257  20.651   2.171  12.281
82190W        W86258  20.113   0.396  11.352
82191W        W86259  21.794   0.024  12.074
82192W        W86260  19.482   1.659  11.237
82193W        W86261  21.648   0.996  12.227
82194W        W86262  20.340   2.166  11.104
82195W        W86263  21.276   2.366  13.852
82196W        W86264  20.930   3.067  11.319
82197W        W86265  19.545   0.742  14.225
82198W        W86266  19.365   1.326  13.466
82199W        W86267  21.457   2.821  13.743
82200W        W86268  20.557   0.771  14.120
82201W        W86269  18.401   1.242  13.897
82202W        W86270  20.161   1.719  13.623
82203W        W86271  18.518   2.477  12.280
82204W        W86272  18.665   1.774  13.170
82205W        W86273  20.982   2.060  13.520
82206W        W86274  20.650   1.179  13.884
82207W        W86275  19.929   2.953  13.612
82208W        W86276  19.414   3.308  12.881
82209W        W86277  21.219   2.479  13.300
82210W        W86278  20.269   2.551  14.437
82211W        W86279  18.874   2.504  12.776
82212W        W86280  21.220   2.263  12.421
82213W        W86281  20.861   3.329  13.172
82214W        W86282  18.839   3.058  13.042
82215W        W86283  19.860   1.110  14.252
82216W        W86284  20.311   3.276  11.763
82217W        W86285  19.619   2.531  14.401
82218W        W86286  19.745   2.769  11.778
82219W        W86287  18.966   1.509  11.037
82220W        W86288  18.305   3.595  17.936
82221W        W86289  18.681   2.488  17.459
82222W        W86290  21.386   2.218  15.229
82223W        W86291  21.516   3.303  17.256
82224W        W86292  19.434   3.294  14.782
82225W        W86293  19.517   1.446  15.765
82226W        W86294  19.032   1.294  15.929
82227W        W86295  20.023   2.109  15.363
82228W        W86296  19.698   3.201  17.718
82229W        W86297  18.347   0.762  17.681
82230W        W86298  19.109   0.042  17.483
82231W        W86299  20.803   0.430  16.370
82232W        W86300  20.452   1.301  14.940
82233W        W86301  21.022   0.735  18.031
82234W        W86302  18.388   0.527  17.156
82235W        W86303  18.487   3.146  18.177
82236W        W86304  20.009   2.536  14.909
82237W        W86305  18.441   1.319  16.602
82238W        W86306  19.334   1.210  17.839
82239W        W86307  21.793   1.069  16.338
82240W        W86308  21.557   2.112  17.197
82241W        W86309  19.865   1.445  16.224
82242W        W86310  20.411   2.784  16.593
82243W        W86311  18.911   2.218  16.825
82244W        W86312  18.270   1.746  16.396
82245W        W86313  19.306   1.718  17.588
82246W        W86314  21.577   1.501  17.842
82247W        W86315  19.193   2.945  16.287
82248W        W86316  20.314   2.634  17.421
82249W        W86317  19.534   1.274  16.646
82250W        W86318  19.826   2.058  16.289
82251W        W86319  20.823   2.831  18.137
82252W        W86320  19.902   2.151  18.147
82253W        W86321  19.883   1.867  17.625
82254W        W86322  18.292   1.258  18.147
82255W        W86323  21.124   2.793  17.746
82256W        W86324  18.705   0.375  15.744
82257W        W86325  19.232   2.633  16.743
82258W        W86326  21.695   2.416  16.033
82259W        W86327  21.108   0.816  16.600
82260W        W86328  21.393   0.769  14.695
82261W        W86329  21.858   1.570  17.001
82262W        W86330  19.825   3.277  16.754
82263W        W86331  21.599   2.743  15.192
82264W        W86332  18.728   3.529  14.946
82265W        W86333  19.121   3.575  15.622
82266W        W86334  18.918   0.329  17.048
82267W        W86335  21.541   1.347  17.323
82268W        W86336  20.946   1.769  15.782
82269W        W86337  20.912   1.457  14.809
82270W        W86338  20.120   2.601  16.949
82271W        W86339  19.926   0.931  16.148
82272W        W86340  20.526   3.018  17.142
82273W        W86341  21.397   1.809  15.564
82274W        W86342  20.299   0.467  15.580
82275W        W86343  18.956   3.161  15.263
82276W        W86344  18.327   0.660  15.862
82277W        W86345  21.113   1.267  16.336
82278W        W86346  18.571   2.884  16.251
82279W        W86347  19.912   3.234  15.121
82280W        W86348  21.304   1.260  14.585
82281W        W86349  18.327   3.018  16.749
82282W        W86350  19.118   2.590  17.229
82283W        W86351  19.491   1.950  15.848
82284W        W86352  19.513   0.355  16.941
82285W        W86353  21.742   0.117  16.238
82286W        W86354  18.961   1.989  14.706
82287W        W86355  18.616   1.022  14.885
82288W        W86356  18.678   2.978  15.679
82289W        W86357  19.809   2.461  15.927
82290W        W86358  21.141   3.320  17.641
82291W        W86359  20.067   0.962  15.325
82292W        W86360  21.450   3.360  16.097
82293W        W86361  21.127   1.213  17.695
82294W        W86362  21.840   2.869  15.829
82295W        W86363  20.467   2.161  17.313
82296W        W86364  18.233   1.712  15.519
82297W        W86365  19.344   2.127  17.092
82298W        W86366  20.548   1.391  15.470
82299W        W86367  20.425   1.881  15.574
82300W        W86368  18.768   1.301  17.048
82301W        W86369  18.753   1.177  17.970
82302W        W86370  18.643   0.094  16.129
82303W        W86371  20.411   0.441  16.690
82304W        W86372  20.059   0.626  17.853
82305W        W86373  20.414   0.775  15.031
82306W        W86374  21.597   3.168  17.785
82307W        W86375  20.564   0.249  17.824
82308W        W86376  21.583   2.550  17.946
82309W        W86377  21.013   0.717  17.542
82310W        W86378  20.813   0.655  15.812
82311W        W86379  21.206   1.789  18.216
82312W        W86380  18.946   3.365  16.202
82313W        W86381  19.604   1.082  15.188
82314W        W86382  19.173   0.366  17.852
82315W        W86383  21.225   0.850  15.533
82316W        W86384  21.592   1.332  15.478
82317W        W86385  19.335   3.549  17.949
82318W        W86386  19.261   0.085  15.184
82319W        W86387  21.582   0.619  16.219
82320W        W86388  21.732   2.868  14.664
82321W        W86389  18.639   2.071  16.366
82322W        W86390  20.556   0.658  14.596
82323W        W86391  21.690   2.990  16.316
82324W        W86392  21.729   0.184  17.066
82325W        W86393  20.174   1.396  17.620
82326W        W86394  20.267   2.735  15.323
82327W        W86395  20.667   2.029  18.063
82328W        W86396  20.341   0.006  16.372
82329W        W86397  18.953   0.909  16.435
82330W        W86398  18.507   2.109  17.209
82331W        W86399  20.366   3.302  15.915
82332W        W86400  21.560   0.899  16.787
82333W        W86401  20.197   3.246  17.554
82334W        W86402  21.540   2.305  14.759
82335W        W86403  19.975   1.788  15.820
82336W        W86404  21.827   0.299  17.561
82337W        W86405  19.976   2.134  17.155
82338W        W86406  20.193   1.020  16.600
82339W        W86407  21.045   1.318  15.438
82340W        W86408  21.332   1.051  15.080
82341W        W86409  21.141   3.091  15.469
82342W        W86410  20.975   2.694  16.265
82343W        W86411  20.871   1.773  15.243
82344W        W86412  20.304   1.983  16.229
82345W        W86413  21.185   1.771  16.296
82346W        W86414  18.560   0.786  16.720
82347W        W86415  21.338   1.838  17.547
82348W        W86416  21.689   3.456  16.693
82349W        W86417  19.619   2.900  16.095
82350W        W86418  20.626   3.433  17.419
82351W        W86419  20.620   0.763  17.183
82352W        W86420  19.827   3.471  17.244
82353W        W86421  21.524   0.425  15.710
82354W        W86422  21.315   1.744  17.011
82355W        W86423  18.298   1.065  17.049
82356W        W86424  21.158   0.860  16.067
82357W        W86425  21.569   1.011  17.844
82358W        W86426  20.454   2.710  16.062
82359W        W86427  19.710   3.301  15.675
82360W        W86428  18.825   0.481  14.933
82361W        W86429  19.929   0.135  16.743
82362W        W86430  18.957   3.255  14.591
82363W        W86431  19.331   1.721  15.342
82364W        W86432  19.985   2.350  17.655
82365W        W86433  19.815   0.708  15.645
82366W        W86434  21.171   0.305  16.073
82367W        W86435  20.891   3.587  16.401
82368W        W86436  20.303   3.235  16.741
82369W        W86437  19.699   2.272  16.702
82370W        W86438  21.469   2.995  16.828
82371W        W86439  19.163   0.498  15.597
82372W        W86440  19.685   2.795  16.557
82373W        W86441  19.168   0.726  14.622
82374W        W86442  19.969   1.335  17.016
82375W        W86443  20.817   0.201  16.886
82376W        W86444  18.237   2.044  16.771
82377W        W86445  19.941   1.862  14.929
82378W        W86446  19.209   0.177  14.699
82379W        W86447  19.947   1.258  15.750
82380W        W86448  20.917   0.234  17.449
82381W        W86449  19.505   2.246  17.558
82382W        W86450  20.309   2.028  17.775
82383W        W86451  20.926   2.058  17.668
82384W        W86452  20.210   0.198  18.173
82385W        W86453  19.432   0.814  16.566
82386W        W86454  18.858   0.770  15.964
82387W        W86455  18.644   3.482  15.640
82388W        W86456  19.976   2.812  17.765
82389W        W86457  19.011   2.297  15.124
82390W        W86458  20.691   1.682  16.345
82391W        W86459  20.971   1.481  16.744
82392W        W86460  20.176   2.155  16.678
82393W        W86461  20.646   2.529  14.810
82394W        W86462  20.318   0.550  16.138
82395W        W86463  21.797   0.828  15.406
82396W        W86464  18.291   3.417  17.437
82397W        W86465  18.708   2.643  16.969
82398W        W86466  18.275   3.489  15.201
82399W        W86467  20.174   0.759  17.007
82400W        W86468  19.537   2.782  14.856
82401W        W86469  21.442   3.164  15.042
82402W        W86470  20.417   1.817  15.056
82403W        W86471  19.260   1.008  15.573
82404W        W86472  20.092   0.918  14.625
82405W        W86473  20.676   2.483  17.803
82406W        W86474  21.029   0.389  15.420
82407W        W86475  18.359   0.237  14.868
82408W        W86476  19.645   2.556  17.158
82409W        W86477  19.444   2.472  16.250
82410W        W86478  19.186   2.424  14.648
82411W        W86479  18.427   2.665  15.416
82412W        W86480  18.931   1.735  17.858
82413W        W86481  19.635   0.295  18.044
82414W        W86482  20.344   0.437  17.400
82415W        W86483  19.539   0.205  15.681
82416W        W86484  20.598   0.282  15.186
82417W        W86485  18.543   0.214  16.763
82418W        W86486  18.591   1.177  16.133
82419W        W86487  21.280   0.285  16.539
82420W        W86488  18.702   0.783  15.353
82421W        W86489  21.273   0.471  16.969
82422W        W86490  21.669   1.674  14.654
82423W        W86491  18.961   0.432  16.473
82424W        W86492  20.075   1.004  17.413
82425W        W86493  18.223   0.694  14.891
82426W        W86494  19.009   2.083  17.452
82427W        W86495  20.367   1.481  16.631
82428W        W86496  20.234   3.560  14.927
82429W        W86497  18.380   2.067  14.624
82430W        W86498  19.115   2.478  17.750
82431W        W86499  18.636   1.645  17.381
82432W        W86500  19.627   1.750  17.175
82433W        W86501  21.395   0.109  17.437
82434W        W86502  21.793   1.719  17.428
82435W        W86503  21.781   1.919  15.114
82436W        W86504  20.644   2.251  15.213
82437W        W86505  21.118   3.551  14.908
82438W        W86506  20.295   1.541  18.050
82439W        W86507  18.625   2.508  18.090
82440W        W86508  21.831   0.430  18.042
82441W        W86509  21.549   1.358  16.663
82442W        W86510  19.857   3.488  18.140
82443W        W86511  19.712   0.117  14.867
82444W        W86512  21.251   2.716  14.810
82445W        W86513  19.020   0.809  17.696
82446W        W86514  19.454   2.803  17.558
82447W        W86515  21.580   0.794  17.356
82448W        W86516  20.791   3.453  15.324
82449W        W86517  21.030   2.072  16.691
82450W        W86518  19.280   0.488  17.358
82451W        W86519  19.749   1.557  18.115
82452W        W86520  19.252   2.736  15.309
82453W        W86521  21.007   2.234  15.573
82454W        W86522  18.775   0.860  17.297
82455W        W86523  20.104   2.922  15.761
82456W        W86524  21.854   1.482  15.942
82457W        W86525  20.076   0.115  17.661
82458W        W86526  20.856   2.820  16.740
82459W        W86527  21.159   3.164  16.448
82460W        W86528  20.378   2.966  14.876
82461W        W86529  18.388   2.858  17.718
82462W        W86530  19.131   0.850  16.956
82463W        W86531  19.101   0.198  16.066
82464W        W86532  20.722   1.040  16.758
82465W        W86533  19.520   2.211  14.958
82466W        W86534  21.518   2.153  16.457
82467W        W86535  18.845   2.911  17.880
82468W        W86536  21.232   3.593  15.677
82469W        W86537  19.331   0.613  16.122
82470W        W86538  19.100   2.106  16.212
82471W        W86539  19.413   3.517  16.962
82472W        W86540  21.480   3.613  17.994
82473W        W86541  20.639   1.801  16.927
82474W        W86542  18.488   1.599  14.842
82475W        W86543  21.622   3.257  15.539
82476W        W86544  21.459   0.581  15.158
82477W        W86545  19.598   0.100  17.561
82478W        W86546  21.304   2.902  16.019
82479W        W86547  21.333   1.458  15.924
82480W        W86548  19.450   1.131  16.140
82481W        W86549  19.695   1.393  17.464
82482W        W86550  20.806   2.546  17.327
82483W        W86551  19.456   1.000  17.439
82484W        W86552  19.435   3.466  16.055
82485W        W86553  18.752   3.425  17.689
82486W        W86554  18.864   2.786  14.819
82487W        W86555  21.381   2.544  15.629
82488W        W86556  18.985   1.336  17.515
82489W        W86557  21.758   1.266  14.996
82490W        W86558  19.503   2.323  15.467
82491W        W86559  20.602   1.705  17.548
82492W        W86560  20.493   1.333  17.092
82493W        W86561  19.053   1.705  17.121
82494W        W86562  21.263   3.593  16.950
82495W        W86563  21.054   0.227  17.944
82496W        W86564  18.718   0.377  17.531
82497W        W86565  19.057   1.400  16.584
82498W        W86566  19.426   1.214  14.706
82499W        W86567  18.229   2.973  17.251
82500W        W86568  19.814   1.682  16.694
82501W        W86569  19.637   0.707  14.799
82502W        W86570  18.772   1.523  15.580
82503W        W86571  18.543   3.375  17.017
82504W        W86572  21.338   1.601  15.125
82505W        W86573  21.433   0.517  17.811
82506W        W86574  20.869   2.726  15.774
82507W        W86575  18.467   1.650  17.951
82508W        W86576  21.433   0.114  15.247
82509W        W86577  20.953   2.589  15.258
82510W        W86578  19.855   1.647  15.343
82511W        W86579  21.042   0.451  14.866
82512W        W86580  21.107   1.058  17.052
82513W        W86581  18.816   1.651  16.259
82514W        W86582  19.110   2.590  15.908
82515W        W86583  20.873   1.210  15.873
82516W        W86584  19.896   0.589  16.569
82517W        W86585  21.858   2.500  17.080
82518W        W86586  21.776   0.487  16.641
82519W        W86587  18.315   3.317  16.017
82520W        W86588  18.824   2.504  15.553
82521W        W86589  18.739   0.121  18.106
82522W        W86590  19.858   2.974  18.208
82523W        W86591  21.613   1.942  15.998
82524W        W86592  20.967   2.119  14.878
82525W        W86593  20.262   3.640  17.090
82526W        W86594  21.119   2.362  18.127
82527W        W86595  19.934   0.072  15.407
82528W        W86596  20.647   0.941  16.266
82529W        W86597  18.333   2.528  16.598
82530W        W86598  19.586   0.490  15.239
82531W        W86599  19.390   1.974  18.088
82532W        W86600  20.384   0.955  15.802
82533W        W86601  20.589   2.365  16.924
82534W        W86602  18.743   2.970  17.359
82535W        W86603  19.334   2.953  18.082
82536W        W86604  19.185   0.750  15.096
82537W        W86605  20.702   0.892  15.421
82538W        W86606  20.660   3.000  17.658
82539W        W86607  19.345   1.592  16.257
82540W        W86608  19.000   3.290  17.122
82541W        W86609  21.745   3.407  14.723
82542W        W86610  18.608   2.079  17.719
82543W        W86611  20.603   2.341  16.407
82544W        W86612  19.039   1.990  15.649
82545W        W86613  19.410   2.997  17.044
82546W        W86614  19.788   0.416  16.085
82547W        W86615  18.399   2.400  15.015
82548W        W86616  19.918   1.351  14.885
82549W        W86617  18.564   1.900  15.904
82550W        W86618  19.854   0.542  17.368
82551W        W86619  21.526   0.251  14.795
82552W        W86620  21.619   1.997  17.894
82553W        W86621  20.273   3.254  18.046
82554W        W86622  21.831   2.348  17.568
82555W        W86623  21.239   3.146  18.179
82556W        W86624  18.978   3.602  16.657
82557W        W86625  21.837   2.224  15.531
82558W        W86626  20.367   1.491  16.044
82559W        W86627  20.134   0.103  15.934
82560W        W86628  19.193   3.087  15.771
82561W        W86629  19.692   0.828  16.996
82562W        W86630  19.392   0.197  16.465
82563W        W86631  18.455   3.019  15.013
82564W        W86632  20.271   2.383  15.731
82565W        W86633  19.146   3.178  17.610
82566W        W86634  18.623   2.001  15.306
82567W        W86635  18.508   0.544  16.305
82568W        W86636  20.056   2.509  16.362
82569W        W86637  18.308   0.363  15.382
82570W        W86638  20.972   1.569  17.309
82571W        W86639  20.849   0.955  14.881
82572W        W86640  21.366   2.627  16.529
82573W        W86641  20.027   3.111  16.360
82574W        W86642  19.439   3.215  15.271
82575W        W86643  20.721   0.118  14.701
82576W        W86644  18.521   3.378  16.442
82577W        W86645  20.718   1.136  18.077
82578W        W86646  18.701   0.666  18.076
82579W        W86647  18.432   1.266  15.409
82580W        W86648  19.123   1.255  15.134
82581W        W86649  20.886   1.582  17.951
82582W        W86650  19.229   1.863  16.660
82583W        W86651  20.703   0.149  15.780
82584W        W86652  19.834   3.580  16.283
82585W        W86653  21.048   3.042  17.220
82586W        W86654  20.632   3.191  16.331
82587W        W86655  20.651   2.171  15.925
82588W        W86656  20.113   0.396  14.996
82589W        W86657  21.794   0.024  15.718
82590W        W86658  19.482   1.659  14.881
82591W        W86659  21.648   0.996  15.871
82592W        W86660  20.340   2.166  14.748
82593W        W86661  21.276   2.366  17.496
82594W        W86662  20.930   3.067  14.963
82595W        W86663  19.545   0.742  17.869
82596W        W86664  19.365   1.326  17.110
82597W        W86665  21.457   2.821  17.387
82598W        W86666  20.557   0.771  17.764
82599W        W86667  18.401   1.242  17.541
82600W        W86668  20.161   1.719  17.267
82601W        W86669  18.518   2.477  15.924
82602W        W86670  18.665   1.774  16.814
82603W        W86671  20.982   2.060  17.164
82604W        W86672  20.754   3.440  17.975
82605W        W86673  20.650   1.179  17.528
82606W        W86674  20.927   3.233  15.933
82607W        W86675  19.929   2.953  17.256
82608W        W86676  19.414   3.308  16.525
82609W        W86677  21.219   2.479  16.944
82610W        W86678  20.269   2.551  18.081
82611W        W86679  18.874   2.504  16.420
82612W        W86680  21.220   2.263  16.065
82613W        W86681  20.861   3.329  16.816
82614W        W86682  18.839   3.058  16.686
82615W        W86683  19.860   1.110  17.896
82616W        W86684  20.311   3.276  15.407
82617W        W86685  19.619   2.531  18.045
82618W        W86686  19.745   2.769  15.422
82619W        W86687  18.966   1.509  14.681
82620W        W86688  18.305   3.595  21.580
82621W        W86689  18.681   2.488  21.103
82622W        W86690  21.386   2.218  18.873
82623W        W86691  21.516   3.303  20.900
82624W        W86692  19.434   3.294  18.426
82625W        W86693  19.517   1.446  19.409
82626W        W86694  19.032   1.294  19.573
82627W        W86695  20.023   2.109  19.007
82628W        W86696  19.698   3.201  21.362
82629W        W86697  18.347   0.762  21.325
82630W        W86698  19.109   0.042  21.127
82631W        W86699  20.803   0.430  20.014
82632W        W86700  20.452   1.301  18.584
82633W        W86701  21.022   0.735  21.675
82634W        W86702  18.388   0.527  20.800
82635W        W86703  18.487   3.146  21.821
82636W        W86704  20.009   2.536  18.553
82637W        W86705  18.441   1.319  20.246
82638W        W86706  19.334   1.210  21.483
82639W        W86707  21.793   1.069  19.982
82640W        W86708  21.557   2.112  20.841
82641W        W86709  19.865   1.445  19.868
82642W        W86710  20.411   2.784  20.237
82643W        W86711  18.911   2.218  20.469
82644W        W86712  18.270   1.746  20.040
82645W        W86713  19.306   1.718  21.232
82646W        W86714  21.577   1.501  21.486
82647W        W86715  19.193   2.945  19.931
82648W        W86716  20.314   2.634  21.065
82649W        W86717  19.534   1.274  20.290
82650W        W86718  19.826   2.058  19.933
82651W        W86719  20.823   2.831  21.781
82652W        W86720  19.902   2.151  21.791
82653W        W86721  19.883   1.867  21.269
82654W        W86722  18.292   1.258  21.791
82655W        W86723  21.124   2.793  21.390
82656W        W86724  18.705   0.375  19.388
82657W        W86725  19.232   2.633  20.387
82658W        W86726  21.695   2.416  19.677
82659W        W86727  21.108   0.816  20.244
82660W        W86728  21.393   0.769  18.339
82661W        W86729  21.858   1.570  20.645
82662W        W86730  19.825   3.277  20.398
82663W        W86731  21.599   2.743  18.836
82664W        W86732  18.728   3.529  18.590
82665W        W86733  19.121   3.575  19.266
82666W        W86734  18.918   0.329  20.692
82667W        W86735  21.541   1.347  20.967
82668W        W86736  20.946   1.769  19.426
82669W        W86737  20.912   1.457  18.453
82670W        W86738  20.120   2.601  20.593
82671W        W86739  19.926   0.931  19.792
82672W        W86740  20.526   3.018  20.786
82673W        W86741  21.397   1.809  19.208
82674W        W86742  20.299   0.467  19.224
82675W        W86743  18.956   3.161  18.907
82676W        W86744  18.327   0.660  19.506
82677W        W86745  21.113   1.267  19.980
82678W        W86746  18.571   2.884  19.895
82679W        W86747  19.912   3.234  18.765
82680W        W86748  21.304   1.260  18.229
82681W        W86749  18.327   3.018  20.393
82682W        W86750  19.118   2.590  20.873
82683W        W86751  19.491   1.950  19.492
82684W        W86752  19.513   0.355  20.585
82685W        W86753  21.742   0.117  19.882
82686W        W86754  18.961   1.989  18.350
82687W        W86755  18.616   1.022  18.529
82688W        W86756  18.678   2.978  19.323
82689W        W86757  19.809   2.461  19.571
82690W        W86758  21.141   3.320  21.285
82691W        W86759  20.067   0.962  18.969
82692W        W86760  21.450   3.360  19.741
82693W        W86761  21.127   1.213  21.339
82694W        W86762  21.840   2.869  19.473
82695W        W86763  20.467   2.161  20.957
82696W        W86764  18.233   1.712  19.163
82697W        W86765  19.344   2.127  20.736
82698W        W86766  20.548   1.391  19.114
82699W        W86767  20.425   1.881  19.218
82700W        W86768  18.768   1.301  20.692
82701W        W86769  18.753   1.177  21.614
82702W        W86770  18.643   0.094  19.773
82703W        W86771  20.411   0.441  20.334
82704W        W86772  20.059   0.626  21.497
82705W        W86773  20.414   0.775  18.675
82706W        W86774  21.597   3.168  21.429
82707W        W86775  20.564   0.249  21.468
82708W        W86776  21.583   2.550  21.590
82709W        W86777  21.013   0.717  21.186
82710W        W86778  20.813   0.655  19.456
82711W        W86779  21.206   1.789  21.860
82712W        W86780  18.946   3.365  19.846
82713W        W86781  19.604   1.082  18.832
82714W        W86782  19.173   0.366  21.496
82715W        W86783  21.225   0.850  19.177
82716W        W86784  21.592   1.332  19.122
82717W        W86785  19.335   3.549  21.593
82718W        W86786  19.261   0.085  18.828
82719W        W86787  21.582   0.619  19.863
82720W        W86788  21.732   2.868  18.308
82721W        W86789  18.639   2.071  20.010
82722W        W86790  20.556   0.658  18.240
82723W        W86791  21.690   2.990  19.960
82724W        W86792  21.729   0.184  20.710
82725W        W86793  20.174   1.396  21.264
82726W        W86794  20.267   2.735  18.967
82727W        W86795  20.667   2.029  21.707
82728W        W86796  20.341   0.006  20.016
82729W        W86797  18.953   0.909  20.079
82730W        W86798  18.507   2.109  20.853
82731W        W86799  20.366   3.302  19.559
82732W        W86800  21.560   0.899  20.431
82733W        W86801  20.197   3.246  21.198
82734W        W86802  21.540   2.305  18.403
82735W        W86803  19.975   1.788  19.464
82736W        W86804  21.827   0.299  21.205
82737W        W86805  19.976   2.134  20.799
82738W        W86806  20.193   1.020  20.244
82739W        W86807  21.045   1.318  19.082
82740W        W86808  21.332   1.051  18.724
82741W        W86809  21.141   3.091  19.113
82742W        W86810  20.975   2.694  19.909
82743W        W86811  20.871   1.773  18.887
82744W        W86812  20.304   1.983  19.873
82745W        W86813  21.185   1.771  19.940
82746W        W86814  18.560   0.786  20.364
82747W        W86815  21.338   1.838  21.191
82748W        W86816  21.689   3.456  20.337
82749W        W86817  19.619   2.900  19.739
82750W        W86818  20.626   3.433  21.063
82751W        W86819  20.620   0.763  20.827
82752W        W86820  19.827   3.471  20.888
82753W        W86821  21.524   0.425  19.354
82754W        W86822  21.315   1.744  20.655
82755W        W86823  18.298   1.065  20.693
82756W        W86824  21.158   0.860  19.711
82757W        W86825  21.569   1.011  21.488
82758W        W86826  20.454   2.710  19.706
82759W        W86827  19.710   3.301  19.319
82760W        W86828  18.825   0.481  18.577
82761W        W86829  19.929   0.135  20.387
82762W        W86830  18.957   3.255  18.235
82763W        W86831  19.331   1.721  18.986
82764W        W86832  19.985   2.350  21.299
82765W        W86833  19.815   0.708  19.289
82766W        W86834  21.171   0.305  19.717
82767W        W86835  20.891   3.587  20.045
82768W        W86836  20.303   3.235  20.385
82769W        W86837  19.699   2.272  20.346
82770W        W86838  21.469   2.995  20.472
82771W        W86839  19.163   0.498  19.241
82772W        W86840  19.685   2.795  20.201
82773W        W86841  19.168   0.726  18.266
82774W        W86842  19.969   1.335  20.660
82775W        W86843  20.817   0.201  20.530
82776W        W86844  18.237   2.044  20.415
82777W        W86845  19.941   1.862  18.573
82778W        W86846  19.209   0.177  18.343
82779W        W86847  19.947   1.258  19.394
82780W        W86848  20.917   0.234  21.093
82781W        W86849  19.505   2.246  21.202
82782W        W86850  20.309   2.028  21.419
82783W        W86851  20.926   2.058  21.312
82784W        W86852  20.210   0.198  21.817
82785W        W86853  19.432   0.814  20.210
82786W        W86854  18.858   0.770  19.608
82787W        W86855  18.644   3.482  19.284
82788W        W86856  19.976   2.812  21.409
82789W        W86857  19.011   2.297  18.768
82790W        W86858  20.691   1.682  19.989
82791W        W86859  20.971   1.481  20.388
82792W        W86860  20.176   2.155  20.322
82793W        W86861  20.646   2.529  18.454
82794W        W86862  20.318   0.550  19.782
82795W        W86863  21.797   0.828  19.050
82796W        W86864  18.291   3.417  21.081
82797W        W86865  18.708   2.643  20.613
82798W        W86866  18.275   3.489  18.845
82799W        W86867  20.174   0.759  20.651
82800W        W86868  19.537   2.782  18.500
82801W        W86869  21.442   3.164  18.686
82802W        W86870  20.417   1.817  18.700
82803W        W86871  19.260   1.008  19.217
82804W        W86872  20.092   0.918  18.269
82805W        W86873  20.676   2.483  21.447
82806W        W86874  21.029   0.389  19.064
82807W        W86875  18.359   0.237  18.512
82808W        W86876  19.645   2.556  20.802
82809W        W86877  19.444   2.472  19.894
82810W        W86878  19.186   2.424  18.292
82811W        W86879  18.427   2.665  19.060
82812W        W86880  18.931   1.735  21.502
82813W        W86881  19.635   0.295  21.688
82814W        W86882  20.344   0.437  21.044
82815W        W86883  19.539   0.205  19.325
82816W        W86884  20.598   0.282  18.830
82817W        W86885  18.543   0.214  20.407
82818W        W86886  18.591   1.177  19.777
82819W        W86887  21.280   0.285  20.183
82820W        W86888  18.702   0.783  18.997
82821W        W86889  21.273   0.471  20.613
82822W        W86890  21.669   1.674  18.298
82823W        W86891  18.961   0.432  20.117
82824W        W86892  20.075   1.004  21.057
82825W        W86893  18.223   0.694  18.535
82826W        W86894  19.009   2.083  21.096
82827W        W86895  20.367   1.481  20.275
82828W        W86896  20.234   3.560  18.571
82829W        W86897  18.380   2.067  18.268
82830W        W86898  19.115   2.478  21.394
82831W        W86899  18.636   1.645  21.025
82832W        W86900  19.627   1.750  20.819
82833W        W86901  21.395   0.109  21.081
82834W        W86902  21.793   1.719  21.072
82835W        W86903  21.781   1.919  18.758
82836W        W86904  20.644   2.251  18.857
82837W        W86905  21.118   3.551  18.552
82838W        W86906  20.295   1.541  21.694
82839W        W86907  18.625   2.508  21.734
82840W        W86908  21.831   0.430  21.686
82841W        W86909  21.549   1.358  20.307
82842W        W86910  19.857   3.488  21.784
82843W        W86911  19.712   0.117  18.511
82844W        W86912  21.251   2.716  18.454
82845W        W86913  19.020   0.809  21.340
82846W        W86914  19.454   2.803  21.202
82847W        W86915  21.580   0.794  21.000
82848W        W86916  20.791   3.453  18.968
82849W        W86917  21.030   2.072  20.335
82850W        W86918  19.280   0.488  21.002
82851W        W86919  19.749   1.557  21.759
82852W        W86920  19.252   2.736  18.953
82853W        W86921  21.007   2.234  19.217
82854W        W86922  18.775   0.860  20.941
82855W        W86923  20.104   2.922  19.405
82856W        W86924  21.854   1.482  19.586
82857W        W86925  20.076   0.115  21.305
82858W        W86926  20.856   2.820  20.384
82859W        W86927  21.159   3.164  20.092
82860W        W86928  20.378   2.966  18.520
82861W        W86929  18.388   2.858  21.362
82862W        W86930  19.131   0.850  20.600
82863W        W86931  19.101   0.198  19.710
82864W        W86932  20.722   1.040  20.402
82865W        W86933  19.520   2.211  18.602
82866W        W86934  21.518   2.153  20.101
82867W        W86935  18.845   2.911  21.524
82868W        W86936  21.232   3.593  19.321
82869W        W86937  19.331   0.613  19.766
82870W        W86938  19.100   2.106  19.856
82871W        W86939  19.413   3.517  20.606
82872W        W86940  21.480   3.613  21.638
82873W        W86941  20.639   1.801  20.571
82874W        W86942  18.488   1.599  18.486
82875W        W86943  21.622   3.257  19.183
82876W        W86944  21.459   0.581  18.802
82877W        W86945  19.598   0.100  21.205
82878W        W86946  21.304   2.902  19.663
82879W        W86947  21.333   1.458  19.568
82880W        W86948  19.450   1.131  19.784
82881W        W86949  19.695   1.393  21.108
82882W        W86950  20.806   2.546  20.971
82883W        W86951  19.456   1.000  21.083
82884W        W86952  19.435   3.466  19.699
82885W        W86953  18.752   3.425  21.333
82886W        W86954  18.864   2.786  18.463
82887W        W86955  21.381   2.544  19.273
82888W        W86956  18.985   1.336  21.159
82889W        W86957  21.758   1.266  18.640
82890W        W86958  19.503   2.323  19.111
82891W        W86959  20.602   1.705  21.192
82892W        W86960  20.493   1.333  20.736
82893W        W86961  19.053   1.705  20.765
82894W        W86962  21.263   3.593  20.594
82895W        W86963  21.054   0.227  21.588
82896W        W86964  18.718   0.377  21.175
82897W        W86965  19.057   1.400  20.228
82898W        W86966  19.426   1.214  18.350
82899W        W86967  18.229   2.973  20.895
82900W        W86968  19.814   1.682  20.338
82901W        W86969  19.637   0.707  18.443
82902W        W86970  18.772   1.523  19.224
82903W        W86971  18.543   3.375  20.661
82904W        W86972  21.338   1.601  18.769
82905W        W86973  21.433   0.517  21.455
82906W        W86974  20.869   2.726  19.418
82907W        W86975  18.467   1.650  21.595
82908W        W86976  21.433   0.114  18.891
82909W        W86977  20.953   2.589  18.902
82910W        W86978  19.855   1.647  18.987
82911W        W86979  21.042   0.451  18.510
82912W        W86980  21.107   1.058  20.696
82913W        W86981  18.816   1.651  19.903
82914W        W86982  19.110   2.590  19.552
82915W        W86983  20.873   1.210  19.517
82916W        W86984  19.896   0.589  20.213
82917W        W86985  21.858   2.500  20.724
82918W        W86986  21.776   0.487  20.285
82919W        W86987  18.315   3.317  19.661
82920W        W86988  18.824   2.504  19.197
82921W        W86989  18.739   0.121  21.750
82922W        W86990  19.858   2.974  21.852
82923W        W86991  21.613   1.942  19.642
82924W        W86992  20.967   2.119  18.522
82925W        W86993  20.262   3.640  20.734
82926W        W86994  21.119   2.362  21.771
82927W        W86995  19.934   0.072  19.051
82928W        W86996  20.647   0.941  19.910
82929W        W86997  18.333   2.528  20.242
82930W        W86998  19.586   0.490  18.883
82931W        W86999  19.390   1.974  21.732
82932W        W87000  20.384   0.955  19.446
82933W        W87001  20.589   2.365  20.568
82934W        W87002  18.743   2.970  21.003
82935W        W87003  19.334   2.953  21.726
82936W        W87004  19.185   0.750  18.740
82937W        W87005  20.702   0.892  19.065
82938W        W87006  20.660   3.000  21.302
82939W        W87007  19.345   1.592  19.901
82940W        W87008  19.000   3.290  20.766
82941W        W87009  21.745   3.407  18.367
82942W        W87010  18.608   2.079  21.363
82943W        W87011  20.603   2.341  20.051
82944W        W87012  19.039   1.990  19.293
82945W        W87013  19.410   2.997  20.688
82946W        W87014  19.788   0.416  19.729
82947W        W87015  18.399   2.400  18.659
82948W        W87016  19.918   1.351  18.529
82949W        W87017  18.564   1.900  19.548
82950W        W87018  19.854   0.542  21.012
82951W        W87019  21.526   0.251  18.439
82952W        W87020  21.619   1.997  21.538
82953W        W87021  20.273   3.254  21.690
82954W        W87022  21.831   2.348  21.212
82955W        W87023  21.239   3.146  21.823
82956W        W87024  18.978   3.602  20.301
82957W        W87025  21.837   2.224  19.175
82958W        W87026  20.367   1.491  19.688
82959W        W87027  20.134   0.103  19.578
82960W        W87028  19.193   3.087  19.415
82961W        W87029  19.692   0.828  20.640
82962W        W87030  19.392   0.197  20.109
82963W        W87031  18.455   3.019  18.657
82964W        W87032  20.271   2.383  19.375
82965W        W87033  19.146   3.178  21.254
82966W        W87034  18.623   2.001  18.950
82967W        W87035  18.508   0.544  19.949
82968W        W87036  20.056   2.509  20.006
82969W        W87037  18.308   0.363  19.026
82970W        W87038  20.972   1.569  20.953
82971W        W87039  20.849   0.955  18.525
82972W        W87040  21.366   2.627  20.173
82973W        W87041  20.027   3.111  20.004
82974W        W87042  19.439   3.215  18.915
82975W        W87043  20.721   0.118  18.345
82976W        W87044  18.521   3.378  20.086
82977W        W87045  20.718   1.136  21.721
82978W        W87046  18.701   0.666  21.720
82979W        W87047  18.432   1.266  19.053
82980W        W87048  19.123   1.255  18.778
82981W        W87049  20.886   1.582  21.595
82982W        W87050  19.229   1.863  20.304
82983W        W87051  20.703   0.149  19.424
82984W        W87052  19.834   3.580  19.927
82985W        W87053  21.048   3.042  20.864
82986W        W87054  20.632   3.191  19.975
82987W        W87055  20.651   2.171  19.569
82988W        W87056  20.113   0.396  18.640
82989W        W87057  21.794   0.024  19.362
82990W        W87058  19.482   1.659  18.525
82991W        W87059  21.648   0.996  19.515
82992W        W87060  20.340   2.166  18.392
82993W        W87061  21.276   2.366  21.140
82994W        W87062  20.930   3.067  18.607
82995W        W87063  19.545   0.742  21.513
82996W        W87064  19.365   1.326  20.754
82997W        W87065  21.457   2.821  21.031
82998W        W87066  20.557   0.771  21.408
82999W        W87067  18.401   1.242  21.185
83000W        W87068  20.161   1.719  20.911
83001W        W87069  18.518   2.477  19.568
83002W        W87070  18.665   1.774  20.458
83003W        W87071  20.982   2.060  20.808
83004W        W87072  20.754   3.440  21.619
83005W        W87073  20.650   1.179  21.172
83006W        W87074  20.927   3.233  19.577
83007W        W87075  19.929   2.953  20.900
83008W        W87076  19.414   3.308  20.169
83009W        W87077  21.219   2.479  20.588
83010W        W87078  20.269   2.551  21.725
83011W        W87079  18.874   2.504  20.064
83012W        W87080  21.220   2.263  19.709
83013W        W87081  20.861   3.329  20.460
83014W        W87082  18.839   3.058  20.330
83015W        W87083  19.860   1.110  21.540
83016W        W87084  20.311   3.276  19.051
83017W        W87085  19.619   2.531  21.689
83018W        W87086  19.745   2.769  19.066
83019W        W87087  18.966   1.509  18.325
83020W        W87088  21.386   2.218  22.518
83021W        W87089  19.434   3.294  22.071
83022W        W87090  19.517   1.446  23.054
83023W        W87091  19.032   1.294  23.218
83024W        W87092  20.023   2.109  22.652
83025W        W87093  20.452   1.301  22.229
83026W        W87094  20.009   2.536  22.198
83027W        W87095  18.705   0.375  23.033
83028W        W87096  21.393   0.769  21.984
83029W        W87097  21.599   2.743  22.481
83030W        W87098  18.728   3.529  22.235
83031W        W87099  19.121   3.575  22.911
83032W        W87100  20.946   1.769  23.071
83033W        W87101  20.912   1.457  22.098
83034W        W87102  21.397   1.809  22.853
83035W        W87103  20.299   0.467  22.869
83036W        W87104  18.956   3.161  22.552
83037W        W87105  19.912   3.234  22.410
83038W        W87106  21.304   1.260  21.874
83039W        W87107  19.491   1.950  23.137
83040W        W87108  18.961   1.989  21.995
83041W        W87109  18.616   1.022  22.174
83042W        W87110  18.678   2.978  22.968
83043W        W87111  19.809   2.461  23.216
83044W        W87112  20.067   0.962  22.614
83045W        W87113  18.233   1.712  22.808
83046W        W87114  20.548   1.391  22.759
83047W        W87115  20.425   1.881  22.863
83048W        W87116  20.414   0.775  22.320
83049W        W87117  20.813   0.655  23.101
83050W        W87118  19.604   1.082  22.477
83051W        W87119  21.225   0.850  22.822
83052W        W87120  21.592   1.332  22.767
83053W        W87121  19.261   0.085  22.473
83054W        W87122  21.732   2.868  21.953
83055W        W87123  20.556   0.658  21.885
83056W        W87124  20.267   2.735  22.612
83057W        W87125  20.366   3.302  23.204
83058W        W87126  21.540   2.305  22.048
83059W        W87127  19.975   1.788  23.109
83060W        W87128  21.045   1.318  22.727
83061W        W87129  21.332   1.051  22.369
83062W        W87130  21.141   3.091  22.758
83063W        W87131  20.871   1.773  22.532
83064W        W87132  21.524   0.425  22.999
83065W        W87133  19.710   3.301  22.964
83066W        W87134  18.825   0.481  22.222
83067W        W87135  18.957   3.255  21.880
83068W        W87136  19.331   1.721  22.631
83069W        W87137  19.815   0.708  22.934
83070W        W87138  19.163   0.498  22.886
83071W        W87139  19.168   0.726  21.911
83072W        W87140  19.941   1.862  22.218
83073W        W87141  19.209   0.177  21.988
83074W        W87142  19.947   1.258  23.039
83075W        W87143  18.858   0.770  23.253
83076W        W87144  18.644   3.482  22.929
83077W        W87145  19.011   2.297  22.413
83078W        W87146  20.646   2.529  22.099
83079W        W87147  21.797   0.828  22.695
83080W        W87148  18.275   3.489  22.490
83081W        W87149  19.537   2.782  22.145
83082W        W87150  21.442   3.164  22.331
83083W        W87151  20.417   1.817  22.345
83084W        W87152  19.260   1.008  22.862
83085W        W87153  20.092   0.918  21.914
83086W        W87154  21.029   0.389  22.709
83087W        W87155  18.359   0.237  22.157
83088W        W87156  19.186   2.424  21.937
83089W        W87157  18.427   2.665  22.705
83090W        W87158  19.539   0.205  22.970
83091W        W87159  20.598   0.282  22.475
83092W        W87160  18.702   0.783  22.642
83093W        W87161  21.669   1.674  21.943
83094W        W87162  18.223   0.694  22.180
83095W        W87163  20.234   3.560  22.216
83096W        W87164  18.380   2.067  21.913
83097W        W87165  21.781   1.919  22.403
83098W        W87166  20.644   2.251  22.502
83099W        W87167  21.118   3.551  22.197
83100W        W87168  19.712   0.117  22.156
83101W        W87169  21.251   2.716  22.099
83102W        W87170  20.791   3.453  22.613
83103W        W87171  19.252   2.736  22.598
83104W        W87172  21.007   2.234  22.862
83105W        W87173  20.104   2.922  23.050
83106W        W87174  21.854   1.482  23.231
83107W        W87175  20.378   2.966  22.165
83108W        W87176  19.520   2.211  22.247
83109W        W87177  21.232   3.593  22.966
83110W        W87178  18.488   1.599  22.131
83111W        W87179  21.622   3.257  22.828
83112W        W87180  21.459   0.581  22.447
83113W        W87181  21.333   1.458  23.213
83114W        W87182  18.864   2.786  22.108
83115W        W87183  21.381   2.544  22.918
83116W        W87184  21.758   1.266  22.285
83117W        W87185  19.503   2.323  22.756
83118W        W87186  19.426   1.214  21.995
83119W        W87187  19.637   0.707  22.088
83120W        W87188  18.772   1.523  22.869
83121W        W87189  21.338   1.601  22.414
83122W        W87190  20.869   2.726  23.063
83123W        W87191  21.433   0.114  22.536
83124W        W87192  20.953   2.589  22.547
83125W        W87193  19.855   1.647  22.632
83126W        W87194  21.042   0.451  22.155
83127W        W87195  19.110   2.590  23.197
83128W        W87196  20.873   1.210  23.162
83129W        W87197  18.315   3.317  23.306
83130W        W87198  18.824   2.504  22.842
83131W        W87199  21.613   1.942  23.287
83132W        W87200  20.967   2.119  22.167
83133W        W87201  19.934   0.072  22.696
83134W        W87202  19.586   0.490  22.528
83135W        W87203  20.384   0.955  23.091
83136W        W87204  19.185   0.750  22.385
83137W        W87205  20.702   0.892  22.710
83138W        W87206  21.745   3.407  22.012
83139W        W87207  18.399   2.400  22.304
83140W        W87208  19.918   1.351  22.174
83141W        W87209  18.564   1.900  23.193
83142W        W87210  21.526   0.251  22.084
83143W        W87211  21.837   2.224  22.820
83144W        W87212  20.134   0.103  23.223
83145W        W87213  19.193   3.087  23.060
83146W        W87214  18.455   3.019  22.302
83147W        W87215  20.271   2.383  23.020
83148W        W87216  18.623   2.001  22.595
83149W        W87217  18.308   0.363  22.671
83150W        W87218  20.849   0.955  22.170
83151W        W87219  19.439   3.215  22.560
83152W        W87220  20.721   0.118  21.990
83153W        W87221  18.432   1.266  22.698
83154W        W87222  19.123   1.255  22.423
83155W        W87223  20.651   2.171  23.214
83156W        W87224  20.113   0.396  22.285
83157W        W87225  21.794   0.024  23.007
83158W        W87226  19.482   1.659  22.170
83159W        W87227  21.648   0.996  23.160
83160W        W87228  20.340   2.166  22.037
83161W        W87229  20.930   3.067  22.252
83162W        W87230  18.518   2.477  23.213
83163W        W87231  20.927   3.233  23.222
83164W        W87232  20.311   3.276  22.696
83165W        W87233  19.745   2.769  22.711
83166W        W87234  18.966   1.509  21.970
83167W        W87235  18.305   7.239   3.359
83168W        W87236  18.681   6.132   2.882
83169W        W87237  21.386   5.862   0.652
83170W        W87238  21.516   6.947   2.679
83171W        W87239  19.434   6.938   0.205
83172W        W87240  19.517   5.090   1.188
83173W        W87241  19.032   4.938   1.352
83174W        W87242  20.023   5.753   0.786
83175W        W87243  19.698   6.845   3.141
83176W        W87244  18.347   4.406   3.104
83177W        W87245  19.109   3.686   2.906
83178W        W87246  20.803   4.074   1.793
83179W        W87247  20.452   4.945   0.363
83180W        W87248  21.022   4.379   3.454
83181W        W87249  18.388   4.171   2.579
83182W        W87250  18.487   6.790   3.600
83183W        W87251  20.009   6.180   0.332
83184W        W87252  18.441   4.963   2.025
83185W        W87253  19.334   4.854   3.262
83186W        W87254  21.793   4.713   1.761
83187W        W87255  21.557   5.756   2.620
83188W        W87256  19.865   5.089   1.647
83189W        W87257  20.411   6.428   2.016
83190W        W87258  18.911   5.862   2.248
83191W        W87259  18.270   5.390   1.819
83192W        W87260  19.306   5.362   3.011
83193W        W87261  21.577   5.145   3.265
83194W        W87262  19.193   6.589   1.710
83195W        W87263  20.314   6.278   2.844
83196W        W87264  19.534   4.918   2.069
83197W        W87265  19.826   5.702   1.712
83198W        W87266  20.823   6.475   3.560
83199W        W87267  19.902   5.795   3.570
83200W        W87268  19.883   5.511   3.048
83201W        W87269  18.292   4.902   3.570
83202W        W87270  21.124   6.437   3.169
83203W        W87271  18.705   4.019   1.167
83204W        W87272  19.232   6.277   2.166
83205W        W87273  21.695   6.060   1.456
83206W        W87274  21.108   4.460   2.023
83207W        W87275  21.393   4.413   0.118
83208W        W87276  21.858   5.214   2.424
83209W        W87277  19.825   6.921   2.177
83210W        W87278  21.599   6.387   0.615
83211W        W87279  18.728   7.173   0.369
83212W        W87280  19.121   7.219   1.045
83213W        W87281  18.918   3.973   2.471
83214W        W87282  21.541   4.991   2.746
83215W        W87283  20.946   5.413   1.205
83216W        W87284  20.912   5.101   0.232
83217W        W87285  20.120   6.245   2.372
83218W        W87286  19.926   4.575   1.571
83219W        W87287  20.526   6.662   2.565
83220W        W87288  21.397   5.453   0.987
83221W        W87289  20.299   4.111   1.003
83222W        W87290  18.956   6.805   0.686
83223W        W87291  18.327   4.304   1.285
83224W        W87292  21.113   4.911   1.759
83225W        W87293  18.571   6.528   1.674
83226W        W87294  19.912   6.878   0.544
83227W        W87295  21.304   4.904   0.008
83228W        W87296  18.327   6.662   2.172
83229W        W87297  19.118   6.234   2.652
83230W        W87298  19.491   5.594   1.271
83231W        W87299  19.513   3.999   2.364
83232W        W87300  21.742   3.761   1.661
83233W        W87301  18.961   5.633   0.129
83234W        W87302  18.616   4.666   0.308
83235W        W87303  18.678   6.622   1.102
83236W        W87304  19.809   6.105   1.350
83237W        W87305  21.141   6.964   3.064
83238W        W87306  20.067   4.606   0.748
83239W        W87307  21.450   7.004   1.520
83240W        W87308  21.127   4.857   3.118
83241W        W87309  21.840   6.513   1.252
83242W        W87310  20.467   5.805   2.736
83243W        W87311  18.233   5.356   0.942
83244W        W87312  19.344   5.771   2.515
83245W        W87313  20.548   5.035   0.893
83246W        W87314  20.425   5.525   0.997
83247W        W87315  18.768   4.945   2.471
83248W        W87316  18.753   4.821   3.393
83249W        W87317  18.643   3.738   1.552
83250W        W87318  20.411   4.085   2.113
83251W        W87319  20.059   4.270   3.276
83252W        W87320  20.414   4.419   0.454
83253W        W87321  21.597   6.812   3.208
83254W        W87322  20.564   3.893   3.247
83255W        W87323  21.583   6.194   3.369
83256W        W87324  21.013   4.361   2.965
83257W        W87325  20.813   4.299   1.235
83258W        W87326  21.206   5.433   3.639
83259W        W87327  18.946   7.009   1.625
83260W        W87328  19.604   4.726   0.611
83261W        W87329  19.173   4.010   3.275
83262W        W87330  21.225   4.494   0.956
83263W        W87331  21.592   4.976   0.901
83264W        W87332  19.335   7.193   3.372
83265W        W87333  19.261   3.729   0.607
83266W        W87334  21.582   4.263   1.642
83267W        W87335  21.732   6.512   0.087
83268W        W87336  18.639   5.715   1.789
83269W        W87337  20.556   4.302   0.019
83270W        W87338  21.690   6.634   1.739
83271W        W87339  21.729   3.828   2.489
83272W        W87340  20.174   5.040   3.043
83273W        W87341  20.267   6.379   0.746
83274W        W87342  20.667   5.673   3.486
83275W        W87343  20.341   3.650   1.795
83276W        W87344  18.953   4.553   1.858
83277W        W87345  18.507   5.753   2.632
83278W        W87346  20.366   6.946   1.338
83279W        W87347  21.560   4.543   2.210
83280W        W87348  20.197   6.890   2.977
83281W        W87349  21.540   5.949   0.182
83282W        W87350  19.975   5.432   1.243
83283W        W87351  21.827   3.943   2.984
83284W        W87352  19.976   5.778   2.578
83285W        W87353  20.193   4.664   2.023
83286W        W87354  21.045   4.962   0.861
83287W        W87355  21.332   4.695   0.503
83288W        W87356  21.141   6.735   0.892
83289W        W87357  20.975   6.338   1.688
83290W        W87358  20.871   5.417   0.666
83291W        W87359  20.304   5.627   1.652
83292W        W87360  21.185   5.415   1.719
83293W        W87361  18.560   4.430   2.143
83294W        W87362  21.338   5.482   2.970
83295W        W87363  21.689   7.100   2.116
83296W        W87364  19.619   6.544   1.518
83297W        W87365  20.626   7.077   2.842
83298W        W87366  20.620   4.407   2.606
83299W        W87367  19.827   7.115   2.667
83300W        W87368  21.524   4.069   1.133
83301W        W87369  21.315   5.388   2.434
83302W        W87370  18.298   4.709   2.472
83303W        W87371  21.158   4.504   1.490
83304W        W87372  21.569   4.655   3.267
83305W        W87373  20.454   6.354   1.485
83306W        W87374  19.710   6.945   1.098
83307W        W87375  18.825   4.125   0.356
83308W        W87376  19.929   3.779   2.166
83309W        W87377  18.957   6.899   0.014
83310W        W87378  19.331   5.365   0.765
83311W        W87379  19.985   5.994   3.078
83312W        W87380  19.815   4.352   1.068
83313W        W87381  21.171   3.949   1.496
83314W        W87382  20.891   7.231   1.824
83315W        W87383  20.303   6.879   2.164
83316W        W87384  19.699   5.916   2.125
83317W        W87385  21.469   6.639   2.251
83318W        W87386  19.163   4.142   1.020
83319W        W87387  19.685   6.439   1.980
83320W        W87388  19.168   4.370   0.045
83321W        W87389  19.969   4.979   2.439
83322W        W87390  20.817   3.845   2.309
83323W        W87391  18.237   5.688   2.194
83324W        W87392  19.941   5.506   0.352
83325W        W87393  19.209   3.821   0.122
83326W        W87394  19.947   4.902   1.173
83327W        W87395  20.917   3.878   2.872
83328W        W87396  19.505   5.890   2.981
83329W        W87397  20.309   5.672   3.198
83330W        W87398  20.926   5.702   3.091
83331W        W87399  20.210   3.842   3.596
83332W        W87400  19.432   4.458   1.989
83333W        W87401  18.858   4.414   1.387
83334W        W87402  18.644   7.126   1.063
83335W        W87403  19.976   6.456   3.188
83336W        W87404  19.011   5.941   0.547
83337W        W87405  20.691   5.326   1.768
83338W        W87406  20.971   5.125   2.167
83339W        W87407  20.176   5.799   2.101
83340W        W87408  20.646   6.173   0.233
83341W        W87409  20.318   4.194   1.561
83342W        W87410  21.797   4.472   0.829
83343W        W87411  18.291   7.061   2.860
83344W        W87412  18.708   6.287   2.392
83345W        W87413  18.275   7.133   0.624
83346W        W87414  20.174   4.403   2.430
83347W        W87415  19.537   6.426   0.279
83348W        W87416  21.442   6.808   0.465
83349W        W87417  20.417   5.461   0.479
83350W        W87418  19.260   4.652   0.996
83351W        W87419  20.092   4.562   0.048
83352W        W87420  20.676   6.127   3.226
83353W        W87421  21.029   4.033   0.843
83354W        W87422  18.359   3.881   0.291
83355W        W87423  19.645   6.200   2.581
83356W        W87424  19.444   6.116   1.673
83357W        W87425  19.186   6.068   0.071
83358W        W87426  18.427   6.309   0.839
83359W        W87427  18.931   5.379   3.281
83360W        W87428  19.635   3.939   3.467
83361W        W87429  20.344   4.081   2.823
83362W        W87430  19.539   3.849   1.104
83363W        W87431  20.598   3.926   0.609
83364W        W87432  18.543   3.858   2.186
83365W        W87433  18.591   4.821   1.556
83366W        W87434  21.280   3.929   1.962
83367W        W87435  18.702   4.427   0.776
83368W        W87436  21.273   4.115   2.392
83369W        W87437  21.669   5.318   0.077
83370W        W87438  18.961   4.076   1.896
83371W        W87439  20.075   4.648   2.836
83372W        W87440  18.223   4.338   0.314
83373W        W87441  19.009   5.727   2.875
83374W        W87442  20.367   5.125   2.054
83375W        W87443  20.234   7.204   0.350
83376W        W87444  18.380   5.711   0.047
83377W        W87445  19.115   6.122   3.173
83378W        W87446  18.636   5.289   2.804
83379W        W87447  19.627   5.394   2.598
83380W        W87448  21.395   3.753   2.860
83381W        W87449  21.793   5.363   2.851
83382W        W87450  21.781   5.563   0.537
83383W        W87451  20.644   5.895   0.636
83384W        W87452  21.118   7.195   0.331
83385W        W87453  20.295   5.185   3.473
83386W        W87454  18.625   6.152   3.513
83387W        W87455  21.831   4.074   3.465
83388W        W87456  21.549   5.002   2.086
83389W        W87457  19.857   7.132   3.563
83390W        W87458  19.712   3.761   0.290
83391W        W87459  21.251   6.360   0.233
83392W        W87460  19.020   4.453   3.119
83393W        W87461  19.454   6.447   2.981
83394W        W87462  21.580   4.438   2.779
83395W        W87463  20.791   7.097   0.747
83396W        W87464  21.030   5.716   2.114
83397W        W87465  19.280   4.132   2.781
83398W        W87466  19.749   5.201   3.538
83399W        W87467  19.252   6.380   0.732
83400W        W87468  21.007   5.878   0.996
83401W        W87469  18.775   4.504   2.720
83402W        W87470  20.104   6.566   1.184
83403W        W87471  21.854   5.126   1.365
83404W        W87472  20.076   3.759   3.084
83405W        W87473  20.856   6.464   2.163
83406W        W87474  21.159   6.808   1.871
83407W        W87475  20.378   6.610   0.299
83408W        W87476  18.388   6.502   3.141
83409W        W87477  19.131   4.494   2.379
83410W        W87478  19.101   3.842   1.489
83411W        W87479  20.722   4.684   2.181
83412W        W87480  19.520   5.855   0.381
83413W        W87481  21.518   5.797   1.880
83414W        W87482  18.845   6.555   3.303
83415W        W87483  21.232   7.237   1.100
83416W        W87484  19.331   4.257   1.545
83417W        W87485  19.100   5.750   1.635
83418W        W87486  19.413   7.161   2.385
83419W        W87487  21.480   7.257   3.417
83420W        W87488  20.639   5.445   2.350
83421W        W87489  18.488   5.243   0.265
83422W        W87490  21.622   6.901   0.962
83423W        W87491  21.459   4.225   0.581
83424W        W87492  19.598   3.744   2.984
83425W        W87493  21.304   6.546   1.442
83426W        W87494  21.333   5.102   1.347
83427W        W87495  19.450   4.775   1.563
83428W        W87496  19.695   5.037   2.887
83429W        W87497  20.806   6.190   2.750
83430W        W87498  19.456   4.644   2.862
83431W        W87499  19.435   7.110   1.478
83432W        W87500  18.752   7.069   3.112
83433W        W87501  18.864   6.430   0.242
83434W        W87502  21.381   6.188   1.052
83435W        W87503  18.985   4.980   2.938
83436W        W87504  21.758   4.910   0.419
83437W        W87505  19.503   5.967   0.890
83438W        W87506  20.602   5.349   2.971
83439W        W87507  20.493   4.977   2.515
83440W        W87508  19.053   5.349   2.544
83441W        W87509  21.263   7.237   2.373
83442W        W87510  21.054   3.871   3.367
83443W        W87511  18.718   4.021   2.954
83444W        W87512  19.057   5.044   2.007
83445W        W87513  19.426   4.858   0.129
83446W        W87514  18.229   6.617   2.674
83447W        W87515  19.814   5.326   2.117
83448W        W87516  19.637   4.351   0.222
83449W        W87517  18.772   5.167   1.003
83450W        W87518  18.543   7.019   2.440
83451W        W87519  21.338   5.245   0.548
83452W        W87520  21.433   4.161   3.234
83453W        W87521  20.869   6.370   1.197
83454W        W87522  18.467   5.294   3.374
83455W        W87523  21.433   3.758   0.670
83456W        W87524  20.953   6.233   0.681
83457W        W87525  19.855   5.291   0.766
83458W        W87526  21.042   4.095   0.289
83459W        W87527  21.107   4.702   2.475
83460W        W87528  18.816   5.295   1.682
83461W        W87529  19.110   6.234   1.331
83462W        W87530  20.873   4.854   1.296
83463W        W87531  19.896   4.233   1.992
83464W        W87532  21.858   6.144   2.503
83465W        W87533  21.776   4.131   2.064
83466W        W87534  18.315   6.961   1.440
83467W        W87535  18.824   6.148   0.976
83468W        W87536  18.739   3.765   3.529
83469W        W87537  19.858   6.618   3.631
83470W        W87538  21.613   5.586   1.421
83471W        W87539  20.967   5.763   0.301
83472W        W87540  20.262   7.284   2.513
83473W        W87541  21.119   6.006   3.550
83474W        W87542  19.934   3.716   0.830
83475W        W87543  20.647   4.585   1.689
83476W        W87544  18.333   6.172   2.021
83477W        W87545  19.586   4.134   0.662
83478W        W87546  19.390   5.618   3.511
83479W        W87547  20.384   4.599   1.225
83480W        W87548  20.589   6.009   2.347
83481W        W87549  18.743   6.614   2.782
83482W        W87550  19.334   6.597   3.505
83483W        W87551  19.185   4.394   0.519
83484W        W87552  20.702   4.536   0.844
83485W        W87553  20.660   6.644   3.081
83486W        W87554  19.345   5.236   1.680
83487W        W87555  19.000   6.934   2.545
83488W        W87556  21.745   7.051   0.146
83489W        W87557  18.608   5.723   3.142
83490W        W87558  20.603   5.985   1.830
83491W        W87559  19.039   5.634   1.072
83492W        W87560  19.410   6.641   2.467
83493W        W87561  19.788   4.060   1.508
83494W        W87562  18.399   6.044   0.438
83495W        W87563  19.918   4.995   0.308
83496W        W87564  18.564   5.544   1.327
83497W        W87565  19.854   4.186   2.791
83498W        W87566  21.526   3.895   0.218
83499W        W87567  21.619   5.641   3.317
83500W        W87568  20.273   6.898   3.469
83501W        W87569  21.831   5.992   2.991
83502W        W87570  21.239   6.790   3.602
83503W        W87571  18.978   7.246   2.080
83504W        W87572  21.837   5.868   0.954
83505W        W87573  20.367   5.135   1.467
83506W        W87574  20.134   3.747   1.357
83507W        W87575  19.193   6.731   1.194
83508W        W87576  19.692   4.472   2.419
83509W        W87577  19.392   3.841   1.888
83510W        W87578  18.455   6.663   0.436
83511W        W87579  20.271   6.027   1.154
83512W        W87580  19.146   6.822   3.033
83513W        W87581  18.623   5.645   0.729
83514W        W87582  18.508   4.188   1.728
83515W        W87583  20.056   6.153   1.785
83516W        W87584  18.308   4.007   0.805
83517W        W87585  20.972   5.213   2.732
83518W        W87586  20.849   4.599   0.304
83519W        W87587  21.366   6.271   1.952
83520W        W87588  20.027   6.755   1.783
83521W        W87589  19.439   6.859   0.694
83522W        W87590  20.721   3.762   0.124
83523W        W87591  18.521   7.022   1.865
83524W        W87592  20.718   4.780   3.500
83525W        W87593  18.701   4.310   3.499
83526W        W87594  18.432   4.910   0.832
83527W        W87595  19.123   4.899   0.557
83528W        W87596  20.886   5.226   3.374
83529W        W87597  19.229   5.507   2.083
83530W        W87598  20.703   3.793   1.203
83531W        W87599  19.834   7.224   1.706
83532W        W87600  21.048   6.686   2.643
83533W        W87601  20.632   6.835   1.754
83534W        W87602  20.651   5.815   1.348
83535W        W87603  20.113   4.040   0.419
83536W        W87604  21.794   3.668   1.141
83537W        W87605  19.482   5.303   0.304
83538W        W87606  21.648   4.640   1.294
83539W        W87607  20.340   5.810   0.171
83540W        W87608  21.276   6.010   2.919
83541W        W87609  20.930   6.711   0.386
83542W        W87610  19.545   4.386   3.292
83543W        W87611  19.365   4.970   2.533
83544W        W87612  21.457   6.465   2.810
83545W        W87613  20.557   4.415   3.187
83546W        W87614  18.401   4.886   2.964
83547W        W87615  20.161   5.363   2.690
83548W        W87616  18.518   6.121   1.347
83549W        W87617  18.665   5.418   2.237
83550W        W87618  20.982   5.704   2.587
83551W        W87619  20.754   7.084   3.398
83552W        W87620  20.650   4.823   2.951
83553W        W87621  20.927   6.877   1.356
83554W        W87622  19.929   6.597   2.679
83555W        W87623  19.414   6.952   1.948
83556W        W87624  21.219   6.123   2.367
83557W        W87625  20.269   6.195   3.504
83558W        W87626  18.874   6.148   1.843
83559W        W87627  21.220   5.907   1.488
83560W        W87628  20.861   6.973   2.239
83561W        W87629  18.839   6.702   2.109
83562W        W87630  19.860   4.754   3.319
83563W        W87631  20.311   6.920   0.830
83564W        W87632  19.619   6.175   3.468
83565W        W87633  19.745   6.413   0.845
83566W        W87634  18.966   5.153   0.104
83567W        W87635  18.305   7.239   7.003
83568W        W87636  18.681   6.132   6.526
83569W        W87637  21.386   5.862   4.296
83570W        W87638  21.516   6.947   6.323
83571W        W87639  19.434   6.938   3.849
83572W        W87640  19.517   5.090   4.832
83573W        W87641  19.032   4.938   4.996
83574W        W87642  20.023   5.753   4.430
83575W        W87643  19.698   6.845   6.785
83576W        W87644  18.347   4.406   6.748
83577W        W87645  19.109   3.686   6.550
83578W        W87646  20.803   4.074   5.437
83579W        W87647  20.452   4.945   4.007
83580W        W87648  21.022   4.379   7.098
83581W        W87649  18.388   4.171   6.223
83582W        W87650  18.487   6.790   7.244
83583W        W87651  20.009   6.180   3.976
83584W        W87652  18.441   4.963   5.669
83585W        W87653  19.334   4.854   6.906
83586W        W87654  21.793   4.713   5.405
83587W        W87655  21.557   5.756   6.264
83588W        W87656  19.865   5.089   5.291
83589W        W87657  20.411   6.428   5.660
83590W        W87658  18.911   5.862   5.892
83591W        W87659  18.270   5.390   5.463
83592W        W87660  19.306   5.362   6.655
83593W        W87661  21.577   5.145   6.909
83594W        W87662  19.193   6.589   5.354
83595W        W87663  20.314   6.278   6.488
83596W        W87664  19.534   4.918   5.713
83597W        W87665  19.826   5.702   5.356
83598W        W87666  20.823   6.475   7.204
83599W        W87667  19.902   5.795   7.214
83600W        W87668  19.883   5.511   6.692
83601W        W87669  18.292   4.902   7.214
83602W        W87670  21.124   6.437   6.813
83603W        W87671  18.705   4.019   4.811
83604W        W87672  19.232   6.277   5.810
83605W        W87673  21.695   6.060   5.100
83606W        W87674  21.108   4.460   5.667
83607W        W87675  21.393   4.413   3.762
83608W        W87676  21.858   5.214   6.068
83609W        W87677  19.825   6.921   5.821
83610W        W87678  21.599   6.387   4.259
83611W        W87679  18.728   7.173   4.013
83612W        W87680  19.121   7.219   4.689
83613W        W87681  18.918   3.973   6.115
83614W        W87682  21.541   4.991   6.390
83615W        W87683  20.946   5.413   4.849
83616W        W87684  20.912   5.101   3.876
83617W        W87685  20.120   6.245   6.016
83618W        W87686  19.926   4.575   5.215
83619W        W87687  20.526   6.662   6.209
83620W        W87688  21.397   5.453   4.631
83621W        W87689  20.299   4.111   4.647
83622W        W87690  18.956   6.805   4.330
83623W        W87691  18.327   4.304   4.929
83624W        W87692  21.113   4.911   5.403
83625W        W87693  18.571   6.528   5.318
83626W        W87694  19.912   6.878   4.188
83627W        W87695  21.304   4.904   3.652
83628W        W87696  18.327   6.662   5.816
83629W        W87697  19.118   6.234   6.296
83630W        W87698  19.491   5.594   4.915
83631W        W87699  19.513   3.999   6.008
83632W        W87700  21.742   3.761   5.305
83633W        W87701  18.961   5.633   3.773
83634W        W87702  18.616   4.666   3.952
83635W        W87703  18.678   6.622   4.746
83636W        W87704  19.809   6.105   4.994
83637W        W87705  21.141   6.964   6.708
83638W        W87706  20.067   4.606   4.392
83639W        W87707  21.450   7.004   5.164
83640W        W87708  21.127   4.857   6.762
83641W        W87709  21.840   6.513   4.896
83642W        W87710  20.467   5.805   6.380
83643W        W87711  18.233   5.356   4.586
83644W        W87712  19.344   5.771   6.159
83645W        W87713  20.548   5.035   4.537
83646W        W87714  20.425   5.525   4.641
83647W        W87715  18.768   4.945   6.115
83648W        W87716  18.753   4.821   7.037
83649W        W87717  18.643   3.738   5.196
83650W        W87718  20.411   4.085   5.757
83651W        W87719  20.059   4.270   6.920
83652W        W87720  20.414   4.419   4.098
83653W        W87721  21.597   6.812   6.852
83654W        W87722  20.564   3.893   6.891
83655W        W87723  21.583   6.194   7.013
83656W        W87724  21.013   4.361   6.609
83657W        W87725  20.813   4.299   4.879
83658W        W87726  21.206   5.433   7.283
83659W        W87727  18.946   7.009   5.269
83660W        W87728  19.604   4.726   4.255
83661W        W87729  19.173   4.010   6.919
83662W        W87730  21.225   4.494   4.600
83663W        W87731  21.592   4.976   4.545
83664W        W87732  19.335   7.193   7.016
83665W        W87733  19.261   3.729   4.251
83666W        W87734  21.582   4.263   5.286
83667W        W87735  21.732   6.512   3.731
83668W        W87736  18.639   5.715   5.433
83669W        W87737  20.556   4.302   3.663
83670W        W87738  21.690   6.634   5.383
83671W        W87739  21.729   3.828   6.133
83672W        W87740  20.174   5.040   6.687
83673W        W87741  20.267   6.379   4.390
83674W        W87742  20.667   5.673   7.130
83675W        W87743  20.341   3.650   5.439
83676W        W87744  18.953   4.553   5.502
83677W        W87745  18.507   5.753   6.276
83678W        W87746  20.366   6.946   4.982
83679W        W87747  21.560   4.543   5.854
83680W        W87748  20.197   6.890   6.621
83681W        W87749  21.540   5.949   3.826
83682W        W87750  19.975   5.432   4.887
83683W        W87751  21.827   3.943   6.628
83684W        W87752  19.976   5.778   6.222
83685W        W87753  20.193   4.664   5.667
83686W        W87754  21.045   4.962   4.505
83687W        W87755  21.332   4.695   4.147
83688W        W87756  21.141   6.735   4.536
83689W        W87757  20.975   6.338   5.332
83690W        W87758  20.871   5.417   4.310
83691W        W87759  20.304   5.627   5.296
83692W        W87760  21.185   5.415   5.363
83693W        W87761  18.560   4.430   5.787
83694W        W87762  21.338   5.482   6.614
83695W        W87763  21.689   7.100   5.760
83696W        W87764  19.619   6.544   5.162
83697W        W87765  20.626   7.077   6.486
83698W        W87766  20.620   4.407   6.250
83699W        W87767  19.827   7.115   6.311
83700W        W87768  21.524   4.069   4.777
83701W        W87769  21.315   5.388   6.078
83702W        W87770  18.298   4.709   6.116
83703W        W87771  21.158   4.504   5.134
83704W        W87772  21.569   4.655   6.911
83705W        W87773  20.454   6.354   5.129
83706W        W87774  19.710   6.945   4.742
83707W        W87775  18.825   4.125   4.000
83708W        W87776  19.929   3.779   5.810
83709W        W87777  18.957   6.899   3.658
83710W        W87778  19.331   5.365   4.409
83711W        W87779  19.985   5.994   6.722
83712W        W87780  19.815   4.352   4.712
83713W        W87781  21.171   3.949   5.140
83714W        W87782  20.891   7.231   5.468
83715W        W87783  20.303   6.879   5.808
83716W        W87784  19.699   5.916   5.769
83717W        W87785  21.469   6.639   5.895
83718W        W87786  19.163   4.142   4.664
83719W        W87787  19.685   6.439   5.624
83720W        W87788  19.168   4.370   3.689
83721W        W87789  19.969   4.979   6.083
83722W        W87790  20.817   3.845   5.953
83723W        W87791  18.237   5.688   5.838
83724W        W87792  19.941   5.506   3.996
83725W        W87793  19.209   3.821   3.766
83726W        W87794  19.947   4.902   4.817
83727W        W87795  20.917   3.878   6.516
83728W        W87796  19.505   5.890   6.625
83729W        W87797  20.309   5.672   6.842
83730W        W87798  20.926   5.702   6.735
83731W        W87799  20.210   3.842   7.240
83732W        W87800  19.432   4.458   5.633
83733W        W87801  18.858   4.414   5.031
83734W        W87802  18.644   7.126   4.707
83735W        W87803  19.976   6.456   6.832
83736W        W87804  19.011   5.941   4.191
83737W        W87805  20.691   5.326   5.412
83738W        W87806  20.971   5.125   5.811
83739W        W87807  20.176   5.799   5.745
83740W        W87808  20.646   6.173   3.877
83741W        W87809  20.318   4.194   5.205
83742W        W87810  21.797   4.472   4.473
83743W        W87811  18.291   7.061   6.504
83744W        W87812  18.708   6.287   6.036
83745W        W87813  18.275   7.133   4.268
83746W        W87814  20.174   4.403   6.074
83747W        W87815  19.537   6.426   3.923
83748W        W87816  21.442   6.808   4.109
83749W        W87817  20.417   5.461   4.123
83750W        W87818  19.260   4.652   4.640
83751W        W87819  20.092   4.562   3.692
83752W        W87820  20.676   6.127   6.870
83753W        W87821  21.029   4.033   4.487
83754W        W87822  18.359   3.881   3.935
83755W        W87823  19.645   6.200   6.225
83756W        W87824  19.444   6.116   5.317
83757W        W87825  19.186   6.068   3.715
83758W        W87826  18.427   6.309   4.483
83759W        W87827  18.931   5.379   6.925
83760W        W87828  19.635   3.939   7.111
83761W        W87829  20.344   4.081   6.467
83762W        W87830  19.539   3.849   4.748
83763W        W87831  20.598   3.926   4.253
83764W        W87832  18.543   3.858   5.830
83765W        W87833  18.591   4.821   5.200
83766W        W87834  21.280   3.929   5.606
83767W        W87835  18.702   4.427   4.420
83768W        W87836  21.273   4.115   6.036
83769W        W87837  21.669   5.318   3.721
83770W        W87838  18.961   4.076   5.540
83771W        W87839  20.075   4.648   6.480
83772W        W87840  18.223   4.338   3.958
83773W        W87841  19.009   5.727   6.519
83774W        W87842  20.367   5.125   5.698
83775W        W87843  20.234   7.204   3.994
83776W        W87844  18.380   5.711   3.691
83777W        W87845  19.115   6.122   6.817
83778W        W87846  18.636   5.289   6.448
83779W        W87847  19.627   5.394   6.242
83780W        W87848  21.395   3.753   6.504
83781W        W87849  21.793   5.363   6.495
83782W        W87850  21.781   5.563   4.181
83783W        W87851  20.644   5.895   4.280
83784W        W87852  21.118   7.195   3.975
83785W        W87853  20.295   5.185   7.117
83786W        W87854  18.625   6.152   7.157
83787W        W87855  21.831   4.074   7.109
83788W        W87856  21.549   5.002   5.730
83789W        W87857  19.857   7.132   7.207
83790W        W87858  19.712   3.761   3.934
83791W        W87859  21.251   6.360   3.877
83792W        W87860  19.020   4.453   6.763
83793W        W87861  19.454   6.447   6.625
83794W        W87862  21.580   4.438   6.423
83795W        W87863  20.791   7.097   4.391
83796W        W87864  21.030   5.716   5.758
83797W        W87865  19.280   4.132   6.425
83798W        W87866  19.749   5.201   7.182
83799W        W87867  19.252   6.380   4.376
83800W        W87868  21.007   5.878   4.640
83801W        W87869  18.775   4.504   6.364
83802W        W87870  20.104   6.566   4.828
83803W        W87871  21.854   5.126   5.009
83804W        W87872  20.076   3.759   6.728
83805W        W87873  20.856   6.464   5.807
83806W        W87874  21.159   6.808   5.515
83807W        W87875  20.378   6.610   3.943
83808W        W87876  18.388   6.502   6.785
83809W        W87877  19.131   4.494   6.023
83810W        W87878  19.101   3.842   5.133
83811W        W87879  20.722   4.684   5.825
83812W        W87880  19.520   5.855   4.025
83813W        W87881  21.518   5.797   5.524
83814W        W87882  18.845   6.555   6.947
83815W        W87883  21.232   7.237   4.744
83816W        W87884  19.331   4.257   5.189
83817W        W87885  19.100   5.750   5.279
83818W        W87886  19.413   7.161   6.029
83819W        W87887  21.480   7.257   7.061
83820W        W87888  20.639   5.445   5.994
83821W        W87889  18.488   5.243   3.909
83822W        W87890  21.622   6.901   4.606
83823W        W87891  21.459   4.225   4.225
83824W        W87892  19.598   3.744   6.628
83825W        W87893  21.304   6.546   5.086
83826W        W87894  21.333   5.102   4.991
83827W        W87895  19.450   4.775   5.207
83828W        W87896  19.695   5.037   6.531
83829W        W87897  20.806   6.190   6.394
83830W        W87898  19.456   4.644   6.506
83831W        W87899  19.435   7.110   5.122
83832W        W87900  18.752   7.069   6.756
83833W        W87901  18.864   6.430   3.886
83834W        W87902  21.381   6.188   4.696
83835W        W87903  18.985   4.980   6.582
83836W        W87904  21.758   4.910   4.063
83837W        W87905  19.503   5.967   4.534
83838W        W87906  20.602   5.349   6.615
83839W        W87907  20.493   4.977   6.159
83840W        W87908  19.053   5.349   6.188
83841W        W87909  21.263   7.237   6.017
83842W        W87910  21.054   3.871   7.011
83843W        W87911  18.718   4.021   6.598
83844W        W87912  19.057   5.044   5.651
83845W        W87913  19.426   4.858   3.773
83846W        W87914  18.229   6.617   6.318
83847W        W87915  19.814   5.326   5.761
83848W        W87916  19.637   4.351   3.866
83849W        W87917  18.772   5.167   4.647
83850W        W87918  18.543   7.019   6.084
83851W        W87919  21.338   5.245   4.192
83852W        W87920  21.433   4.161   6.878
83853W        W87921  20.869   6.370   4.841
83854W        W87922  18.467   5.294   7.018
83855W        W87923  21.433   3.758   4.314
83856W        W87924  20.953   6.233   4.325
83857W        W87925  19.855   5.291   4.410
83858W        W87926  21.042   4.095   3.933
83859W        W87927  21.107   4.702   6.119
83860W        W87928  18.816   5.295   5.326
83861W        W87929  19.110   6.234   4.975
83862W        W87930  20.873   4.854   4.940
83863W        W87931  19.896   4.233   5.636
83864W        W87932  21.858   6.144   6.147
83865W        W87933  21.776   4.131   5.708
83866W        W87934  18.315   6.961   5.084
83867W        W87935  18.824   6.148   4.620
83868W        W87936  18.739   3.765   7.173
83869W        W87937  19.858   6.618   7.275
83870W        W87938  21.613   5.586   5.065
83871W        W87939  20.967   5.763   3.945
83872W        W87940  20.262   7.284   6.157
83873W        W87941  21.119   6.006   7.194
83874W        W87942  19.934   3.716   4.474
83875W        W87943  20.647   4.585   5.333
83876W        W87944  18.333   6.172   5.665
83877W        W87945  19.586   4.134   4.306
83878W        W87946  19.390   5.618   7.155
83879W        W87947  20.384   4.599   4.869
83880W        W87948  20.589   6.009   5.991
83881W        W87949  18.743   6.614   6.426
83882W        W87950  19.334   6.597   7.149
83883W        W87951  19.185   4.394   4.163
83884W        W87952  20.702   4.536   4.488
83885W        W87953  20.660   6.644   6.725
83886W        W87954  19.345   5.236   5.324
83887W        W87955  19.000   6.934   6.189
83888W        W87956  21.745   7.051   3.790
83889W        W87957  18.608   5.723   6.786
83890W        W87958  20.603   5.985   5.474
83891W        W87959  19.039   5.634   4.716
83892W        W87960  19.410   6.641   6.111
83893W        W87961  19.788   4.060   5.152
83894W        W87962  18.399   6.044   4.082
83895W        W87963  19.918   4.995   3.952
83896W        W87964  18.564   5.544   4.971
83897W        W87965  19.854   4.186   6.435
83898W        W87966  21.526   3.895   3.862
83899W        W87967  21.619   5.641   6.961
83900W        W87968  20.273   6.898   7.113
83901W        W87969  21.831   5.992   6.635
83902W        W87970  21.239   6.790   7.246
83903W        W87971  18.978   7.246   5.724
83904W        W87972  21.837   5.868   4.598
83905W        W87973  20.367   5.135   5.111
83906W        W87974  20.134   3.747   5.001
83907W        W87975  19.193   6.731   4.838
83908W        W87976  19.692   4.472   6.063
83909W        W87977  19.392   3.841   5.532
83910W        W87978  18.455   6.663   4.080
83911W        W87979  20.271   6.027   4.798
83912W        W87980  19.146   6.822   6.677
83913W        W87981  18.623   5.645   4.373
83914W        W87982  18.508   4.188   5.372
83915W        W87983  20.056   6.153   5.429
83916W        W87984  18.308   4.007   4.449
83917W        W87985  20.972   5.213   6.376
83918W        W87986  20.849   4.599   3.948
83919W        W87987  21.366   6.271   5.596
83920W        W87988  20.027   6.755   5.427
83921W        W87989  19.439   6.859   4.338
83922W        W87990  20.721   3.762   3.768
83923W        W87991  18.521   7.022   5.509
83924W        W87992  20.718   4.780   7.144
83925W        W87993  18.701   4.310   7.143
83926W        W87994  18.432   4.910   4.476
83927W        W87995  19.123   4.899   4.201
83928W        W87996  20.886   5.226   7.018
83929W        W87997  19.229   5.507   5.727
83930W        W87998  20.703   3.793   4.847
83931W        W87999  19.834   7.224   5.350
83932W        W88000  21.048   6.686   6.287
83933W        W88001  20.632   6.835   5.398
83934W        W88002  20.651   5.815   4.992
83935W        W88003  20.113   4.040   4.063
83936W        W88004  21.794   3.668   4.785
83937W        W88005  19.482   5.303   3.948
83938W        W88006  21.648   4.640   4.938
83939W        W88007  20.340   5.810   3.815
83940W        W88008  21.276   6.010   6.563
83941W        W88009  20.930   6.711   4.030
83942W        W88010  19.545   4.386   6.936
83943W        W88011  19.365   4.970   6.177
83944W        W88012  21.457   6.465   6.454
83945W        W88013  20.557   4.415   6.831
83946W        W88014  18.401   4.886   6.608
83947W        W88015  20.161   5.363   6.334
83948W        W88016  18.518   6.121   4.991
83949W        W88017  18.665   5.418   5.881
83950W        W88018  20.982   5.704   6.231
83951W        W88019  20.754   7.084   7.042
83952W        W88020  20.650   4.823   6.595
83953W        W88021  20.927   6.877   5.000
83954W        W88022  19.929   6.597   6.323
83955W        W88023  19.414   6.952   5.592
83956W        W88024  21.219   6.123   6.011
83957W        W88025  20.269   6.195   7.148
83958W        W88026  18.874   6.148   5.487
83959W        W88027  21.220   5.907   5.132
83960W        W88028  20.861   6.973   5.883
83961W        W88029  18.839   6.702   5.753
83962W        W88030  19.860   4.754   6.963
83963W        W88031  20.311   6.920   4.474
83964W        W88032  19.619   6.175   7.112
83965W        W88033  19.745   6.413   4.489
83966W        W88034  18.966   5.153   3.748
83967W        W88035  18.305   7.239  10.648
83968W        W88036  18.681   6.132  10.171
83969W        W88037  21.386   5.862   7.941
83970W        W88038  21.516   6.947   9.968
83971W        W88039  19.434   6.938   7.494
83972W        W88040  19.517   5.090   8.477
83973W        W88041  19.032   4.938   8.641
83974W        W88042  20.023   5.753   8.075
83975W        W88043  19.698   6.845  10.430
83976W        W88044  18.347   4.406  10.393
83977W        W88045  19.109   3.686  10.195
83978W        W88046  20.803   4.074   9.082
83979W        W88047  20.452   4.945   7.652
83980W        W88048  21.022   4.379  10.743
83981W        W88049  18.388   4.171   9.868
83982W        W88050  18.487   6.790  10.889
83983W        W88051  20.009   6.180   7.621
83984W        W88052  18.441   4.963   9.314
83985W        W88053  19.334   4.854  10.551
83986W        W88054  21.793   4.713   9.050
83987W        W88055  21.557   5.756   9.909
83988W        W88056  19.865   5.089   8.936
83989W        W88057  20.411   6.428   9.305
83990W        W88058  18.911   5.862   9.537
83991W        W88059  18.270   5.390   9.108
83992W        W88060  19.306   5.362  10.300
83993W        W88061  21.577   5.145  10.554
83994W        W88062  19.193   6.589   8.999
83995W        W88063  20.314   6.278  10.133
83996W        W88064  19.534   4.918   9.358
83997W        W88065  19.826   5.702   9.001
83998W        W88066  20.823   6.475  10.849
83999W        W88067  19.902   5.795  10.859
84000W        W88068  19.883   5.511  10.337
84001W        W88069  18.292   4.902  10.859
84002W        W88070  21.124   6.437  10.458
84003W        W88071  18.705   4.019   8.456
84004W        W88072  19.232   6.277   9.455
84005W        W88073  21.695   6.060   8.745
84006W        W88074  21.108   4.460   9.312
84007W        W88075  21.393   4.413   7.407
84008W        W88076  21.858   5.214   9.713
84009W        W88077  19.825   6.921   9.466
84010W        W88078  21.599   6.387   7.904
84011W        W88079  18.728   7.173   7.658
84012W        W88080  19.121   7.219   8.334
84013W        W88081  18.918   3.973   9.760
84014W        W88082  21.541   4.991  10.035
84015W        W88083  20.946   5.413   8.494
84016W        W88084  20.912   5.101   7.521
84017W        W88085  20.120   6.245   9.661
84018W        W88086  19.926   4.575   8.860
84019W        W88087  20.526   6.662   9.854
84020W        W88088  21.397   5.453   8.276
84021W        W88089  20.299   4.111   8.292
84022W        W88090  18.956   6.805   7.975
84023W        W88091  18.327   4.304   8.574
84024W        W88092  21.113   4.911   9.048
84025W        W88093  18.571   6.528   8.963
84026W        W88094  19.912   6.878   7.833
84027W        W88095  21.304   4.904   7.297
84028W        W88096  18.327   6.662   9.461
84029W        W88097  19.118   6.234   9.941
84030W        W88098  19.491   5.594   8.560
84031W        W88099  19.513   3.999   9.653
84032W        W88100  21.742   3.761   8.950
84033W        W88101  18.961   5.633   7.418
84034W        W88102  18.616   4.666   7.597
84035W        W88103  18.678   6.622   8.391
84036W        W88104  19.809   6.105   8.639
84037W        W88105  21.141   6.964  10.353
84038W        W88106  20.067   4.606   8.037
84039W        W88107  21.450   7.004   8.809
84040W        W88108  21.127   4.857  10.407
84041W        W88109  21.840   6.513   8.541
84042W        W88110  20.467   5.805  10.025
84043W        W88111  18.233   5.356   8.231
84044W        W88112  19.344   5.771   9.804
84045W        W88113  20.548   5.035   8.182
84046W        W88114  20.425   5.525   8.286
84047W        W88115  18.768   4.945   9.760
84048W        W88116  18.753   4.821  10.682
84049W        W88117  18.643   3.738   8.841
84050W        W88118  20.411   4.085   9.402
84051W        W88119  20.059   4.270  10.565
84052W        W88120  20.414   4.419   7.743
84053W        W88121  21.597   6.812  10.497
84054W        W88122  20.564   3.893  10.536
84055W        W88123  21.583   6.194  10.658
84056W        W88124  21.013   4.361  10.254
84057W        W88125  20.813   4.299   8.524
84058W        W88126  21.206   5.433  10.928
84059W        W88127  18.946   7.009   8.914
84060W        W88128  19.604   4.726   7.900
84061W        W88129  19.173   4.010  10.564
84062W        W88130  21.225   4.494   8.245
84063W        W88131  21.592   4.976   8.190
84064W        W88132  19.335   7.193  10.661
84065W        W88133  19.261   3.729   7.896
84066W        W88134  21.582   4.263   8.931
84067W        W88135  21.732   6.512   7.376
84068W        W88136  18.639   5.715   9.078
84069W        W88137  20.556   4.302   7.308
84070W        W88138  21.690   6.634   9.028
84071W        W88139  21.729   3.828   9.778
84072W        W88140  20.174   5.040  10.332
84073W        W88141  20.267   6.379   8.035
84074W        W88142  20.341   3.650   9.084
84075W        W88143  18.953   4.553   9.147
84076W        W88144  18.507   5.753   9.921
84077W        W88145  20.366   6.946   8.627
84078W        W88146  21.560   4.543   9.499
84079W        W88147  20.197   6.890  10.266
84080W        W88148  21.540   5.949   7.471
84081W        W88149  19.975   5.432   8.532
84082W        W88150  21.827   3.943  10.273
84083W        W88151  19.976   5.778   9.867
84084W        W88152  20.193   4.664   9.312
84085W        W88153  21.045   4.962   8.150
84086W        W88154  21.332   4.695   7.792
84087W        W88155  21.141   6.735   8.181
84088W        W88156  20.975   6.338   8.977
84089W        W88157  20.871   5.417   7.955
84090W        W88158  20.304   5.627   8.941
84091W        W88159  21.185   5.415   9.008
84092W        W88160  18.560   4.430   9.432
84093W        W88161  21.338   5.482  10.259
84094W        W88162  21.689   7.100   9.405
84095W        W88163  19.619   6.544   8.807
84096W        W88164  20.626   7.077  10.131
84097W        W88165  20.620   4.407   9.895
84098W        W88166  19.827   7.115   9.956
84099W        W88167  21.524   4.069   8.422
84100W        W88168  21.315   5.388   9.723
84101W        W88169  18.298   4.709   9.761
84102W        W88170  21.158   4.504   8.779
84103W        W88171  21.569   4.655  10.556
84104W        W88172  20.454   6.354   8.774
84105W        W88173  19.710   6.945   8.387
84106W        W88174  18.825   4.125   7.645
84107W        W88175  19.929   3.779   9.455
84108W        W88176  18.957   6.899   7.303
84109W        W88177  19.331   5.365   8.054
84110W        W88178  19.985   5.994  10.367
84111W        W88179  19.815   4.352   8.357
84112W        W88180  21.171   3.949   8.785
84113W        W88181  20.891   7.231   9.113
84114W        W88182  20.303   6.879   9.453
84115W        W88183  19.699   5.916   9.414
84116W        W88184  21.469   6.639   9.540
84117W        W88185  19.163   4.142   8.309
84118W        W88186  19.685   6.439   9.269
84119W        W88187  19.168   4.370   7.334
84120W        W88188  19.969   4.979   9.728
84121W        W88189  20.817   3.845   9.598
84122W        W88190  18.237   5.688   9.483
84123W        W88191  19.941   5.506   7.641
84124W        W88192  19.209   3.821   7.411
84125W        W88193  19.947   4.902   8.462
84126W        W88194  20.917   3.878  10.161
84127W        W88195  19.505   5.890  10.270
84128W        W88196  20.309   5.672  10.487
84129W        W88197  20.926   5.702  10.380
84130W        W88198  20.210   3.842  10.885
84131W        W88199  19.432   4.458   9.278
84132W        W88200  18.858   4.414   8.676
84133W        W88201  18.644   7.126   8.352
84134W        W88202  19.976   6.456  10.477
84135W        W88203  19.011   5.941   7.836
84136W        W88204  20.691   5.326   9.057
84137W        W88205  20.971   5.125   9.456
84138W        W88206  20.176   5.799   9.390
84139W        W88207  20.646   6.173   7.522
84140W        W88208  20.318   4.194   8.850
84141W        W88209  21.797   4.472   8.118
84142W        W88210  18.291   7.061  10.149
84143W        W88211  18.708   6.287   9.681
84144W        W88212  18.275   7.133   7.913
84145W        W88213  20.174   4.403   9.719
84146W        W88214  19.537   6.426   7.568
84147W        W88215  21.442   6.808   7.754
84148W        W88216  20.417   5.461   7.768
84149W        W88217  19.260   4.652   8.285
84150W        W88218  20.092   4.562   7.337
84151W        W88219  20.676   6.127  10.515
84152W        W88220  21.029   4.033   8.132
84153W        W88221  18.359   3.881   7.580
84154W        W88222  19.645   6.200   9.870
84155W        W88223  19.444   6.116   8.962
84156W        W88224  19.186   6.068   7.360
84157W        W88225  18.427   6.309   8.128
84158W        W88226  18.931   5.379  10.570
84159W        W88227  19.635   3.939  10.756
84160W        W88228  20.344   4.081  10.112
84161W        W88229  19.539   3.849   8.393
84162W        W88230  20.598   3.926   7.898
84163W        W88231  18.543   3.858   9.475
84164W        W88232  18.591   4.821   8.845
84165W        W88233  21.280   3.929   9.251
84166W        W88234  18.702   4.427   8.065
84167W        W88235  21.273   4.115   9.681
84168W        W88236  21.669   5.318   7.366
84169W        W88237  18.961   4.076   9.185
84170W        W88238  20.075   4.648  10.125
84171W        W88239  18.223   4.338   7.603
84172W        W88240  19.009   5.727  10.164
84173W        W88241  20.367   5.125   9.343
84174W        W88242  20.234   7.204   7.639
84175W        W88243  18.380   5.711   7.336
84176W        W88244  19.115   6.122  10.462
84177W        W88245  18.636   5.289  10.093
84178W        W88246  19.627   5.394   9.887
84179W        W88247  21.395   3.753  10.149
84180W        W88248  21.793   5.363  10.140
84181W        W88249  21.781   5.563   7.826
84182W        W88250  20.644   5.895   7.925
84183W        W88251  21.118   7.195   7.620
84184W        W88252  20.295   5.185  10.762
84185W        W88253  18.625   6.152  10.802
84186W        W88254  21.831   4.074  10.754
84187W        W88255  21.549   5.002   9.375
84188W        W88256  19.857   7.132  10.852
84189W        W88257  19.712   3.761   7.579
84190W        W88258  21.251   6.360   7.522
84191W        W88259  19.020   4.453  10.408
84192W        W88260  19.454   6.447  10.270
84193W        W88261  21.580   4.438  10.068
84194W        W88262  20.791   7.097   8.036
84195W        W88263  21.030   5.716   9.403
84196W        W88264  19.280   4.132  10.070
84197W        W88265  19.749   5.201  10.827
84198W        W88266  19.252   6.380   8.021
84199W        W88267  21.007   5.878   8.285
84200W        W88268  18.775   4.504  10.009
84201W        W88269  20.104   6.566   8.473
84202W        W88270  21.854   5.126   8.654
84203W        W88271  20.076   3.759  10.373
84204W        W88272  20.856   6.464   9.452
84205W        W88273  21.159   6.808   9.160
84206W        W88274  20.378   6.610   7.588
84207W        W88275  18.388   6.502  10.430
84208W        W88276  19.131   4.494   9.668
84209W        W88277  19.101   3.842   8.778
84210W        W88278  20.722   4.684   9.470
84211W        W88279  19.520   5.855   7.670
84212W        W88280  21.518   5.797   9.169
84213W        W88281  18.845   6.555  10.592
84214W        W88282  21.232   7.237   8.389
84215W        W88283  19.331   4.257   8.834
84216W        W88284  19.100   5.750   8.924
84217W        W88285  19.413   7.161   9.674
84218W        W88286  21.480   7.257  10.706
84219W        W88287  20.639   5.445   9.639
84220W        W88288  18.488   5.243   7.554
84221W        W88289  21.622   6.901   8.251
84222W        W88290  21.459   4.225   7.870
84223W        W88291  19.598   3.744  10.273
84224W        W88292  21.304   6.546   8.731
84225W        W88293  21.333   5.102   8.636
84226W        W88294  19.450   4.775   8.852
84227W        W88295  19.695   5.037  10.176
84228W        W88296  20.806   6.190  10.039
84229W        W88297  19.456   4.644  10.151
84230W        W88298  19.435   7.110   8.767
84231W        W88299  18.752   7.069  10.401
84232W        W88300  18.864   6.430   7.531
84233W        W88301  21.381   6.188   8.341
84234W        W88302  18.985   4.980  10.227
84235W        W88303  21.758   4.910   7.708
84236W        W88304  19.503   5.967   8.179
84237W        W88305  20.602   5.349  10.260
84238W        W88306  20.493   4.977   9.804
84239W        W88307  19.053   5.349   9.833
84240W        W88308  21.263   7.237   9.662
84241W        W88309  21.054   3.871  10.656
84242W        W88310  18.718   4.021  10.243
84243W        W88311  19.057   5.044   9.296
84244W        W88312  19.426   4.858   7.418
84245W        W88313  18.229   6.617   9.963
84246W        W88314  19.814   5.326   9.406
84247W        W88315  19.637   4.351   7.511
84248W        W88316  18.772   5.167   8.292
84249W        W88317  18.543   7.019   9.729
84250W        W88318  21.338   5.245   7.837
84251W        W88319  21.433   4.161  10.523
84252W        W88320  20.869   6.370   8.486
84253W        W88321  18.467   5.294  10.663
84254W        W88322  21.433   3.758   7.959
84255W        W88323  20.953   6.233   7.970
84256W        W88324  19.855   5.291   8.055
84257W        W88325  21.042   4.095   7.578
84258W        W88326  21.107   4.702   9.764
84259W        W88327  18.816   5.295   8.971
84260W        W88328  19.110   6.234   8.620
84261W        W88329  20.873   4.854   8.585
84262W        W88330  19.896   4.233   9.281
84263W        W88331  21.858   6.144   9.792
84264W        W88332  21.776   4.131   9.353
84265W        W88333  18.315   6.961   8.729
84266W        W88334  18.824   6.148   8.265
84267W        W88335  18.739   3.765  10.818
84268W        W88336  19.858   6.618  10.920
84269W        W88337  21.613   5.586   8.710
84270W        W88338  20.967   5.763   7.590
84271W        W88339  20.262   7.284   9.802
84272W        W88340  21.119   6.006  10.839
84273W        W88341  19.934   3.716   8.119
84274W        W88342  20.647   4.585   8.978
84275W        W88343  18.333   6.172   9.310
84276W        W88344  19.586   4.134   7.951
84277W        W88345  19.390   5.618  10.800
84278W        W88346  20.384   4.599   8.514
84279W        W88347  20.589   6.009   9.636
84280W        W88348  18.743   6.614  10.071
84281W        W88349  19.334   6.597  10.794
84282W        W88350  19.185   4.394   7.808
84283W        W88351  20.702   4.536   8.133
84284W        W88352  20.660   6.644  10.370
84285W        W88353  19.345   5.236   8.969
84286W        W88354  19.000   6.934   9.834
84287W        W88355  21.745   7.051   7.435
84288W        W88356  18.608   5.723  10.431
84289W        W88357  20.603   5.985   9.119
84290W        W88358  19.039   5.634   8.361
84291W        W88359  19.410   6.641   9.756
84292W        W88360  19.788   4.060   8.797
84293W        W88361  18.399   6.044   7.727
84294W        W88362  19.918   4.995   7.597
84295W        W88363  18.564   5.544   8.616
84296W        W88364  19.854   4.186  10.080
84297W        W88365  21.526   3.895   7.507
84298W        W88366  21.619   5.641  10.606
84299W        W88367  20.273   6.898  10.758
84300W        W88368  21.831   5.992  10.280
84301W        W88369  21.239   6.790  10.891
84302W        W88370  18.978   7.246   9.369
84303W        W88371  21.837   5.868   8.243
84304W        W88372  20.367   5.135   8.756
84305W        W88373  20.134   3.747   8.646
84306W        W88374  19.193   6.731   8.483
84307W        W88375  19.692   4.472   9.708
84308W        W88376  19.392   3.841   9.177
84309W        W88377  18.455   6.663   7.725
84310W        W88378  20.271   6.027   8.443
84311W        W88379  19.146   6.822  10.322
84312W        W88380  18.623   5.645   8.018
84313W        W88381  18.508   4.188   9.017
84314W        W88382  20.056   6.153   9.074
84315W        W88383  18.308   4.007   8.094
84316W        W88384  20.972   5.213  10.021
84317W        W88385  20.849   4.599   7.593
84318W        W88386  21.366   6.271   9.241
84319W        W88387  20.027   6.755   9.072
84320W        W88388  19.439   6.859   7.983
84321W        W88389  20.721   3.762   7.413
84322W        W88390  18.521   7.022   9.154
84323W        W88391  20.718   4.780  10.789
84324W        W88392  18.701   4.310  10.788
84325W        W88393  18.432   4.910   8.121
84326W        W88394  19.123   4.899   7.846
84327W        W88395  20.886   5.226  10.663
84328W        W88396  19.229   5.507   9.372
84329W        W88397  20.703   3.793   8.492
84330W        W88398  19.834   7.224   8.995
84331W        W88399  21.048   6.686   9.932
84332W        W88400  20.632   6.835   9.043
84333W        W88401  20.651   5.815   8.637
84334W        W88402  20.113   4.040   7.708
84335W        W88403  21.794   3.668   8.430
84336W        W88404  19.482   5.303   7.593
84337W        W88405  21.648   4.640   8.583
84338W        W88406  20.340   5.810   7.460
84339W        W88407  21.276   6.010  10.208
84340W        W88408  20.930   6.711   7.675
84341W        W88409  19.545   4.386  10.581
84342W        W88410  19.365   4.970   9.822
84343W        W88411  21.457   6.465  10.099
84344W        W88412  20.557   4.415  10.476
84345W        W88413  18.401   4.886  10.253
84346W        W88414  20.161   5.363   9.979
84347W        W88415  18.518   6.121   8.636
84348W        W88416  18.665   5.418   9.526
84349W        W88417  20.982   5.704   9.876
84350W        W88418  20.754   7.084  10.687
84351W        W88419  20.650   4.823  10.240
84352W        W88420  20.927   6.877   8.645
84353W        W88421  19.929   6.597   9.968
84354W        W88422  19.414   6.952   9.237
84355W        W88423  21.219   6.123   9.656
84356W        W88424  20.269   6.195  10.793
84357W        W88425  18.874   6.148   9.132
84358W        W88426  21.220   5.907   8.777
84359W        W88427  20.861   6.973   9.528
84360W        W88428  18.839   6.702   9.398
84361W        W88429  19.860   4.754  10.608
84362W        W88430  20.311   6.920   8.119
84363W        W88431  19.619   6.175  10.757
84364W        W88432  19.745   6.413   8.134
84365W        W88433  18.966   5.153   7.393
84366W        W88434  18.305   7.239  14.292
84367W        W88435  18.681   6.132  13.815
84368W        W88436  21.516   6.947  13.612
84369W        W88437  19.434   6.938  11.138
84370W        W88438  19.517   5.090  12.121
84371W        W88439  19.032   4.938  12.285
84372W        W88440  20.023   5.753  11.719
84373W        W88441  19.698   6.845  14.074
84374W        W88442  18.347   4.406  14.037
84375W        W88443  19.109   3.686  13.839
84376W        W88444  20.803   4.074  12.726
84377W        W88445  20.452   4.945  11.296
84378W        W88446  21.022   4.379  14.387
84379W        W88447  18.388   4.171  13.512
84380W        W88448  18.487   6.790  14.533
84381W        W88449  20.009   6.180  11.265
84382W        W88450  18.441   4.963  12.958
84383W        W88451  19.334   4.854  14.195
84384W        W88452  21.793   4.713  12.694
84385W        W88453  21.557   5.756  13.553
84386W        W88454  19.865   5.089  12.580
84387W        W88455  20.411   6.428  12.949
84388W        W88456  18.911   5.862  13.181
84389W        W88457  18.270   5.390  12.752
84390W        W88458  19.306   5.362  13.944
84391W        W88459  21.577   5.145  14.198
84392W        W88460  19.193   6.589  12.643
84393W        W88461  20.314   6.278  13.777
84394W        W88462  19.534   4.918  13.002
84395W        W88463  19.826   5.702  12.645
84396W        W88464  20.823   6.475  14.493
84397W        W88465  19.902   5.795  14.503
84398W        W88466  19.883   5.511  13.981
84399W        W88467  18.292   4.902  14.503
84400W        W88468  21.124   6.437  14.102
84401W        W88469  18.705   4.019  12.100
84402W        W88470  19.232   6.277  13.099
84403W        W88471  21.695   6.060  12.389
84404W        W88472  21.108   4.460  12.956
84405W        W88473  21.858   5.214  13.357
84406W        W88474  19.825   6.921  13.110
84407W        W88475  21.599   6.387  11.548
84408W        W88476  18.728   7.173  11.302
84409W        W88477  19.121   7.219  11.978
84410W        W88478  18.918   3.973  13.404
84411W        W88479  21.541   4.991  13.679
84412W        W88480  20.120   6.245  13.305
84413W        W88481  19.926   4.575  12.504
84414W        W88482  20.526   6.662  13.498
84415W        W88483  21.397   5.453  11.920
84416W        W88484  20.299   4.111  11.936
84417W        W88485  18.956   6.805  11.619
84418W        W88486  18.327   4.304  12.218
84419W        W88487  21.113   4.911  12.692
84420W        W88488  18.571   6.528  12.607
84421W        W88489  19.912   6.878  11.477
84422W        W88490  18.327   6.662  13.105
84423W        W88491  19.118   6.234  13.585
84424W        W88492  19.491   5.594  12.204
84425W        W88493  19.513   3.999  13.297
84426W        W88494  21.742   3.761  12.594
84427W        W88495  18.961   5.633  11.062
84428W        W88496  18.616   4.666  11.241
84429W        W88497  18.678   6.622  12.035
84430W        W88498  19.809   6.105  12.283
84431W        W88499  21.141   6.964  13.997
84432W        W88500  20.067   4.606  11.681
84433W        W88501  21.450   7.004  12.453
84434W        W88502  21.127   4.857  14.051
84435W        W88503  21.840   6.513  12.185
84436W        W88504  20.467   5.805  13.669
84437W        W88505  18.233   5.356  11.875
84438W        W88506  19.344   5.771  13.448
84439W        W88507  20.548   5.035  11.826
84440W        W88508  20.425   5.525  11.930
84441W        W88509  18.768   4.945  13.404
84442W        W88510  18.753   4.821  14.326
84443W        W88511  18.643   3.738  12.485
84444W        W88512  20.411   4.085  13.046
84445W        W88513  20.059   4.270  14.209
84446W        W88514  20.414   4.419  11.387
84447W        W88515  21.597   6.812  14.141
84448W        W88516  20.564   3.893  14.180
84449W        W88517  21.583   6.194  14.302
84450W        W88518  21.013   4.361  13.898
84451W        W88519  20.813   4.299  12.168
84452W        W88520  21.206   5.433  14.572
84453W        W88521  18.946   7.009  12.558
84454W        W88522  19.604   4.726  11.544
84455W        W88523  19.173   4.010  14.208
84456W        W88524  21.225   4.494  11.889
84457W        W88525  21.592   4.976  11.834
84458W        W88526  19.335   7.193  14.305
84459W        W88527  19.261   3.729  11.540
84460W        W88528  21.582   4.263  12.575
84461W        W88529  21.732   6.512  11.020
84462W        W88530  18.639   5.715  12.722
84463W        W88531  20.556   4.302  10.952
84464W        W88532  21.690   6.634  12.672
84465W        W88533  21.729   3.828  13.422
84466W        W88534  20.174   5.040  13.976
84467W        W88535  20.267   6.379  11.679
84468W        W88536  20.667   5.673  14.419
84469W        W88537  20.341   3.650  12.728
84470W        W88538  18.953   4.553  12.791
84471W        W88539  18.507   5.753  13.565
84472W        W88540  20.366   6.946  12.271
84473W        W88541  21.560   4.543  13.143
84474W        W88542  20.197   6.890  13.910
84475W        W88543  21.540   5.949  11.115
84476W        W88544  19.975   5.432  12.176
84477W        W88545  21.827   3.943  13.917
84478W        W88546  19.976   5.778  13.511
84479W        W88547  20.193   4.664  12.956
84480W        W88548  21.045   4.962  11.794
84481W        W88549  21.141   6.735  11.825
84482W        W88550  20.975   6.338  12.621
84483W        W88551  20.304   5.627  12.585
84484W        W88552  21.185   5.415  12.652
84485W        W88553  18.560   4.430  13.076
84486W        W88554  21.338   5.482  13.903
84487W        W88555  21.689   7.100  13.049
84488W        W88556  19.619   6.544  12.451
84489W        W88557  20.626   7.077  13.775
84490W        W88558  20.620   4.407  13.539
84491W        W88559  19.827   7.115  13.600
84492W        W88560  21.524   4.069  12.066
84493W        W88561  21.315   5.388  13.367
84494W        W88562  18.298   4.709  13.405
84495W        W88563  21.158   4.504  12.423
84496W        W88564  21.569   4.655  14.200
84497W        W88565  20.454   6.354  12.418
84498W        W88566  19.710   6.945  12.031
84499W        W88567  18.825   4.125  11.289
84500W        W88568  19.929   3.779  13.099
84501W        W88569  18.957   6.899  10.947
84502W        W88570  19.331   5.365  11.698
84503W        W88571  19.985   5.994  14.011
84504W        W88572  19.815   4.352  12.001
84505W        W88573  21.171   3.949  12.429
84506W        W88574  20.891   7.231  12.757
84507W        W88575  20.303   6.879  13.097
84508W        W88576  19.699   5.916  13.058
84509W        W88577  21.469   6.639  13.184
84510W        W88578  19.163   4.142  11.953
84511W        W88579  19.685   6.439  12.913
84512W        W88580  19.168   4.370  10.978
84513W        W88581  19.969   4.979  13.372
84514W        W88582  20.817   3.845  13.242
84515W        W88583  18.237   5.688  13.127
84516W        W88584  19.209   3.821  11.055
84517W        W88585  19.947   4.902  12.106
84518W        W88586  20.917   3.878  13.805
84519W        W88587  19.505   5.890  13.914
84520W        W88588  20.309   5.672  14.131
84521W        W88589  20.926   5.702  14.024
84522W        W88590  20.210   3.842  14.529
84523W        W88591  19.432   4.458  12.922
84524W        W88592  18.858   4.414  12.320
84525W        W88593  18.644   7.126  11.996
84526W        W88594  19.976   6.456  14.121
84527W        W88595  19.011   5.941  11.480
84528W        W88596  20.691   5.326  12.701
84529W        W88597  20.971   5.125  13.100
84530W        W88598  20.176   5.799  13.034
84531W        W88599  20.646   6.173  11.166
84532W        W88600  20.318   4.194  12.494
84533W        W88601  21.797   4.472  11.762
84534W        W88602  18.291   7.061  13.793
84535W        W88603  18.708   6.287  13.325
84536W        W88604  18.275   7.133  11.557
84537W        W88605  20.174   4.403  13.363
84538W        W88606  19.537   6.426  11.212
84539W        W88607  21.442   6.808  11.398
84540W        W88608  20.417   5.461  11.412
84541W        W88609  19.260   4.652  11.929
84542W        W88610  20.092   4.562  10.981
84543W        W88611  20.676   6.127  14.159
84544W        W88612  21.029   4.033  11.776
84545W        W88613  18.359   3.881  11.224
84546W        W88614  19.645   6.200  13.514
84547W        W88615  19.444   6.116  12.606
84548W        W88616  19.186   6.068  11.004
84549W        W88617  18.427   6.309  11.772
84550W        W88618  18.931   5.379  14.214
84551W        W88619  19.635   3.939  14.400
84552W        W88620  20.344   4.081  13.756
84553W        W88621  19.539   3.849  12.037
84554W        W88622  20.598   3.926  11.542
84555W        W88623  18.543   3.858  13.119
84556W        W88624  18.591   4.821  12.489
84557W        W88625  21.280   3.929  12.895
84558W        W88626  18.702   4.427  11.709
84559W        W88627  21.273   4.115  13.325
84560W        W88628  18.961   4.076  12.829
84561W        W88629  20.075   4.648  13.769
84562W        W88630  18.223   4.338  11.247
84563W        W88631  19.009   5.727  13.808
84564W        W88632  20.367   5.125  12.987
84565W        W88633  20.234   7.204  11.283
84566W        W88634  18.380   5.711  10.980
84567W        W88635  19.115   6.122  14.106
84568W        W88636  18.636   5.289  13.737
84569W        W88637  19.627   5.394  13.531
84570W        W88638  21.395   3.753  13.793
84571W        W88639  21.793   5.363  13.784
84572W        W88640  21.781   5.563  11.470
84573W        W88641  20.644   5.895  11.569
84574W        W88642  21.118   7.195  11.264
84575W        W88643  18.625   6.152  14.446
84576W        W88644  21.831   4.074  14.398
84577W        W88645  21.549   5.002  13.019
84578W        W88646  19.857   7.132  14.496
84579W        W88647  19.712   3.761  11.223
84580W        W88648  21.251   6.360  11.166
84581W        W88649  19.020   4.453  14.052
84582W        W88650  19.454   6.447  13.914
84583W        W88651  21.580   4.438  13.712
84584W        W88652  20.791   7.097  11.680
84585W        W88653  21.030   5.716  13.047
84586W        W88654  19.280   4.132  13.714
84587W        W88655  19.749   5.201  14.471
84588W        W88656  19.252   6.380  11.665
84589W        W88657  21.007   5.878  11.929
84590W        W88658  18.775   4.504  13.653
84591W        W88659  20.104   6.566  12.117
84592W        W88660  21.854   5.126  12.298
84593W        W88661  20.076   3.759  14.017
84594W        W88662  20.856   6.464  13.096
84595W        W88663  21.159   6.808  12.804
84596W        W88664  20.378   6.610  11.232
84597W        W88665  18.388   6.502  14.074
84598W        W88666  19.131   4.494  13.312
84599W        W88667  19.101   3.842  12.422
84600W        W88668  20.722   4.684  13.114
84601W        W88669  19.520   5.855  11.314
84602W        W88670  21.518   5.797  12.813
84603W        W88671  18.845   6.555  14.236
84604W        W88672  21.232   7.237  12.033
84605W        W88673  19.331   4.257  12.478
84606W        W88674  19.100   5.750  12.568
84607W        W88675  19.413   7.161  13.318
84608W        W88676  21.480   7.257  14.350
84609W        W88677  20.639   5.445  13.283
84610W        W88678  18.488   5.243  11.198
84611W        W88679  21.622   6.901  11.895
84612W        W88680  19.598   3.744  13.917
84613W        W88681  21.304   6.546  12.375
84614W        W88682  21.333   5.102  12.280
84615W        W88683  19.450   4.775  12.496
84616W        W88684  19.695   5.037  13.820
84617W        W88685  20.806   6.190  13.683
84618W        W88686  19.456   4.644  13.795
84619W        W88687  19.435   7.110  12.411
84620W        W88688  18.752   7.069  14.045
84621W        W88689  18.864   6.430  11.175
84622W        W88690  21.381   6.188  11.985
84623W        W88691  18.985   4.980  13.871
84624W        W88692  21.758   4.910  11.352
84625W        W88693  19.503   5.967  11.823
84626W        W88694  20.602   5.349  13.904
84627W        W88695  20.493   4.977  13.448
84628W        W88696  19.053   5.349  13.477
84629W        W88697  21.263   7.237  13.306
84630W        W88698  21.054   3.871  14.300
84631W        W88699  18.718   4.021  13.887
84632W        W88700  19.057   5.044  12.940
84633W        W88701  19.426   4.858  11.062
84634W        W88702  18.229   6.617  13.607
84635W        W88703  19.814   5.326  13.050
84636W        W88704  19.637   4.351  11.155
84637W        W88705  18.772   5.167  11.936
84638W        W88706  18.543   7.019  13.373
84639W        W88707  21.338   5.245  11.481
84640W        W88708  21.433   4.161  14.167
84641W        W88709  20.869   6.370  12.130
84642W        W88710  18.467   5.294  14.307
84643W        W88711  20.953   6.233  11.614
84644W        W88712  19.855   5.291  11.699
84645W        W88713  21.042   4.095  11.222
84646W        W88714  21.107   4.702  13.408
84647W        W88715  18.816   5.295  12.615
84648W        W88716  19.110   6.234  12.264
84649W        W88717  20.873   4.854  12.229
84650W        W88718  19.896   4.233  12.925
84651W        W88719  21.858   6.144  13.436
84652W        W88720  21.776   4.131  12.997
84653W        W88721  18.315   6.961  12.373
84654W        W88722  18.824   6.148  11.909
84655W        W88723  18.739   3.765  14.462
84656W        W88724  19.858   6.618  14.564
84657W        W88725  21.613   5.586  12.354
84658W        W88726  20.967   5.763  11.234
84659W        W88727  20.262   7.284  13.446
84660W        W88728  21.119   6.006  14.483
84661W        W88729  19.934   3.716  11.763
84662W        W88730  20.647   4.585  12.622
84663W        W88731  18.333   6.172  12.954
84664W        W88732  19.586   4.134  11.595
84665W        W88733  19.390   5.618  14.444
84666W        W88734  20.384   4.599  12.158
84667W        W88735  20.589   6.009  13.280
84668W        W88736  18.743   6.614  13.715
84669W        W88737  19.334   6.597  14.438
84670W        W88738  19.185   4.394  11.452
84671W        W88739  20.702   4.536  11.777
84672W        W88740  20.660   6.644  14.014
84673W        W88741  19.345   5.236  12.613
84674W        W88742  19.000   6.934  13.478
84675W        W88743  21.745   7.051  11.079
84676W        W88744  18.608   5.723  14.075
84677W        W88745  19.039   5.634  12.005
84678W        W88746  19.410   6.641  13.400
84679W        W88747  19.788   4.060  12.441
84680W        W88748  18.399   6.044  11.371
84681W        W88749  19.918   4.995  11.241
84682W        W88750  18.564   5.544  12.260
84683W        W88751  19.854   4.186  13.724
84684W        W88752  21.526   3.895  11.151
84685W        W88753  21.619   5.641  14.250
84686W        W88754  20.273   6.898  14.402
84687W        W88755  21.831   5.992  13.924
84688W        W88756  21.239   6.790  14.535
84689W        W88757  18.978   7.246  13.013
84690W        W88758  21.837   5.868  11.887
84691W        W88759  20.367   5.135  12.400
84692W        W88760  20.134   3.747  12.290
84693W        W88761  19.193   6.731  12.127
84694W        W88762  19.692   4.472  13.352
84695W        W88763  19.392   3.841  12.821
84696W        W88764  18.455   6.663  11.369
84697W        W88765  20.271   6.027  12.087
84698W        W88766  19.146   6.822  13.966
84699W        W88767  18.623   5.645  11.662
84700W        W88768  18.308   4.007  11.738
84701W        W88769  20.972   5.213  13.665
84702W        W88770  21.366   6.271  12.885
84703W        W88771  20.027   6.755  12.716
84704W        W88772  19.439   6.859  11.627
84705W        W88773  20.721   3.762  11.057
84706W        W88774  18.521   7.022  12.798
84707W        W88775  20.718   4.780  14.433
84708W        W88776  18.701   4.310  14.432
84709W        W88777  18.432   4.910  11.765
84710W        W88778  19.123   4.899  11.490
84711W        W88779  19.229   5.507  13.016
84712W        W88780  20.703   3.793  12.136
84713W        W88781  19.834   7.224  12.639
84714W        W88782  21.048   6.686  13.576
84715W        W88783  20.632   6.835  12.687
84716W        W88784  20.651   5.815  12.281
84717W        W88785  20.113   4.040  11.352
84718W        W88786  21.794   3.668  12.074
84719W        W88787  19.482   5.303  11.237
84720W        W88788  21.648   4.640  12.227
84721W        W88789  20.340   5.810  11.104
84722W        W88790  21.276   6.010  13.852
84723W        W88791  20.930   6.711  11.319
84724W        W88792  19.545   4.386  14.225
84725W        W88793  19.365   4.970  13.466
84726W        W88794  21.457   6.465  13.743
84727W        W88795  20.557   4.415  14.120
84728W        W88796  18.401   4.886  13.897
84729W        W88797  20.161   5.363  13.623
84730W        W88798  18.518   6.121  12.280
84731W        W88799  18.665   5.418  13.170
84732W        W88800  20.982   5.704  13.520
84733W        W88801  20.754   7.084  14.331
84734W        W88802  20.650   4.823  13.884
84735W        W88803  20.927   6.877  12.289
84736W        W88804  19.929   6.597  13.612
84737W        W88805  19.414   6.952  12.881
84738W        W88806  21.219   6.123  13.300
84739W        W88807  20.269   6.195  14.437
84740W        W88808  18.874   6.148  12.776
84741W        W88809  20.861   6.973  13.172
84742W        W88810  18.839   6.702  13.042
84743W        W88811  19.860   4.754  14.252
84744W        W88812  20.311   6.920  11.763
84745W        W88813  19.619   6.175  14.401
84746W        W88814  19.745   6.413  11.778
84747W        W88815  18.966   5.153  11.037
84748W        W88816  18.305   7.239  17.936
84749W        W88817  18.681   6.132  17.459
84750W        W88818  21.386   5.862  15.229
84751W        W88819  21.516   6.947  17.256
84752W        W88820  19.434   6.938  14.782
84753W        W88821  19.517   5.090  15.765
84754W        W88822  19.032   4.938  15.929
84755W        W88823  20.023   5.753  15.363
84756W        W88824  19.698   6.845  17.718
84757W        W88825  18.347   4.406  17.681
84758W        W88826  19.109   3.686  17.483
84759W        W88827  20.803   4.074  16.370
84760W        W88828  20.452   4.945  14.940
84761W        W88829  21.022   4.379  18.031
84762W        W88830  18.388   4.171  17.156
84763W        W88831  18.487   6.790  18.177
84764W        W88832  20.009   6.180  14.909
84765W        W88833  18.441   4.963  16.602
84766W        W88834  19.334   4.854  17.839
84767W        W88835  21.793   4.713  16.338
84768W        W88836  21.557   5.756  17.197
84769W        W88837  19.865   5.089  16.224
84770W        W88838  20.411   6.428  16.593
84771W        W88839  18.911   5.862  16.825
84772W        W88840  18.270   5.390  16.396
84773W        W88841  19.306   5.362  17.588
84774W        W88842  21.577   5.145  17.842
84775W        W88843  19.193   6.589  16.287
84776W        W88844  20.314   6.278  17.421
84777W        W88845  19.534   4.918  16.646
84778W        W88846  19.826   5.702  16.289
84779W        W88847  20.823   6.475  18.137
84780W        W88848  19.902   5.795  18.147
84781W        W88849  19.883   5.511  17.625
84782W        W88850  18.292   4.902  18.147
84783W        W88851  21.124   6.437  17.746
84784W        W88852  18.705   4.019  15.744
84785W        W88853  19.232   6.277  16.743
84786W        W88854  21.695   6.060  16.033
84787W        W88855  21.108   4.460  16.600
84788W        W88856  21.393   4.413  14.695
84789W        W88857  21.858   5.214  17.001
84790W        W88858  19.825   6.921  16.754
84791W        W88859  21.599   6.387  15.192
84792W        W88860  18.728   7.173  14.946
84793W        W88861  19.121   7.219  15.622
84794W        W88862  18.918   3.973  17.048
84795W        W88863  21.541   4.991  17.323
84796W        W88864  20.946   5.413  15.782
84797W        W88865  20.912   5.101  14.809
84798W        W88866  20.120   6.245  16.949
84799W        W88867  19.926   4.575  16.148
84800W        W88868  20.526   6.662  17.142
84801W        W88869  21.397   5.453  15.564
84802W        W88870  20.299   4.111  15.580
84803W        W88871  18.956   6.805  15.263
84804W        W88872  18.327   4.304  15.862
84805W        W88873  21.113   4.911  16.336
84806W        W88874  18.571   6.528  16.251
84807W        W88875  19.912   6.878  15.121
84808W        W88876  21.304   4.904  14.585
84809W        W88877  18.327   6.662  16.749
84810W        W88878  19.118   6.234  17.229
84811W        W88879  19.491   5.594  15.848
84812W        W88880  19.513   3.999  16.941
84813W        W88881  21.742   3.761  16.238
84814W        W88882  18.961   5.633  14.706
84815W        W88883  18.616   4.666  14.885
84816W        W88884  18.678   6.622  15.679
84817W        W88885  19.809   6.105  15.927
84818W        W88886  21.141   6.964  17.641
84819W        W88887  20.067   4.606  15.325
84820W        W88888  21.450   7.004  16.097
84821W        W88889  21.127   4.857  17.695
84822W        W88890  21.840   6.513  15.829
84823W        W88891  20.467   5.805  17.313
84824W        W88892  18.233   5.356  15.519
84825W        W88893  19.344   5.771  17.092
84826W        W88894  20.425   5.525  15.574
84827W        W88895  18.768   4.945  17.048
84828W        W88896  18.753   4.821  17.970
84829W        W88897  18.643   3.738  16.129
84830W        W88898  20.411   4.085  16.690
84831W        W88899  20.059   4.270  17.853
84832W        W88900  20.414   4.419  15.031
84833W        W88901  21.597   6.812  17.785
84834W        W88902  20.564   3.893  17.824
84835W        W88903  21.583   6.194  17.946
84836W        W88904  21.013   4.361  17.542
84837W        W88905  20.813   4.299  15.812
84838W        W88906  21.206   5.433  18.216
84839W        W88907  18.946   7.009  16.202
84840W        W88908  19.173   4.010  17.852
84841W        W88909  21.225   4.494  15.533
84842W        W88910  21.592   4.976  15.478
84843W        W88911  19.335   7.193  17.949
84844W        W88912  19.261   3.729  15.184
84845W        W88913  21.582   4.263  16.219
84846W        W88914  21.732   6.512  14.664
84847W        W88915  18.639   5.715  16.366
84848W        W88916  20.556   4.302  14.596
84849W        W88917  21.690   6.634  16.316
84850W        W88918  21.729   3.828  17.066
84851W        W88919  20.174   5.040  17.620
84852W        W88920  20.267   6.379  15.323
84853W        W88921  20.667   5.673  18.063
84854W        W88922  20.341   3.650  16.372
84855W        W88923  18.953   4.553  16.435
84856W        W88924  18.507   5.753  17.209
84857W        W88925  20.366   6.946  15.915
84858W        W88926  21.560   4.543  16.787
84859W        W88927  20.197   6.890  17.554
84860W        W88928  21.540   5.949  14.759
84861W        W88929  19.975   5.432  15.820
84862W        W88930  21.827   3.943  17.561
84863W        W88931  19.976   5.778  17.155
84864W        W88932  20.193   4.664  16.600
84865W        W88933  21.045   4.962  15.438
84866W        W88934  21.332   4.695  15.080
84867W        W88935  21.141   6.735  15.469
84868W        W88936  20.975   6.338  16.265
84869W        W88937  20.304   5.627  16.229
84870W        W88938  21.185   5.415  16.296
84871W        W88939  18.560   4.430  16.720
84872W        W88940  21.338   5.482  17.547
84873W        W88941  21.689   7.100  16.693
84874W        W88942  19.619   6.544  16.095
84875W        W88943  20.626   7.077  17.419
84876W        W88944  20.620   4.407  17.183
84877W        W88945  19.827   7.115  17.244
84878W        W88946  21.524   4.069  15.710
84879W        W88947  21.315   5.388  17.011
84880W        W88948  18.298   4.709  17.049
84881W        W88949  21.158   4.504  16.067
84882W        W88950  21.569   4.655  17.844
84883W        W88951  20.454   6.354  16.062
84884W        W88952  19.710   6.945  15.675
84885W        W88953  19.929   3.779  16.743
84886W        W88954  18.957   6.899  14.591
84887W        W88955  19.331   5.365  15.342
84888W        W88956  19.985   5.994  17.655
84889W        W88957  19.815   4.352  15.645
84890W        W88958  21.171   3.949  16.073
84891W        W88959  20.891   7.231  16.401
84892W        W88960  20.303   6.879  16.741
84893W        W88961  19.699   5.916  16.702
84894W        W88962  21.469   6.639  16.828
84895W        W88963  19.163   4.142  15.597
84896W        W88964  19.685   6.439  16.557
84897W        W88965  19.168   4.370  14.622
84898W        W88966  19.969   4.979  17.016
84899W        W88967  20.817   3.845  16.886
84900W        W88968  18.237   5.688  16.771
84901W        W88969  19.209   3.821  14.699
84902W        W88970  20.917   3.878  17.449
84903W        W88971  19.505   5.890  17.558
84904W        W88972  20.309   5.672  17.775
84905W        W88973  20.926   5.702  17.668
84906W        W88974  20.210   3.842  18.173
84907W        W88975  19.432   4.458  16.566
84908W        W88976  18.858   4.414  15.964
84909W        W88977  18.644   7.126  15.640
84910W        W88978  19.976   6.456  17.765
84911W        W88979  19.011   5.941  15.124
84912W        W88980  20.691   5.326  16.345
84913W        W88981  20.971   5.125  16.744
84914W        W88982  20.176   5.799  16.678
84915W        W88983  20.318   4.194  16.138
84916W        W88984  21.797   4.472  15.406
84917W        W88985  18.291   7.061  17.437
84918W        W88986  18.708   6.287  16.969
84919W        W88987  18.275   7.133  15.201
84920W        W88988  20.174   4.403  17.007
84921W        W88989  19.537   6.426  14.856
84922W        W88990  21.442   6.808  15.042
84923W        W88991  20.092   4.562  14.625
84924W        W88992  20.676   6.127  17.803
84925W        W88993  21.029   4.033  15.420
84926W        W88994  18.359   3.881  14.868
84927W        W88995  19.645   6.200  17.158
84928W        W88996  19.444   6.116  16.250
84929W        W88997  19.186   6.068  14.648
84930W        W88998  18.427   6.309  15.416
84931W        W88999  18.931   5.379  17.858
84932W        W89000  19.635   3.939  18.044
84933W        W89001  20.344   4.081  17.400
84934W        W89002  19.539   3.849  15.681
84935W        W89003  20.598   3.926  15.186
84936W        W89004  18.543   3.858  16.763
84937W        W89005  18.591   4.821  16.133
84938W        W89006  21.280   3.929  16.539
84939W        W89007  21.273   4.115  16.969
84940W        W89008  21.669   5.318  14.654
84941W        W89009  18.961   4.076  16.473
84942W        W89010  20.075   4.648  17.413
84943W        W89011  18.223   4.338  14.891
84944W        W89012  19.009   5.727  17.452
84945W        W89013  20.367   5.125  16.631
84946W        W89014  20.234   7.204  14.927
84947W        W89015  18.380   5.711  14.624
84948W        W89016  19.115   6.122  17.750
84949W        W89017  18.636   5.289  17.381
84950W        W89018  19.627   5.394  17.175
84951W        W89019  21.395   3.753  17.437
84952W        W89020  21.793   5.363  17.428
84953W        W89021  21.781   5.563  15.114
84954W        W89022  20.644   5.895  15.213
84955W        W89023  21.118   7.195  14.908
84956W        W89024  20.295   5.185  18.050
84957W        W89025  18.625   6.152  18.090
84958W        W89026  21.831   4.074  18.042
84959W        W89027  21.549   5.002  16.663
84960W        W89028  19.857   7.132  18.140
84961W        W89029  19.712   3.761  14.867
84962W        W89030  21.251   6.360  14.810
84963W        W89031  19.020   4.453  17.696
84964W        W89032  19.454   6.447  17.558
84965W        W89033  21.580   4.438  17.356
84966W        W89034  20.791   7.097  15.324
84967W        W89035  21.030   5.716  16.691
84968W        W89036  19.280   4.132  17.358
84969W        W89037  19.749   5.201  18.115
84970W        W89038  19.252   6.380  15.309
84971W        W89039  21.007   5.878  15.573
84972W        W89040  18.775   4.504  17.297
84973W        W89041  20.104   6.566  15.761
84974W        W89042  21.854   5.126  15.942
84975W        W89043  20.076   3.759  17.661
84976W        W89044  20.856   6.464  16.740
84977W        W89045  21.159   6.808  16.448
84978W        W89046  20.378   6.610  14.876
84979W        W89047  18.388   6.502  17.718
84980W        W89048  19.131   4.494  16.956
84981W        W89049  19.101   3.842  16.066
84982W        W89050  20.722   4.684  16.758
84983W        W89051  19.520   5.855  14.958
84984W        W89052  21.518   5.797  16.457
84985W        W89053  18.845   6.555  17.880
84986W        W89054  21.232   7.237  15.677
84987W        W89055  19.331   4.257  16.122
84988W        W89056  19.100   5.750  16.212
84989W        W89057  19.413   7.161  16.962
84990W        W89058  21.480   7.257  17.994
84991W        W89059  20.639   5.445  16.927
84992W        W89060  18.488   5.243  14.842
84993W        W89061  21.622   6.901  15.539
84994W        W89062  21.459   4.225  15.158
84995W        W89063  19.598   3.744  17.561
84996W        W89064  21.304   6.546  16.019
84997W        W89065  21.333   5.102  15.924
84998W        W89066  19.450   4.775  16.140
84999W        W89067  19.695   5.037  17.464
85000W        W89068  20.806   6.190  17.327
85001W        W89069  19.456   4.644  17.439
85002W        W89070  19.435   7.110  16.055
85003W        W89071  18.752   7.069  17.689
85004W        W89072  18.864   6.430  14.819
85005W        W89073  21.381   6.188  15.629
85006W        W89074  18.985   4.980  17.515
85007W        W89075  21.758   4.910  14.996
85008W        W89076  19.503   5.967  15.467
85009W        W89077  20.602   5.349  17.548
85010W        W89078  20.493   4.977  17.092
85011W        W89079  19.053   5.349  17.121
85012W        W89080  21.263   7.237  16.950
85013W        W89081  21.054   3.871  17.944
85014W        W89082  18.718   4.021  17.531
85015W        W89083  19.057   5.044  16.584
85016W        W89084  19.426   4.858  14.706
85017W        W89085  18.229   6.617  17.251
85018W        W89086  19.814   5.326  16.694
85019W        W89087  19.637   4.351  14.799
85020W        W89088  18.772   5.167  15.580
85021W        W89089  18.543   7.019  17.017
85022W        W89090  21.338   5.245  15.125
85023W        W89091  21.433   4.161  17.811
85024W        W89092  20.869   6.370  15.774
85025W        W89093  18.467   5.294  17.951
85026W        W89094  21.433   3.758  15.247
85027W        W89095  20.953   6.233  15.258
85028W        W89096  19.855   5.291  15.343
85029W        W89097  21.042   4.095  14.866
85030W        W89098  21.107   4.702  17.052
85031W        W89099  18.816   5.295  16.259
85032W        W89100  19.110   6.234  15.908
85033W        W89101  20.873   4.854  15.873
85034W        W89102  19.896   4.233  16.569
85035W        W89103  21.858   6.144  17.080
85036W        W89104  21.776   4.131  16.641
85037W        W89105  18.315   6.961  16.017
85038W        W89106  18.824   6.148  15.553
85039W        W89107  18.739   3.765  18.106
85040W        W89108  19.858   6.618  18.208
85041W        W89109  21.613   5.586  15.998
85042W        W89110  20.967   5.763  14.878
85043W        W89111  20.262   7.284  17.090
85044W        W89112  21.119   6.006  18.127
85045W        W89113  19.934   3.716  15.407
85046W        W89114  20.647   4.585  16.266
85047W        W89115  18.333   6.172  16.598
85048W        W89116  19.390   5.618  18.088
85049W        W89117  20.384   4.599  15.802
85050W        W89118  20.589   6.009  16.924
85051W        W89119  18.743   6.614  17.359
85052W        W89120  19.334   6.597  18.082
85053W        W89121  20.702   4.536  15.421
85054W        W89122  20.660   6.644  17.658
85055W        W89123  19.345   5.236  16.257
85056W        W89124  19.000   6.934  17.122
85057W        W89125  21.745   7.051  14.723
85058W        W89126  18.608   5.723  17.719
85059W        W89127  20.603   5.985  16.407
85060W        W89128  19.039   5.634  15.649
85061W        W89129  19.410   6.641  17.044
85062W        W89130  19.788   4.060  16.085
85063W        W89131  18.399   6.044  15.015
85064W        W89132  18.564   5.544  15.904
85065W        W89133  19.854   4.186  17.368
85066W        W89134  21.526   3.895  14.795
85067W        W89135  21.619   5.641  17.894
85068W        W89136  20.273   6.898  18.046
85069W        W89137  21.831   5.992  17.568
85070W        W89138  21.239   6.790  18.179
85071W        W89139  18.978   7.246  16.657
85072W        W89140  21.837   5.868  15.531
85073W        W89141  20.367   5.135  16.044
85074W        W89142  20.134   3.747  15.934
85075W        W89143  19.193   6.731  15.771
85076W        W89144  19.692   4.472  16.996
85077W        W89145  19.392   3.841  16.465
85078W        W89146  18.455   6.663  15.013
85079W        W89147  20.271   6.027  15.731
85080W        W89148  19.146   6.822  17.610
85081W        W89149  18.623   5.645  15.306
85082W        W89150  18.508   4.188  16.305
85083W        W89151  20.056   6.153  16.362
85084W        W89152  18.308   4.007  15.382
85085W        W89153  20.972   5.213  17.309
85086W        W89154  20.849   4.599  14.881
85087W        W89155  21.366   6.271  16.529
85088W        W89156  20.027   6.755  16.360
85089W        W89157  19.439   6.859  15.271
85090W        W89158  20.721   3.762  14.701
85091W        W89159  18.521   7.022  16.442
85092W        W89160  20.718   4.780  18.077
85093W        W89161  18.701   4.310  18.076
85094W        W89162  18.432   4.910  15.409
85095W        W89163  20.886   5.226  17.951
85096W        W89164  19.229   5.507  16.660
85097W        W89165  20.703   3.793  15.780
85098W        W89166  19.834   7.224  16.283
85099W        W89167  21.048   6.686  17.220
85100W        W89168  20.632   6.835  16.331
85101W        W89169  20.651   5.815  15.925
85102W        W89170  20.113   4.040  14.996
85103W        W89171  21.794   3.668  15.718
85104W        W89172  19.482   5.303  14.881
85105W        W89173  21.648   4.640  15.871
85106W        W89174  20.340   5.810  14.748
85107W        W89175  21.276   6.010  17.496
85108W        W89176  20.930   6.711  14.963
85109W        W89177  19.545   4.386  17.869
85110W        W89178  19.365   4.970  17.110
85111W        W89179  21.457   6.465  17.387
85112W        W89180  20.557   4.415  17.764
85113W        W89181  18.401   4.886  17.541
85114W        W89182  20.161   5.363  17.267
85115W        W89183  18.518   6.121  15.924
85116W        W89184  18.665   5.418  16.814
85117W        W89185  20.982   5.704  17.164
85118W        W89186  20.754   7.084  17.975
85119W        W89187  20.650   4.823  17.528
85120W        W89188  20.927   6.877  15.933
85121W        W89189  19.929   6.597  17.256
85122W        W89190  19.414   6.952  16.525
85123W        W89191  21.219   6.123  16.944
85124W        W89192  20.269   6.195  18.081
85125W        W89193  18.874   6.148  16.420
85126W        W89194  21.220   5.907  16.065
85127W        W89195  20.861   6.973  16.816
85128W        W89196  18.839   6.702  16.686
85129W        W89197  19.860   4.754  17.896
85130W        W89198  20.311   6.920  15.407
85131W        W89199  19.619   6.175  18.045
85132W        W89200  19.745   6.413  15.422
85133W        W89201  18.966   5.153  14.681
85134W        W89202  18.305   7.239  21.580
85135W        W89203  18.681   6.132  21.103
85136W        W89204  21.386   5.862  18.873
85137W        W89205  21.516   6.947  20.900
85138W        W89206  19.434   6.938  18.426
85139W        W89207  19.517   5.090  19.409
85140W        W89208  19.032   4.938  19.573
85141W        W89209  20.023   5.753  19.007
85142W        W89210  19.698   6.845  21.362
85143W        W89211  18.347   4.406  21.325
85144W        W89212  19.109   3.686  21.127
85145W        W89213  20.803   4.074  20.014
85146W        W89214  20.452   4.945  18.584
85147W        W89215  21.022   4.379  21.675
85148W        W89216  18.388   4.171  20.800
85149W        W89217  18.487   6.790  21.821
85150W        W89218  20.009   6.180  18.553
85151W        W89219  18.441   4.963  20.246
85152W        W89220  19.334   4.854  21.483
85153W        W89221  21.793   4.713  19.982
85154W        W89222  21.557   5.756  20.841
85155W        W89223  19.865   5.089  19.868
85156W        W89224  20.411   6.428  20.237
85157W        W89225  18.911   5.862  20.469
85158W        W89226  18.270   5.390  20.040
85159W        W89227  19.306   5.362  21.232
85160W        W89228  21.577   5.145  21.486
85161W        W89229  19.193   6.589  19.931
85162W        W89230  20.314   6.278  21.065
85163W        W89231  19.534   4.918  20.290
85164W        W89232  19.826   5.702  19.933
85165W        W89233  20.823   6.475  21.781
85166W        W89234  19.902   5.795  21.791
85167W        W89235  19.883   5.511  21.269
85168W        W89236  18.292   4.902  21.791
85169W        W89237  21.124   6.437  21.390
85170W        W89238  18.705   4.019  19.388
85171W        W89239  19.232   6.277  20.387
85172W        W89240  21.695   6.060  19.677
85173W        W89241  21.108   4.460  20.244
85174W        W89242  21.393   4.413  18.339
85175W        W89243  21.858   5.214  20.645
85176W        W89244  19.825   6.921  20.398
85177W        W89245  21.599   6.387  18.836
85178W        W89246  18.728   7.173  18.590
85179W        W89247  19.121   7.219  19.266
85180W        W89248  18.918   3.973  20.692
85181W        W89249  21.541   4.991  20.967
85182W        W89250  20.946   5.413  19.426
85183W        W89251  20.912   5.101  18.453
85184W        W89252  20.120   6.245  20.593
85185W        W89253  19.926   4.575  19.792
85186W        W89254  20.526   6.662  20.786
85187W        W89255  21.397   5.453  19.208
85188W        W89256  20.299   4.111  19.224
85189W        W89257  18.956   6.805  18.907
85190W        W89258  18.327   4.304  19.506
85191W        W89259  21.113   4.911  19.980
85192W        W89260  18.571   6.528  19.895
85193W        W89261  19.912   6.878  18.765
85194W        W89262  21.304   4.904  18.229
85195W        W89263  18.327   6.662  20.393
85196W        W89264  19.118   6.234  20.873
85197W        W89265  19.491   5.594  19.492
85198W        W89266  19.513   3.999  20.585
85199W        W89267  21.742   3.761  19.882
85200W        W89268  18.961   5.633  18.350
85201W        W89269  18.616   4.666  18.529
85202W        W89270  18.678   6.622  19.323
85203W        W89271  19.809   6.105  19.571
85204W        W89272  21.141   6.964  21.285
85205W        W89273  20.067   4.606  18.969
85206W        W89274  21.450   7.004  19.741
85207W        W89275  21.127   4.857  21.339
85208W        W89276  21.840   6.513  19.473
85209W        W89277  20.467   5.805  20.957
85210W        W89278  18.233   5.356  19.163
85211W        W89279  19.344   5.771  20.736
85212W        W89280  20.548   5.035  19.114
85213W        W89281  20.425   5.525  19.218
85214W        W89282  18.768   4.945  20.692
85215W        W89283  18.753   4.821  21.614
85216W        W89284  18.643   3.738  19.773
85217W        W89285  20.411   4.085  20.334
85218W        W89286  20.059   4.270  21.497
85219W        W89287  20.414   4.419  18.675
85220W        W89288  21.597   6.812  21.429
85221W        W89289  20.564   3.893  21.468
85222W        W89290  21.583   6.194  21.590
85223W        W89291  21.013   4.361  21.186
85224W        W89292  20.813   4.299  19.456
85225W        W89293  21.206   5.433  21.860
85226W        W89294  18.946   7.009  19.846
85227W        W89295  19.604   4.726  18.832
85228W        W89296  19.173   4.010  21.496
85229W        W89297  21.225   4.494  19.177
85230W        W89298  21.592   4.976  19.122
85231W        W89299  19.335   7.193  21.593
85232W        W89300  19.261   3.729  18.828
85233W        W89301  21.582   4.263  19.863
85234W        W89302  21.732   6.512  18.308
85235W        W89303  18.639   5.715  20.010
85236W        W89304  20.556   4.302  18.240
85237W        W89305  21.690   6.634  19.960
85238W        W89306  21.729   3.828  20.710
85239W        W89307  20.174   5.040  21.264
85240W        W89308  20.267   6.379  18.967
85241W        W89309  20.667   5.673  21.707
85242W        W89310  20.341   3.650  20.016
85243W        W89311  18.953   4.553  20.079
85244W        W89312  18.507   5.753  20.853
85245W        W89313  20.366   6.946  19.559
85246W        W89314  21.560   4.543  20.431
85247W        W89315  20.197   6.890  21.198
85248W        W89316  21.540   5.949  18.403
85249W        W89317  19.975   5.432  19.464
85250W        W89318  21.827   3.943  21.205
85251W        W89319  19.976   5.778  20.799
85252W        W89320  20.193   4.664  20.244
85253W        W89321  21.045   4.962  19.082
85254W        W89322  21.332   4.695  18.724
85255W        W89323  21.141   6.735  19.113
85256W        W89324  20.975   6.338  19.909
85257W        W89325  20.871   5.417  18.887
85258W        W89326  20.304   5.627  19.873
85259W        W89327  21.185   5.415  19.940
85260W        W89328  18.560   4.430  20.364
85261W        W89329  21.338   5.482  21.191
85262W        W89330  21.689   7.100  20.337
85263W        W89331  19.619   6.544  19.739
85264W        W89332  20.626   7.077  21.063
85265W        W89333  20.620   4.407  20.827
85266W        W89334  19.827   7.115  20.888
85267W        W89335  21.524   4.069  19.354
85268W        W89336  21.315   5.388  20.655
85269W        W89337  18.298   4.709  20.693
85270W        W89338  21.158   4.504  19.711
85271W        W89339  21.569   4.655  21.488
85272W        W89340  20.454   6.354  19.706
85273W        W89341  19.710   6.945  19.319
85274W        W89342  18.825   4.125  18.577
85275W        W89343  19.929   3.779  20.387
85276W        W89344  18.957   6.899  18.235
85277W        W89345  19.331   5.365  18.986
85278W        W89346  19.985   5.994  21.299
85279W        W89347  19.815   4.352  19.289
85280W        W89348  21.171   3.949  19.717
85281W        W89349  20.891   7.231  20.045
85282W        W89350  20.303   6.879  20.385
85283W        W89351  19.699   5.916  20.346
85284W        W89352  21.469   6.639  20.472
85285W        W89353  19.163   4.142  19.241
85286W        W89354  19.685   6.439  20.201
85287W        W89355  19.168   4.370  18.266
85288W        W89356  19.969   4.979  20.660
85289W        W89357  20.817   3.845  20.530
85290W        W89358  18.237   5.688  20.415
85291W        W89359  19.941   5.506  18.573
85292W        W89360  19.209   3.821  18.343
85293W        W89361  19.947   4.902  19.394
85294W        W89362  20.917   3.878  21.093
85295W        W89363  19.505   5.890  21.202
85296W        W89364  20.309   5.672  21.419
85297W        W89365  20.926   5.702  21.312
85298W        W89366  20.210   3.842  21.817
85299W        W89367  19.432   4.458  20.210
85300W        W89368  18.858   4.414  19.608
85301W        W89369  18.644   7.126  19.284
85302W        W89370  19.976   6.456  21.409
85303W        W89371  19.011   5.941  18.768
85304W        W89372  20.691   5.326  19.989
85305W        W89373  20.971   5.125  20.388
85306W        W89374  20.176   5.799  20.322
85307W        W89375  20.646   6.173  18.454
85308W        W89376  20.318   4.194  19.782
85309W        W89377  21.797   4.472  19.050
85310W        W89378  18.291   7.061  21.081
85311W        W89379  18.708   6.287  20.613
85312W        W89380  18.275   7.133  18.845
85313W        W89381  20.174   4.403  20.651
85314W        W89382  19.537   6.426  18.500
85315W        W89383  21.442   6.808  18.686
85316W        W89384  20.417   5.461  18.700
85317W        W89385  19.260   4.652  19.217
85318W        W89386  20.092   4.562  18.269
85319W        W89387  20.676   6.127  21.447
85320W        W89388  21.029   4.033  19.064
85321W        W89389  18.359   3.881  18.512
85322W        W89390  19.645   6.200  20.802
85323W        W89391  19.444   6.116  19.894
85324W        W89392  19.186   6.068  18.292
85325W        W89393  18.427   6.309  19.060
85326W        W89394  18.931   5.379  21.502
85327W        W89395  19.635   3.939  21.688
85328W        W89396  20.344   4.081  21.044
85329W        W89397  19.539   3.849  19.325
85330W        W89398  20.598   3.926  18.830
85331W        W89399  18.543   3.858  20.407
85332W        W89400  18.591   4.821  19.777
85333W        W89401  21.280   3.929  20.183
85334W        W89402  18.702   4.427  18.997
85335W        W89403  21.273   4.115  20.613
85336W        W89404  21.669   5.318  18.298
85337W        W89405  18.961   4.076  20.117
85338W        W89406  20.075   4.648  21.057
85339W        W89407  18.223   4.338  18.535
85340W        W89408  19.009   5.727  21.096
85341W        W89409  20.367   5.125  20.275
85342W        W89410  20.234   7.204  18.571
85343W        W89411  18.380   5.711  18.268
85344W        W89412  19.115   6.122  21.394
85345W        W89413  18.636   5.289  21.025
85346W        W89414  19.627   5.394  20.819
85347W        W89415  21.395   3.753  21.081
85348W        W89416  21.793   5.363  21.072
85349W        W89417  21.781   5.563  18.758
85350W        W89418  20.644   5.895  18.857
85351W        W89419  21.118   7.195  18.552
85352W        W89420  20.295   5.185  21.694
85353W        W89421  18.625   6.152  21.734
85354W        W89422  21.831   4.074  21.686
85355W        W89423  21.549   5.002  20.307
85356W        W89424  19.857   7.132  21.784
85357W        W89425  19.712   3.761  18.511
85358W        W89426  21.251   6.360  18.454
85359W        W89427  19.020   4.453  21.340
85360W        W89428  19.454   6.447  21.202
85361W        W89429  21.580   4.438  21.000
85362W        W89430  20.791   7.097  18.968
85363W        W89431  21.030   5.716  20.335
85364W        W89432  19.280   4.132  21.002
85365W        W89433  19.749   5.201  21.759
85366W        W89434  19.252   6.380  18.953
85367W        W89435  21.007   5.878  19.217
85368W        W89436  18.775   4.504  20.941
85369W        W89437  20.104   6.566  19.405
85370W        W89438  21.854   5.126  19.586
85371W        W89439  20.076   3.759  21.305
85372W        W89440  20.856   6.464  20.384
85373W        W89441  21.159   6.808  20.092
85374W        W89442  20.378   6.610  18.520
85375W        W89443  18.388   6.502  21.362
85376W        W89444  19.131   4.494  20.600
85377W        W89445  19.101   3.842  19.710
85378W        W89446  20.722   4.684  20.402
85379W        W89447  19.520   5.855  18.602
85380W        W89448  21.518   5.797  20.101
85381W        W89449  18.845   6.555  21.524
85382W        W89450  21.232   7.237  19.321
85383W        W89451  19.331   4.257  19.766
85384W        W89452  19.100   5.750  19.856
85385W        W89453  19.413   7.161  20.606
85386W        W89454  21.480   7.257  21.638
85387W        W89455  20.639   5.445  20.571
85388W        W89456  18.488   5.243  18.486
85389W        W89457  21.622   6.901  19.183
85390W        W89458  21.459   4.225  18.802
85391W        W89459  19.598   3.744  21.205
85392W        W89460  21.304   6.546  19.663
85393W        W89461  21.333   5.102  19.568
85394W        W89462  19.450   4.775  19.784
85395W        W89463  19.695   5.037  21.108
85396W        W89464  20.806   6.190  20.971
85397W        W89465  19.456   4.644  21.083
85398W        W89466  19.435   7.110  19.699
85399W        W89467  18.752   7.069  21.333
85400W        W89468  18.864   6.430  18.463
85401W        W89469  21.381   6.188  19.273
85402W        W89470  18.985   4.980  21.159
85403W        W89471  21.758   4.910  18.640
85404W        W89472  19.503   5.967  19.111
85405W        W89473  20.602   5.349  21.192
85406W        W89474  20.493   4.977  20.736
85407W        W89475  19.053   5.349  20.765
85408W        W89476  21.263   7.237  20.594
85409W        W89477  21.054   3.871  21.588
85410W        W89478  18.718   4.021  21.175
85411W        W89479  19.057   5.044  20.228
85412W        W89480  19.426   4.858  18.350
85413W        W89481  18.229   6.617  20.895
85414W        W89482  19.814   5.326  20.338
85415W        W89483  19.637   4.351  18.443
85416W        W89484  18.772   5.167  19.224
85417W        W89485  18.543   7.019  20.661
85418W        W89486  21.338   5.245  18.769
85419W        W89487  21.433   4.161  21.455
85420W        W89488  20.869   6.370  19.418
85421W        W89489  18.467   5.294  21.595
85422W        W89490  21.433   3.758  18.891
85423W        W89491  20.953   6.233  18.902
85424W        W89492  19.855   5.291  18.987
85425W        W89493  21.042   4.095  18.510
85426W        W89494  21.107   4.702  20.696
85427W        W89495  18.816   5.295  19.903
85428W        W89496  19.110   6.234  19.552
85429W        W89497  20.873   4.854  19.517
85430W        W89498  19.896   4.233  20.213
85431W        W89499  21.858   6.144  20.724
85432W        W89500  21.776   4.131  20.285
85433W        W89501  18.315   6.961  19.661
85434W        W89502  18.824   6.148  19.197
85435W        W89503  18.739   3.765  21.750
85436W        W89504  19.858   6.618  21.852
85437W        W89505  21.613   5.586  19.642
85438W        W89506  20.967   5.763  18.522
85439W        W89507  20.262   7.284  20.734
85440W        W89508  21.119   6.006  21.771
85441W        W89509  19.934   3.716  19.051
85442W        W89510  20.647   4.585  19.910
85443W        W89511  18.333   6.172  20.242
85444W        W89512  19.586   4.134  18.883
85445W        W89513  19.390   5.618  21.732
85446W        W89514  20.384   4.599  19.446
85447W        W89515  20.589   6.009  20.568
85448W        W89516  18.743   6.614  21.003
85449W        W89517  19.334   6.597  21.726
85450W        W89518  19.185   4.394  18.740
85451W        W89519  20.702   4.536  19.065
85452W        W89520  20.660   6.644  21.302
85453W        W89521  19.345   5.236  19.901
85454W        W89522  19.000   6.934  20.766
85455W        W89523  21.745   7.051  18.367
85456W        W89524  18.608   5.723  21.363
85457W        W89525  20.603   5.985  20.051
85458W        W89526  19.039   5.634  19.293
85459W        W89527  19.410   6.641  20.688
85460W        W89528  19.788   4.060  19.729
85461W        W89529  18.399   6.044  18.659
85462W        W89530  19.918   4.995  18.529
85463W        W89531  18.564   5.544  19.548
85464W        W89532  19.854   4.186  21.012
85465W        W89533  21.526   3.895  18.439
85466W        W89534  21.619   5.641  21.538
85467W        W89535  20.273   6.898  21.690
85468W        W89536  21.831   5.992  21.212
85469W        W89537  21.239   6.790  21.823
85470W        W89538  18.978   7.246  20.301
85471W        W89539  21.837   5.868  19.175
85472W        W89540  20.367   5.135  19.688
85473W        W89541  20.134   3.747  19.578
85474W        W89542  19.193   6.731  19.415
85475W        W89543  19.692   4.472  20.640
85476W        W89544  19.392   3.841  20.109
85477W        W89545  18.455   6.663  18.657
85478W        W89546  20.271   6.027  19.375
85479W        W89547  19.146   6.822  21.254
85480W        W89548  18.623   5.645  18.950
85481W        W89549  18.508   4.188  19.949
85482W        W89550  20.056   6.153  20.006
85483W        W89551  18.308   4.007  19.026
85484W        W89552  20.972   5.213  20.953
85485W        W89553  20.849   4.599  18.525
85486W        W89554  21.366   6.271  20.173
85487W        W89555  20.027   6.755  20.004
85488W        W89556  19.439   6.859  18.915
85489W        W89557  20.721   3.762  18.345
85490W        W89558  18.521   7.022  20.086
85491W        W89559  20.718   4.780  21.721
85492W        W89560  18.701   4.310  21.720
85493W        W89561  18.432   4.910  19.053
85494W        W89562  19.123   4.899  18.778
85495W        W89563  20.886   5.226  21.595
85496W        W89564  19.229   5.507  20.304
85497W        W89565  20.703   3.793  19.424
85498W        W89566  19.834   7.224  19.927
85499W        W89567  21.048   6.686  20.864
85500W        W89568  20.632   6.835  19.975
85501W        W89569  20.651   5.815  19.569
85502W        W89570  20.113   4.040  18.640
85503W        W89571  21.794   3.668  19.362
85504W        W89572  19.482   5.303  18.525
85505W        W89573  21.648   4.640  19.515
85506W        W89574  20.340   5.810  18.392
85507W        W89575  21.276   6.010  21.140
85508W        W89576  20.930   6.711  18.607
85509W        W89577  19.545   4.386  21.513
85510W        W89578  19.365   4.970  20.754
85511W        W89579  21.457   6.465  21.031
85512W        W89580  20.557   4.415  21.408
85513W        W89581  18.401   4.886  21.185
85514W        W89582  20.161   5.363  20.911
85515W        W89583  18.518   6.121  19.568
85516W        W89584  18.665   5.418  20.458
85517W        W89585  20.982   5.704  20.808
85518W        W89586  20.754   7.084  21.619
85519W        W89587  20.650   4.823  21.172
85520W        W89588  20.927   6.877  19.577
85521W        W89589  19.929   6.597  20.900
85522W        W89590  19.414   6.952  20.169
85523W        W89591  21.219   6.123  20.588
85524W        W89592  20.269   6.195  21.725
85525W        W89593  18.874   6.148  20.064
85526W        W89594  21.220   5.907  19.709
85527W        W89595  20.861   6.973  20.460
85528W        W89596  18.839   6.702  20.330
85529W        W89597  19.860   4.754  21.540
85530W        W89598  20.311   6.920  19.051
85531W        W89599  19.619   6.175  21.689
85532W        W89600  19.745   6.413  19.066
85533W        W89601  18.966   5.153  18.325
85534W        W89602  21.386   5.862  22.518
85535W        W89603  19.434   6.938  22.071
85536W        W89604  19.517   5.090  23.054
85537W        W89605  19.032   4.938  23.218
85538W        W89606  20.023   5.753  22.652
85539W        W89607  20.452   4.945  22.229
85540W        W89608  20.009   6.180  22.198
85541W        W89609  18.705   4.019  23.033
85542W        W89610  21.393   4.413  21.984
85543W        W89611  21.599   6.387  22.481
85544W        W89612  18.728   7.173  22.235
85545W        W89613  19.121   7.219  22.911
85546W        W89614  20.946   5.413  23.071
85547W        W89615  20.912   5.101  22.098
85548W        W89616  21.397   5.453  22.853
85549W        W89617  20.299   4.111  22.869
85550W        W89618  18.956   6.805  22.552
85551W        W89619  19.912   6.878  22.410
85552W        W89620  21.304   4.904  21.874
85553W        W89621  19.491   5.594  23.137
85554W        W89622  18.961   5.633  21.995
85555W        W89623  18.616   4.666  22.174
85556W        W89624  18.678   6.622  22.968
85557W        W89625  19.809   6.105  23.216
85558W        W89626  20.067   4.606  22.614
85559W        W89627  18.233   5.356  22.808
85560W        W89628  20.548   5.035  22.759
85561W        W89629  20.425   5.525  22.863
85562W        W89630  20.414   4.419  22.320
85563W        W89631  20.813   4.299  23.101
85564W        W89632  19.604   4.726  22.477
85565W        W89633  21.225   4.494  22.822
85566W        W89634  21.592   4.976  22.767
85567W        W89635  19.261   3.729  22.473
85568W        W89636  21.732   6.512  21.953
85569W        W89637  20.556   4.302  21.885
85570W        W89638  20.267   6.379  22.612
85571W        W89639  20.366   6.946  23.204
85572W        W89640  21.540   5.949  22.048
85573W        W89641  19.975   5.432  23.109
85574W        W89642  21.045   4.962  22.727
85575W        W89643  21.332   4.695  22.369
85576W        W89644  21.141   6.735  22.758
85577W        W89645  20.871   5.417  22.532
85578W        W89646  21.524   4.069  22.999
85579W        W89647  19.710   6.945  22.964
85580W        W89648  18.825   4.125  22.222
85581W        W89649  18.957   6.899  21.880
85582W        W89650  19.331   5.365  22.631
85583W        W89651  19.815   4.352  22.934
85584W        W89652  19.163   4.142  22.886
85585W        W89653  19.168   4.370  21.911
85586W        W89654  19.941   5.506  22.218
85587W        W89655  19.209   3.821  21.988
85588W        W89656  19.947   4.902  23.039
85589W        W89657  18.858   4.414  23.253
85590W        W89658  18.644   7.126  22.929
85591W        W89659  19.011   5.941  22.413
85592W        W89660  20.646   6.173  22.099
85593W        W89661  21.797   4.472  22.695
85594W        W89662  18.275   7.133  22.490
85595W        W89663  19.537   6.426  22.145
85596W        W89664  21.442   6.808  22.331
85597W        W89665  20.417   5.461  22.345
85598W        W89666  19.260   4.652  22.862
85599W        W89667  20.092   4.562  21.914
85600W        W89668  21.029   4.033  22.709
85601W        W89669  18.359   3.881  22.157
85602W        W89670  19.186   6.068  21.937
85603W        W89671  18.427   6.309  22.705
85604W        W89672  19.539   3.849  22.970
85605W        W89673  20.598   3.926  22.475
85606W        W89674  18.702   4.427  22.642
85607W        W89675  21.669   5.318  21.943
85608W        W89676  18.223   4.338  22.180
85609W        W89677  20.234   7.204  22.216
85610W        W89678  18.380   5.711  21.913
85611W        W89679  21.781   5.563  22.403
85612W        W89680  20.644   5.895  22.502
85613W        W89681  21.118   7.195  22.197
85614W        W89682  19.712   3.761  22.156
85615W        W89683  21.251   6.360  22.099
85616W        W89684  20.791   7.097  22.613
85617W        W89685  19.252   6.380  22.598
85618W        W89686  21.007   5.878  22.862
85619W        W89687  20.104   6.566  23.050
85620W        W89688  21.854   5.126  23.231
85621W        W89689  20.378   6.610  22.165
85622W        W89690  19.520   5.855  22.247
85623W        W89691  21.232   7.237  22.966
85624W        W89692  18.488   5.243  22.131
85625W        W89693  21.622   6.901  22.828
85626W        W89694  21.459   4.225  22.447
85627W        W89695  21.333   5.102  23.213
85628W        W89696  18.864   6.430  22.108
85629W        W89697  21.381   6.188  22.918
85630W        W89698  21.758   4.910  22.285
85631W        W89699  19.503   5.967  22.756
85632W        W89700  19.426   4.858  21.995
85633W        W89701  19.637   4.351  22.088
85634W        W89702  18.772   5.167  22.869
85635W        W89703  21.338   5.245  22.414
85636W        W89704  20.869   6.370  23.063
85637W        W89705  21.433   3.758  22.536
85638W        W89706  20.953   6.233  22.547
85639W        W89707  19.855   5.291  22.632
85640W        W89708  21.042   4.095  22.155
85641W        W89709  19.110   6.234  23.197
85642W        W89710  20.873   4.854  23.162
85643W        W89711  18.315   6.961  23.306
85644W        W89712  18.824   6.148  22.842
85645W        W89713  21.613   5.586  23.287
85646W        W89714  20.967   5.763  22.167
85647W        W89715  19.934   3.716  22.696
85648W        W89716  19.586   4.134  22.528
85649W        W89717  20.384   4.599  23.091
85650W        W89718  19.185   4.394  22.385
85651W        W89719  20.702   4.536  22.710
85652W        W89720  21.745   7.051  22.012
85653W        W89721  18.399   6.044  22.304
85654W        W89722  19.918   4.995  22.174
85655W        W89723  18.564   5.544  23.193
85656W        W89724  21.526   3.895  22.084
85657W        W89725  21.837   5.868  22.820
85658W        W89726  20.134   3.747  23.223
85659W        W89727  19.193   6.731  23.060
85660W        W89728  18.455   6.663  22.302
85661W        W89729  20.271   6.027  23.020
85662W        W89730  18.623   5.645  22.595
85663W        W89731  18.308   4.007  22.671
85664W        W89732  20.849   4.599  22.170
85665W        W89733  19.439   6.859  22.560
85666W        W89734  20.721   3.762  21.990
85667W        W89735  18.432   4.910  22.698
85668W        W89736  19.123   4.899  22.423
85669W        W89737  20.651   5.815  23.214
85670W        W89738  20.113   4.040  22.285
85671W        W89739  21.794   3.668  23.007
85672W        W89740  19.482   5.303  22.170
85673W        W89741  21.648   4.640  23.160
85674W        W89742  20.340   5.810  22.037
85675W        W89743  20.930   6.711  22.252
85676W        W89744  18.518   6.121  23.213
85677W        W89745  20.927   6.877  23.222
85678W        W89746  20.311   6.920  22.696
85679W        W89747  19.745   6.413  22.711
85680W        W89748  18.966   5.153  21.970
85681W        W89749  18.305  10.884   3.359
85682W        W89750  18.681   9.777   2.882
85683W        W89751  21.386   9.507   0.652
85684W        W89752  21.516  10.592   2.679
85685W        W89753  19.434  10.583   0.205
85686W        W89754  19.517   8.735   1.188
85687W        W89755  19.032   8.583   1.352
85688W        W89756  20.023   9.398   0.786
85689W        W89757  19.698  10.490   3.141
85690W        W89758  18.347   8.051   3.104
85691W        W89759  19.109   7.331   2.906
85692W        W89760  20.803   7.719   1.793
85693W        W89761  20.452   8.590   0.363
85694W        W89762  21.022   8.024   3.454
85695W        W89763  18.388   7.816   2.579
85696W        W89764  18.487  10.435   3.600
85697W        W89765  20.009   9.825   0.332
85698W        W89766  18.441   8.608   2.025
85699W        W89767  19.334   8.499   3.262
85700W        W89768  21.793   8.358   1.761
85701W        W89769  21.557   9.401   2.620
85702W        W89770  19.865   8.734   1.647
85703W        W89771  20.411  10.073   2.016
85704W        W89772  18.911   9.507   2.248
85705W        W89773  18.270   9.035   1.819
85706W        W89774  19.306   9.007   3.011
85707W        W89775  21.577   8.790   3.265
85708W        W89776  19.193  10.234   1.710
85709W        W89777  20.314   9.923   2.844
85710W        W89778  19.534   8.563   2.069
85711W        W89779  19.826   9.347   1.712
85712W        W89780  20.823  10.120   3.560
85713W        W89781  19.902   9.440   3.570
85714W        W89782  19.883   9.156   3.048
85715W        W89783  18.292   8.547   3.570
85716W        W89784  21.124  10.082   3.169
85717W        W89785  18.705   7.664   1.167
85718W        W89786  19.232   9.922   2.166
85719W        W89787  21.695   9.705   1.456
85720W        W89788  21.108   8.105   2.023
85721W        W89789  21.393   8.058   0.118
85722W        W89790  21.858   8.859   2.424
85723W        W89791  19.825  10.566   2.177
85724W        W89792  21.599  10.032   0.615
85725W        W89793  18.728  10.818   0.369
85726W        W89794  19.121  10.864   1.045
85727W        W89795  18.918   7.618   2.471
85728W        W89796  21.541   8.636   2.746
85729W        W89797  20.946   9.058   1.205
85730W        W89798  20.912   8.746   0.232
85731W        W89799  20.120   9.890   2.372
85732W        W89800  19.926   8.220   1.571
85733W        W89801  20.526  10.307   2.565
85734W        W89802  21.397   9.098   0.987
85735W        W89803  20.299   7.756   1.003
85736W        W89804  18.956  10.450   0.686
85737W        W89805  18.327   7.949   1.285
85738W        W89806  21.113   8.556   1.759
85739W        W89807  18.571  10.173   1.674
85740W        W89808  19.912  10.523   0.544
85741W        W89809  21.304   8.549   0.008
85742W        W89810  18.327  10.307   2.172
85743W        W89811  19.118   9.879   2.652
85744W        W89812  19.491   9.239   1.271
85745W        W89813  19.513   7.644   2.364
85746W        W89814  21.742   7.406   1.661
85747W        W89815  18.961   9.278   0.129
85748W        W89816  18.616   8.311   0.308
85749W        W89817  18.678  10.267   1.102
85750W        W89818  19.809   9.750   1.350
85751W        W89819  21.141  10.609   3.064
85752W        W89820  20.067   8.251   0.748
85753W        W89821  21.450  10.649   1.520
85754W        W89822  21.127   8.502   3.118
85755W        W89823  21.840  10.158   1.252
85756W        W89824  20.467   9.450   2.736
85757W        W89825  18.233   9.001   0.942
85758W        W89826  19.344   9.416   2.515
85759W        W89827  20.548   8.680   0.893
85760W        W89828  20.425   9.170   0.997
85761W        W89829  18.768   8.590   2.471
85762W        W89830  18.753   8.466   3.393
85763W        W89831  18.643   7.383   1.552
85764W        W89832  20.411   7.730   2.113
85765W        W89833  20.059   7.915   3.276
85766W        W89834  20.414   8.064   0.454
85767W        W89835  21.597  10.457   3.208
85768W        W89836  20.564   7.538   3.247
85769W        W89837  21.583   9.839   3.369
85770W        W89838  21.013   8.006   2.965
85771W        W89839  20.813   7.944   1.235
85772W        W89840  21.206   9.078   3.639
85773W        W89841  18.946  10.654   1.625
85774W        W89842  19.604   8.371   0.611
85775W        W89843  19.173   7.655   3.275
85776W        W89844  21.225   8.139   0.956
85777W        W89845  21.592   8.621   0.901
85778W        W89846  19.335  10.838   3.372
85779W        W89847  19.261   7.374   0.607
85780W        W89848  21.582   7.908   1.642
85781W        W89849  21.732  10.157   0.087
85782W        W89850  18.639   9.360   1.789
85783W        W89851  20.556   7.947   0.019
85784W        W89852  21.690  10.279   1.739
85785W        W89853  21.729   7.473   2.489
85786W        W89854  20.174   8.685   3.043
85787W        W89855  20.267  10.024   0.746
85788W        W89856  20.667   9.318   3.486
85789W        W89857  20.341   7.295   1.795
85790W        W89858  18.953   8.198   1.858
85791W        W89859  18.507   9.398   2.632
85792W        W89860  20.366  10.591   1.338
85793W        W89861  21.560   8.188   2.210
85794W        W89862  20.197  10.535   2.977
85795W        W89863  21.540   9.594   0.182
85796W        W89864  19.975   9.077   1.243
85797W        W89865  21.827   7.588   2.984
85798W        W89866  19.976   9.423   2.578
85799W        W89867  20.193   8.309   2.023
85800W        W89868  21.045   8.607   0.861
85801W        W89869  21.332   8.340   0.503
85802W        W89870  21.141  10.380   0.892
85803W        W89871  20.975   9.983   1.688
85804W        W89872  20.871   9.062   0.666
85805W        W89873  20.304   9.272   1.652
85806W        W89874  21.185   9.060   1.719
85807W        W89875  18.560   8.075   2.143
85808W        W89876  21.338   9.127   2.970
85809W        W89877  21.689  10.745   2.116
85810W        W89878  19.619  10.189   1.518
85811W        W89879  20.626  10.722   2.842
85812W        W89880  20.620   8.052   2.606
85813W        W89881  19.827  10.760   2.667
85814W        W89882  21.524   7.714   1.133
85815W        W89883  21.315   9.033   2.434
85816W        W89884  18.298   8.354   2.472
85817W        W89885  21.158   8.149   1.490
85818W        W89886  21.569   8.300   3.267
85819W        W89887  20.454   9.999   1.485
85820W        W89888  19.710  10.590   1.098
85821W        W89889  18.825   7.770   0.356
85822W        W89890  19.929   7.424   2.166
85823W        W89891  18.957  10.544   0.014
85824W        W89892  19.331   9.010   0.765
85825W        W89893  19.985   9.639   3.078
85826W        W89894  19.815   7.997   1.068
85827W        W89895  21.171   7.594   1.496
85828W        W89896  20.891  10.876   1.824
85829W        W89897  20.303  10.524   2.164
85830W        W89898  19.699   9.561   2.125
85831W        W89899  21.469  10.284   2.251
85832W        W89900  19.163   7.787   1.020
85833W        W89901  19.685  10.084   1.980
85834W        W89902  19.168   8.015   0.045
85835W        W89903  19.969   8.624   2.439
85836W        W89904  20.817   7.490   2.309
85837W        W89905  18.237   9.333   2.194
85838W        W89906  19.941   9.151   0.352
85839W        W89907  19.209   7.466   0.122
85840W        W89908  19.947   8.547   1.173
85841W        W89909  20.917   7.523   2.872
85842W        W89910  19.505   9.535   2.981
85843W        W89911  20.309   9.317   3.198
85844W        W89912  20.926   9.347   3.091
85845W        W89913  20.210   7.487   3.596
85846W        W89914  19.432   8.103   1.989
85847W        W89915  18.858   8.059   1.387
85848W        W89916  18.644  10.771   1.063
85849W        W89917  19.976  10.101   3.188
85850W        W89918  19.011   9.586   0.547
85851W        W89919  20.691   8.971   1.768
85852W        W89920  20.971   8.770   2.167
85853W        W89921  20.176   9.444   2.101
85854W        W89922  20.646   9.818   0.233
85855W        W89923  20.318   7.839   1.561
85856W        W89924  21.797   8.117   0.829
85857W        W89925  18.291  10.706   2.860
85858W        W89926  18.708   9.932   2.392
85859W        W89927  18.275  10.778   0.624
85860W        W89928  20.174   8.048   2.430
85861W        W89929  19.537  10.071   0.279
85862W        W89930  21.442  10.453   0.465
85863W        W89931  20.417   9.106   0.479
85864W        W89932  19.260   8.297   0.996
85865W        W89933  20.092   8.207   0.048
85866W        W89934  20.676   9.772   3.226
85867W        W89935  21.029   7.678   0.843
85868W        W89936  18.359   7.526   0.291
85869W        W89937  19.645   9.845   2.581
85870W        W89938  19.444   9.761   1.673
85871W        W89939  19.186   9.713   0.071
85872W        W89940  18.427   9.954   0.839
85873W        W89941  18.931   9.024   3.281
85874W        W89942  19.635   7.584   3.467
85875W        W89943  20.344   7.726   2.823
85876W        W89944  19.539   7.494   1.104
85877W        W89945  20.598   7.571   0.609
85878W        W89946  18.543   7.503   2.186
85879W        W89947  18.591   8.466   1.556
85880W        W89948  21.280   7.574   1.962
85881W        W89949  18.702   8.072   0.776
85882W        W89950  21.273   7.760   2.392
85883W        W89951  21.669   8.963   0.077
85884W        W89952  18.961   7.721   1.896
85885W        W89953  20.075   8.293   2.836
85886W        W89954  18.223   7.983   0.314
85887W        W89955  19.009   9.372   2.875
85888W        W89956  20.367   8.770   2.054
85889W        W89957  20.234  10.849   0.350
85890W        W89958  18.380   9.356   0.047
85891W        W89959  19.115   9.767   3.173
85892W        W89960  18.636   8.934   2.804
85893W        W89961  19.627   9.039   2.598
85894W        W89962  21.395   7.398   2.860
85895W        W89963  21.793   9.008   2.851
85896W        W89964  21.781   9.208   0.537
85897W        W89965  20.644   9.540   0.636
85898W        W89966  21.118  10.840   0.331
85899W        W89967  20.295   8.830   3.473
85900W        W89968  18.625   9.797   3.513
85901W        W89969  21.831   7.719   3.465
85902W        W89970  21.549   8.647   2.086
85903W        W89971  19.857  10.777   3.563
85904W        W89972  19.712   7.406   0.290
85905W        W89973  21.251  10.005   0.233
85906W        W89974  19.020   8.098   3.119
85907W        W89975  19.454  10.092   2.981
85908W        W89976  21.580   8.083   2.779
85909W        W89977  20.791  10.742   0.747
85910W        W89978  21.030   9.361   2.114
85911W        W89979  19.280   7.777   2.781
85912W        W89980  19.749   8.846   3.538
85913W        W89981  19.252  10.025   0.732
85914W        W89982  21.007   9.523   0.996
85915W        W89983  18.775   8.149   2.720
85916W        W89984  20.104  10.211   1.184
85917W        W89985  21.854   8.771   1.365
85918W        W89986  20.076   7.404   3.084
85919W        W89987  20.856  10.109   2.163
85920W        W89988  21.159  10.453   1.871
85921W        W89989  20.378  10.255   0.299
85922W        W89990  18.388  10.147   3.141
85923W        W89991  19.131   8.139   2.379
85924W        W89992  19.101   7.487   1.489
85925W        W89993  20.722   8.329   2.181
85926W        W89994  19.520   9.500   0.381
85927W        W89995  21.518   9.442   1.880
85928W        W89996  18.845  10.200   3.303
85929W        W89997  21.232  10.882   1.100
85930W        W89998  19.331   7.902   1.545
85931W        W89999  19.100   9.395   1.635
85932W        W90000  19.413  10.806   2.385
85933W        W90001  21.480  10.902   3.417
85934W        W90002  20.639   9.090   2.350
85935W        W90003  18.488   8.888   0.265
85936W        W90004  21.622  10.546   0.962
85937W        W90005  21.459   7.870   0.581
85938W        W90006  19.598   7.389   2.984
85939W        W90007  21.304  10.191   1.442
85940W        W90008  21.333   8.747   1.347
85941W        W90009  19.450   8.420   1.563
85942W        W90010  19.695   8.682   2.887
85943W        W90011  20.806   9.835   2.750
85944W        W90012  19.456   8.289   2.862
85945W        W90013  19.435  10.755   1.478
85946W        W90014  18.752  10.714   3.112
85947W        W90015  18.864  10.075   0.242
85948W        W90016  21.381   9.833   1.052
85949W        W90017  18.985   8.625   2.938
85950W        W90018  21.758   8.555   0.419
85951W        W90019  19.503   9.612   0.890
85952W        W90020  20.602   8.994   2.971
85953W        W90021  20.493   8.622   2.515
85954W        W90022  19.053   8.994   2.544
85955W        W90023  21.263  10.882   2.373
85956W        W90024  21.054   7.516   3.367
85957W        W90025  18.718   7.666   2.954
85958W        W90026  19.057   8.689   2.007
85959W        W90027  19.426   8.503   0.129
85960W        W90028  18.229  10.262   2.674
85961W        W90029  19.814   8.971   2.117
85962W        W90030  19.637   7.996   0.222
85963W        W90031  18.772   8.812   1.003
85964W        W90032  18.543  10.664   2.440
85965W        W90033  21.338   8.890   0.548
85966W        W90034  21.433   7.806   3.234
85967W        W90035  20.869  10.015   1.197
85968W        W90036  18.467   8.939   3.374
85969W        W90037  21.433   7.403   0.670
85970W        W90038  20.953   9.878   0.681
85971W        W90039  19.855   8.936   0.766
85972W        W90040  21.042   7.740   0.289
85973W        W90041  21.107   8.347   2.475
85974W        W90042  18.816   8.940   1.682
85975W        W90043  19.110   9.879   1.331
85976W        W90044  20.873   8.499   1.296
85977W        W90045  19.896   7.878   1.992
85978W        W90046  21.858   9.789   2.503
85979W        W90047  21.776   7.776   2.064
85980W        W90048  18.315  10.606   1.440
85981W        W90049  18.824   9.793   0.976
85982W        W90050  18.739   7.410   3.529
85983W        W90051  19.858  10.263   3.631
85984W        W90052  21.613   9.231   1.421
85985W        W90053  20.967   9.408   0.301
85986W        W90054  20.262  10.929   2.513
85987W        W90055  21.119   9.651   3.550
85988W        W90056  19.934   7.361   0.830
85989W        W90057  20.647   8.230   1.689
85990W        W90058  18.333   9.817   2.021
85991W        W90059  19.586   7.779   0.662
85992W        W90060  19.390   9.263   3.511
85993W        W90061  20.384   8.244   1.225
85994W        W90062  20.589   9.654   2.347
85995W        W90063  18.743  10.259   2.782
85996W        W90064  19.334  10.242   3.505
85997W        W90065  19.185   8.039   0.519
85998W        W90066  20.702   8.181   0.844
85999W        W90067  20.660  10.289   3.081
86000W        W90068  19.345   8.881   1.680
86001W        W90069  19.000  10.579   2.545
86002W        W90070  21.745  10.696   0.146
86003W        W90071  18.608   9.368   3.142
86004W        W90072  20.603   9.630   1.830
86005W        W90073  19.039   9.279   1.072
86006W        W90074  19.410  10.286   2.467
86007W        W90075  19.788   7.705   1.508
86008W        W90076  18.399   9.689   0.438
86009W        W90077  19.918   8.640   0.308
86010W        W90078  18.564   9.189   1.327
86011W        W90079  19.854   7.831   2.791
86012W        W90080  21.526   7.540   0.218
86013W        W90081  21.619   9.286   3.317
86014W        W90082  20.273  10.543   3.469
86015W        W90083  21.831   9.637   2.991
86016W        W90084  21.239  10.435   3.602
86017W        W90085  18.978  10.891   2.080
86018W        W90086  21.837   9.513   0.954
86019W        W90087  20.367   8.780   1.467
86020W        W90088  20.134   7.392   1.357
86021W        W90089  19.193  10.376   1.194
86022W        W90090  19.692   8.117   2.419
86023W        W90091  19.392   7.486   1.888
86024W        W90092  18.455  10.308   0.436
86025W        W90093  20.271   9.672   1.154
86026W        W90094  19.146  10.467   3.033
86027W        W90095  18.623   9.290   0.729
86028W        W90096  18.508   7.833   1.728
86029W        W90097  20.056   9.798   1.785
86030W        W90098  18.308   7.652   0.805
86031W        W90099  20.972   8.858   2.732
86032W        W90100  20.849   8.244   0.304
86033W        W90101  21.366   9.916   1.952
86034W        W90102  20.027  10.400   1.783
86035W        W90103  19.439  10.504   0.694
86036W        W90104  20.721   7.407   0.124
86037W        W90105  18.521  10.667   1.865
86038W        W90106  20.718   8.425   3.500
86039W        W90107  18.701   7.955   3.499
86040W        W90108  18.432   8.555   0.832
86041W        W90109  19.123   8.544   0.557
86042W        W90110  20.886   8.871   3.374
86043W        W90111  19.229   9.152   2.083
86044W        W90112  20.703   7.438   1.203
86045W        W90113  19.834  10.869   1.706
86046W        W90114  21.048  10.331   2.643
86047W        W90115  20.632  10.480   1.754
86048W        W90116  20.651   9.460   1.348
86049W        W90117  20.113   7.685   0.419
86050W        W90118  21.794   7.313   1.141
86051W        W90119  19.482   8.948   0.304
86052W        W90120  21.648   8.285   1.294
86053W        W90121  20.340   9.455   0.171
86054W        W90122  21.276   9.655   2.919
86055W        W90123  20.930  10.356   0.386
86056W        W90124  19.545   8.031   3.292
86057W        W90125  19.365   8.615   2.533
86058W        W90126  21.457  10.110   2.810
86059W        W90127  20.557   8.060   3.187
86060W        W90128  18.401   8.531   2.964
86061W        W90129  20.161   9.008   2.690
86062W        W90130  18.518   9.766   1.347
86063W        W90131  18.665   9.063   2.237
86064W        W90132  20.982   9.349   2.587
86065W        W90133  20.754  10.729   3.398
86066W        W90134  20.650   8.468   2.951
86067W        W90135  20.927  10.522   1.356
86068W        W90136  19.929  10.242   2.679
86069W        W90137  19.414  10.597   1.948
86070W        W90138  21.219   9.768   2.367
86071W        W90139  20.269   9.840   3.504
86072W        W90140  18.874   9.793   1.843
86073W        W90141  21.220   9.552   1.488
86074W        W90142  20.861  10.618   2.239
86075W        W90143  18.839  10.347   2.109
86076W        W90144  19.860   8.399   3.319
86077W        W90145  20.311  10.565   0.830
86078W        W90146  19.619   9.820   3.468
86079W        W90147  19.745  10.058   0.845
86080W        W90148  18.966   8.798   0.104
86081W        W90149  18.305  10.884   7.003
86082W        W90150  18.681   9.777   6.526
86083W        W90151  21.386   9.507   4.296
86084W        W90152  21.516  10.592   6.323
86085W        W90153  19.434  10.583   3.849
86086W        W90154  19.517   8.735   4.832
86087W        W90155  19.032   8.583   4.996
86088W        W90156  20.023   9.398   4.430
86089W        W90157  19.698  10.490   6.785
86090W        W90158  18.347   8.051   6.748
86091W        W90159  19.109   7.331   6.550
86092W        W90160  20.803   7.719   5.437
86093W        W90161  20.452   8.590   4.007
86094W        W90162  21.022   8.024   7.098
86095W        W90163  18.388   7.816   6.223
86096W        W90164  18.487  10.435   7.244
86097W        W90165  20.009   9.825   3.976
86098W        W90166  18.441   8.608   5.669
86099W        W90167  19.334   8.499   6.906
86100W        W90168  21.793   8.358   5.405
86101W        W90169  21.557   9.401   6.264
86102W        W90170  19.865   8.734   5.291
86103W        W90171  20.411  10.073   5.660
86104W        W90172  18.911   9.507   5.892
86105W        W90173  18.270   9.035   5.463
86106W        W90174  19.306   9.007   6.655
86107W        W90175  21.577   8.790   6.909
86108W        W90176  19.193  10.234   5.354
86109W        W90177  20.314   9.923   6.488
86110W        W90178  19.534   8.563   5.713
86111W        W90179  19.826   9.347   5.356
86112W        W90180  20.823  10.120   7.204
86113W        W90181  19.902   9.440   7.214
86114W        W90182  19.883   9.156   6.692
86115W        W90183  18.292   8.547   7.214
86116W        W90184  21.124  10.082   6.813
86117W        W90185  18.705   7.664   4.811
86118W        W90186  19.232   9.922   5.810
86119W        W90187  21.695   9.705   5.100
86120W        W90188  21.108   8.105   5.667
86121W        W90189  21.393   8.058   3.762
86122W        W90190  21.858   8.859   6.068
86123W        W90191  19.825  10.566   5.821
86124W        W90192  21.599  10.032   4.259
86125W        W90193  18.728  10.818   4.013
86126W        W90194  19.121  10.864   4.689
86127W        W90195  18.918   7.618   6.115
86128W        W90196  21.541   8.636   6.390
86129W        W90197  20.946   9.058   4.849
86130W        W90198  20.912   8.746   3.876
86131W        W90199  20.120   9.890   6.016
86132W        W90200  19.926   8.220   5.215
86133W        W90201  20.526  10.307   6.209
86134W        W90202  21.397   9.098   4.631
86135W        W90203  20.299   7.756   4.647
86136W        W90204  18.956  10.450   4.330
86137W        W90205  18.327   7.949   4.929
86138W        W90206  21.113   8.556   5.403
86139W        W90207  18.571  10.173   5.318
86140W        W90208  19.912  10.523   4.188
86141W        W90209  21.304   8.549   3.652
86142W        W90210  18.327  10.307   5.816
86143W        W90211  19.118   9.879   6.296
86144W        W90212  19.491   9.239   4.915
86145W        W90213  19.513   7.644   6.008
86146W        W90214  21.742   7.406   5.305
86147W        W90215  18.961   9.278   3.773
86148W        W90216  18.616   8.311   3.952
86149W        W90217  18.678  10.267   4.746
86150W        W90218  19.809   9.750   4.994
86151W        W90219  21.141  10.609   6.708
86152W        W90220  20.067   8.251   4.392
86153W        W90221  21.450  10.649   5.164
86154W        W90222  21.127   8.502   6.762
86155W        W90223  21.840  10.158   4.896
86156W        W90224  20.467   9.450   6.380
86157W        W90225  18.233   9.001   4.586
86158W        W90226  19.344   9.416   6.159
86159W        W90227  20.548   8.680   4.537
86160W        W90228  20.425   9.170   4.641
86161W        W90229  18.768   8.590   6.115
86162W        W90230  18.753   8.466   7.037
86163W        W90231  18.643   7.383   5.196
86164W        W90232  20.411   7.730   5.757
86165W        W90233  20.059   7.915   6.920
86166W        W90234  20.414   8.064   4.098
86167W        W90235  21.597  10.457   6.852
86168W        W90236  20.564   7.538   6.891
86169W        W90237  21.583   9.839   7.013
86170W        W90238  21.013   8.006   6.609
86171W        W90239  20.813   7.944   4.879
86172W        W90240  21.206   9.078   7.283
86173W        W90241  18.946  10.654   5.269
86174W        W90242  19.604   8.371   4.255
86175W        W90243  19.173   7.655   6.919
86176W        W90244  21.225   8.139   4.600
86177W        W90245  21.592   8.621   4.545
86178W        W90246  19.335  10.838   7.016
86179W        W90247  19.261   7.374   4.251
86180W        W90248  21.582   7.908   5.286
86181W        W90249  21.732  10.157   3.731
86182W        W90250  18.639   9.360   5.433
86183W        W90251  20.556   7.947   3.663
86184W        W90252  21.690  10.279   5.383
86185W        W90253  21.729   7.473   6.133
86186W        W90254  20.174   8.685   6.687
86187W        W90255  20.267  10.024   4.390
86188W        W90256  20.667   9.318   7.130
86189W        W90257  20.341   7.295   5.439
86190W        W90258  18.953   8.198   5.502
86191W        W90259  18.507   9.398   6.276
86192W        W90260  20.366  10.591   4.982
86193W        W90261  21.560   8.188   5.854
86194W        W90262  20.197  10.535   6.621
86195W        W90263  21.540   9.594   3.826
86196W        W90264  19.975   9.077   4.887
86197W        W90265  21.827   7.588   6.628
86198W        W90266  19.976   9.423   6.222
86199W        W90267  20.193   8.309   5.667
86200W        W90268  21.045   8.607   4.505
86201W        W90269  21.332   8.340   4.147
86202W        W90270  21.141  10.380   4.536
86203W        W90271  20.975   9.983   5.332
86204W        W90272  20.871   9.062   4.310
86205W        W90273  20.304   9.272   5.296
86206W        W90274  21.185   9.060   5.363
86207W        W90275  18.560   8.075   5.787
86208W        W90276  21.338   9.127   6.614
86209W        W90277  21.689  10.745   5.760
86210W        W90278  19.619  10.189   5.162
86211W        W90279  20.626  10.722   6.486
86212W        W90280  20.620   8.052   6.250
86213W        W90281  19.827  10.760   6.311
86214W        W90282  21.524   7.714   4.777
86215W        W90283  21.315   9.033   6.078
86216W        W90284  18.298   8.354   6.116
86217W        W90285  21.158   8.149   5.134
86218W        W90286  21.569   8.300   6.911
86219W        W90287  20.454   9.999   5.129
86220W        W90288  19.710  10.590   4.742
86221W        W90289  18.825   7.770   4.000
86222W        W90290  19.929   7.424   5.810
86223W        W90291  18.957  10.544   3.658
86224W        W90292  19.331   9.010   4.409
86225W        W90293  19.985   9.639   6.722
86226W        W90294  19.815   7.997   4.712
86227W        W90295  21.171   7.594   5.140
86228W        W90296  20.891  10.876   5.468
86229W        W90297  20.303  10.524   5.808
86230W        W90298  19.699   9.561   5.769
86231W        W90299  21.469  10.284   5.895
86232W        W90300  19.163   7.787   4.664
86233W        W90301  19.685  10.084   5.624
86234W        W90302  19.168   8.015   3.689
86235W        W90303  19.969   8.624   6.083
86236W        W90304  20.817   7.490   5.953
86237W        W90305  18.237   9.333   5.838
86238W        W90306  19.941   9.151   3.996
86239W        W90307  19.209   7.466   3.766
86240W        W90308  19.947   8.547   4.817
86241W        W90309  20.917   7.523   6.516
86242W        W90310  19.505   9.535   6.625
86243W        W90311  20.309   9.317   6.842
86244W        W90312  20.926   9.347   6.735
86245W        W90313  20.210   7.487   7.240
86246W        W90314  19.432   8.103   5.633
86247W        W90315  18.858   8.059   5.031
86248W        W90316  18.644  10.771   4.707
86249W        W90317  19.976  10.101   6.832
86250W        W90318  19.011   9.586   4.191
86251W        W90319  20.691   8.971   5.412
86252W        W90320  20.971   8.770   5.811
86253W        W90321  20.176   9.444   5.745
86254W        W90322  20.646   9.818   3.877
86255W        W90323  20.318   7.839   5.205
86256W        W90324  21.797   8.117   4.473
86257W        W90325  18.291  10.706   6.504
86258W        W90326  18.708   9.932   6.036
86259W        W90327  18.275  10.778   4.268
86260W        W90328  20.174   8.048   6.074
86261W        W90329  19.537  10.071   3.923
86262W        W90330  21.442  10.453   4.109
86263W        W90331  20.417   9.106   4.123
86264W        W90332  19.260   8.297   4.640
86265W        W90333  20.092   8.207   3.692
86266W        W90334  20.676   9.772   6.870
86267W        W90335  21.029   7.678   4.487
86268W        W90336  18.359   7.526   3.935
86269W        W90337  19.645   9.845   6.225
86270W        W90338  19.444   9.761   5.317
86271W        W90339  19.186   9.713   3.715
86272W        W90340  18.427   9.954   4.483
86273W        W90341  18.931   9.024   6.925
86274W        W90342  19.635   7.584   7.111
86275W        W90343  20.344   7.726   6.467
86276W        W90344  19.539   7.494   4.748
86277W        W90345  20.598   7.571   4.253
86278W        W90346  18.543   7.503   5.830
86279W        W90347  18.591   8.466   5.200
86280W        W90348  21.280   7.574   5.606
86281W        W90349  18.702   8.072   4.420
86282W        W90350  21.273   7.760   6.036
86283W        W90351  21.669   8.963   3.721
86284W        W90352  18.961   7.721   5.540
86285W        W90353  20.075   8.293   6.480
86286W        W90354  18.223   7.983   3.958
86287W        W90355  19.009   9.372   6.519
86288W        W90356  20.367   8.770   5.698
86289W        W90357  20.234  10.849   3.994
86290W        W90358  18.380   9.356   3.691
86291W        W90359  19.115   9.767   6.817
86292W        W90360  18.636   8.934   6.448
86293W        W90361  19.627   9.039   6.242
86294W        W90362  21.395   7.398   6.504
86295W        W90363  21.793   9.008   6.495
86296W        W90364  21.781   9.208   4.181
86297W        W90365  20.644   9.540   4.280
86298W        W90366  21.118  10.840   3.975
86299W        W90367  20.295   8.830   7.117
86300W        W90368  18.625   9.797   7.157
86301W        W90369  21.831   7.719   7.109
86302W        W90370  21.549   8.647   5.730
86303W        W90371  19.857  10.777   7.207
86304W        W90372  19.712   7.406   3.934
86305W        W90373  21.251  10.005   3.877
86306W        W90374  19.020   8.098   6.763
86307W        W90375  19.454  10.092   6.625
86308W        W90376  21.580   8.083   6.423
86309W        W90377  20.791  10.742   4.391
86310W        W90378  21.030   9.361   5.758
86311W        W90379  19.280   7.777   6.425
86312W        W90380  19.749   8.846   7.182
86313W        W90381  19.252  10.025   4.376
86314W        W90382  21.007   9.523   4.640
86315W        W90383  18.775   8.149   6.364
86316W        W90384  20.104  10.211   4.828
86317W        W90385  21.854   8.771   5.009
86318W        W90386  20.076   7.404   6.728
86319W        W90387  20.856  10.109   5.807
86320W        W90388  21.159  10.453   5.515
86321W        W90389  20.378  10.255   3.943
86322W        W90390  18.388  10.147   6.785
86323W        W90391  19.131   8.139   6.023
86324W        W90392  19.101   7.487   5.133
86325W        W90393  20.722   8.329   5.825
86326W        W90394  19.520   9.500   4.025
86327W        W90395  21.518   9.442   5.524
86328W        W90396  18.845  10.200   6.947
86329W        W90397  21.232  10.882   4.744
86330W        W90398  19.331   7.902   5.189
86331W        W90399  19.100   9.395   5.279
86332W        W90400  19.413  10.806   6.029
86333W        W90401  21.480  10.902   7.061
86334W        W90402  20.639   9.090   5.994
86335W        W90403  18.488   8.888   3.909
86336W        W90404  21.622  10.546   4.606
86337W        W90405  21.459   7.870   4.225
86338W        W90406  19.598   7.389   6.628
86339W        W90407  21.304  10.191   5.086
86340W        W90408  21.333   8.747   4.991
86341W        W90409  19.450   8.420   5.207
86342W        W90410  19.695   8.682   6.531
86343W        W90411  20.806   9.835   6.394
86344W        W90412  19.456   8.289   6.506
86345W        W90413  19.435  10.755   5.122
86346W        W90414  18.752  10.714   6.756
86347W        W90415  18.864  10.075   3.886
86348W        W90416  21.381   9.833   4.696
86349W        W90417  18.985   8.625   6.582
86350W        W90418  21.758   8.555   4.063
86351W        W90419  19.503   9.612   4.534
86352W        W90420  20.602   8.994   6.615
86353W        W90421  20.493   8.622   6.159
86354W        W90422  19.053   8.994   6.188
86355W        W90423  21.263  10.882   6.017
86356W        W90424  21.054   7.516   7.011
86357W        W90425  18.718   7.666   6.598
86358W        W90426  19.057   8.689   5.651
86359W        W90427  19.426   8.503   3.773
86360W        W90428  18.229  10.262   6.318
86361W        W90429  19.814   8.971   5.761
86362W        W90430  19.637   7.996   3.866
86363W        W90431  18.772   8.812   4.647
86364W        W90432  18.543  10.664   6.084
86365W        W90433  21.338   8.890   4.192
86366W        W90434  21.433   7.806   6.878
86367W        W90435  20.869  10.015   4.841
86368W        W90436  18.467   8.939   7.018
86369W        W90437  21.433   7.403   4.314
86370W        W90438  20.953   9.878   4.325
86371W        W90439  19.855   8.936   4.410
86372W        W90440  21.042   7.740   3.933
86373W        W90441  21.107   8.347   6.119
86374W        W90442  18.816   8.940   5.326
86375W        W90443  19.110   9.879   4.975
86376W        W90444  20.873   8.499   4.940
86377W        W90445  19.896   7.878   5.636
86378W        W90446  21.858   9.789   6.147
86379W        W90447  21.776   7.776   5.708
86380W        W90448  18.315  10.606   5.084
86381W        W90449  18.824   9.793   4.620
86382W        W90450  18.739   7.410   7.173
86383W        W90451  19.858  10.263   7.275
86384W        W90452  21.613   9.231   5.065
86385W        W90453  20.967   9.408   3.945
86386W        W90454  20.262  10.929   6.157
86387W        W90455  21.119   9.651   7.194
86388W        W90456  19.934   7.361   4.474
86389W        W90457  20.647   8.230   5.333
86390W        W90458  18.333   9.817   5.665
86391W        W90459  19.586   7.779   4.306
86392W        W90460  19.390   9.263   7.155
86393W        W90461  20.384   8.244   4.869
86394W        W90462  20.589   9.654   5.991
86395W        W90463  18.743  10.259   6.426
86396W        W90464  19.334  10.242   7.149
86397W        W90465  19.185   8.039   4.163
86398W        W90466  20.702   8.181   4.488
86399W        W90467  20.660  10.289   6.725
86400W        W90468  19.345   8.881   5.324
86401W        W90469  19.000  10.579   6.189
86402W        W90470  21.745  10.696   3.790
86403W        W90471  18.608   9.368   6.786
86404W        W90472  20.603   9.630   5.474
86405W        W90473  19.039   9.279   4.716
86406W        W90474  19.410  10.286   6.111
86407W        W90475  19.788   7.705   5.152
86408W        W90476  18.399   9.689   4.082
86409W        W90477  19.918   8.640   3.952
86410W        W90478  18.564   9.189   4.971
86411W        W90479  19.854   7.831   6.435
86412W        W90480  21.526   7.540   3.862
86413W        W90481  21.619   9.286   6.961
86414W        W90482  20.273  10.543   7.113
86415W        W90483  21.831   9.637   6.635
86416W        W90484  21.239  10.435   7.246
86417W        W90485  18.978  10.891   5.724
86418W        W90486  21.837   9.513   4.598
86419W        W90487  20.367   8.780   5.111
86420W        W90488  20.134   7.392   5.001
86421W        W90489  19.193  10.376   4.838
86422W        W90490  19.692   8.117   6.063
86423W        W90491  19.392   7.486   5.532
86424W        W90492  18.455  10.308   4.080
86425W        W90493  20.271   9.672   4.798
86426W        W90494  19.146  10.467   6.677
86427W        W90495  18.623   9.290   4.373
86428W        W90496  18.508   7.833   5.372
86429W        W90497  20.056   9.798   5.429
86430W        W90498  18.308   7.652   4.449
86431W        W90499  20.972   8.858   6.376
86432W        W90500  20.849   8.244   3.948
86433W        W90501  21.366   9.916   5.596
86434W        W90502  20.027  10.400   5.427
86435W        W90503  19.439  10.504   4.338
86436W        W90504  20.721   7.407   3.768
86437W        W90505  18.521  10.667   5.509
86438W        W90506  20.718   8.425   7.144
86439W        W90507  18.701   7.955   7.143
86440W        W90508  18.432   8.555   4.476
86441W        W90509  19.123   8.544   4.201
86442W        W90510  20.886   8.871   7.018
86443W        W90511  19.229   9.152   5.727
86444W        W90512  20.703   7.438   4.847
86445W        W90513  19.834  10.869   5.350
86446W        W90514  21.048  10.331   6.287
86447W        W90515  20.632  10.480   5.398
86448W        W90516  20.651   9.460   4.992
86449W        W90517  20.113   7.685   4.063
86450W        W90518  21.794   7.313   4.785
86451W        W90519  19.482   8.948   3.948
86452W        W90520  21.648   8.285   4.938
86453W        W90521  20.340   9.455   3.815
86454W        W90522  21.276   9.655   6.563
86455W        W90523  20.930  10.356   4.030
86456W        W90524  19.545   8.031   6.936
86457W        W90525  19.365   8.615   6.177
86458W        W90526  21.457  10.110   6.454
86459W        W90527  20.557   8.060   6.831
86460W        W90528  18.401   8.531   6.608
86461W        W90529  20.161   9.008   6.334
86462W        W90530  18.518   9.766   4.991
86463W        W90531  18.665   9.063   5.881
86464W        W90532  20.982   9.349   6.231
86465W        W90533  20.754  10.729   7.042
86466W        W90534  20.650   8.468   6.595
86467W        W90535  20.927  10.522   5.000
86468W        W90536  19.929  10.242   6.323
86469W        W90537  19.414  10.597   5.592
86470W        W90538  21.219   9.768   6.011
86471W        W90539  20.269   9.840   7.148
86472W        W90540  18.874   9.793   5.487
86473W        W90541  21.220   9.552   5.132
86474W        W90542  20.861  10.618   5.883
86475W        W90543  18.839  10.347   5.753
86476W        W90544  19.860   8.399   6.963
86477W        W90545  20.311  10.565   4.474
86478W        W90546  19.619   9.820   7.112
86479W        W90547  19.745  10.058   4.489
86480W        W90548  18.966   8.798   3.748
86481W        W90549  18.305  10.884  10.648
86482W        W90550  18.681   9.777  10.171
86483W        W90551  21.386   9.507   7.941
86484W        W90552  21.516  10.592   9.968
86485W        W90553  19.434  10.583   7.494
86486W        W90554  19.517   8.735   8.477
86487W        W90555  19.032   8.583   8.641
86488W        W90556  20.023   9.398   8.075
86489W        W90557  19.698  10.490  10.430
86490W        W90558  18.347   8.051  10.393
86491W        W90559  19.109   7.331  10.195
86492W        W90560  20.803   7.719   9.082
86493W        W90561  20.452   8.590   7.652
86494W        W90562  21.022   8.024  10.743
86495W        W90563  18.388   7.816   9.868
86496W        W90564  18.487  10.435  10.889
86497W        W90565  20.009   9.825   7.621
86498W        W90566  18.441   8.608   9.314
86499W        W90567  19.334   8.499  10.551
86500W        W90568  21.793   8.358   9.050
86501W        W90569  21.557   9.401   9.909
86502W        W90570  19.865   8.734   8.936
86503W        W90571  20.411  10.073   9.305
86504W        W90572  18.911   9.507   9.537
86505W        W90573  18.270   9.035   9.108
86506W        W90574  19.306   9.007  10.300
86507W        W90575  21.577   8.790  10.554
86508W        W90576  19.193  10.234   8.999
86509W        W90577  20.314   9.923  10.133
86510W        W90578  19.534   8.563   9.358
86511W        W90579  19.826   9.347   9.001
86512W        W90580  20.823  10.120  10.849
86513W        W90581  19.902   9.440  10.859
86514W        W90582  19.883   9.156  10.337
86515W        W90583  18.292   8.547  10.859
86516W        W90584  21.124  10.082  10.458
86517W        W90585  18.705   7.664   8.456
86518W        W90586  19.232   9.922   9.455
86519W        W90587  21.695   9.705   8.745
86520W        W90588  21.108   8.105   9.312
86521W        W90589  21.393   8.058   7.407
86522W        W90590  21.858   8.859   9.713
86523W        W90591  19.825  10.566   9.466
86524W        W90592  21.599  10.032   7.904
86525W        W90593  18.728  10.818   7.658
86526W        W90594  19.121  10.864   8.334
86527W        W90595  18.918   7.618   9.760
86528W        W90596  21.541   8.636  10.035
86529W        W90597  20.946   9.058   8.494
86530W        W90598  20.912   8.746   7.521
86531W        W90599  20.120   9.890   9.661
86532W        W90600  19.926   8.220   8.860
86533W        W90601  20.526  10.307   9.854
86534W        W90602  21.397   9.098   8.276
86535W        W90603  20.299   7.756   8.292
86536W        W90604  18.956  10.450   7.975
86537W        W90605  18.327   7.949   8.574
86538W        W90606  21.113   8.556   9.048
86539W        W90607  18.571  10.173   8.963
86540W        W90608  19.912  10.523   7.833
86541W        W90609  21.304   8.549   7.297
86542W        W90610  18.327  10.307   9.461
86543W        W90611  19.118   9.879   9.941
86544W        W90612  19.491   9.239   8.560
86545W        W90613  19.513   7.644   9.653
86546W        W90614  21.742   7.406   8.950
86547W        W90615  18.961   9.278   7.418
86548W        W90616  18.616   8.311   7.597
86549W        W90617  18.678  10.267   8.391
86550W        W90618  19.809   9.750   8.639
86551W        W90619  21.141  10.609  10.353
86552W        W90620  20.067   8.251   8.037
86553W        W90621  21.450  10.649   8.809
86554W        W90622  21.127   8.502  10.407
86555W        W90623  21.840  10.158   8.541
86556W        W90624  20.467   9.450  10.025
86557W        W90625  18.233   9.001   8.231
86558W        W90626  19.344   9.416   9.804
86559W        W90627  20.548   8.680   8.182
86560W        W90628  20.425   9.170   8.286
86561W        W90629  18.768   8.590   9.760
86562W        W90630  18.753   8.466  10.682
86563W        W90631  18.643   7.383   8.841
86564W        W90632  20.411   7.730   9.402
86565W        W90633  20.059   7.915  10.565
86566W        W90634  20.414   8.064   7.743
86567W        W90635  21.597  10.457  10.497
86568W        W90636  20.564   7.538  10.536
86569W        W90637  21.583   9.839  10.658
86570W        W90638  21.013   8.006  10.254
86571W        W90639  20.813   7.944   8.524
86572W        W90640  21.206   9.078  10.928
86573W        W90641  18.946  10.654   8.914
86574W        W90642  19.604   8.371   7.900
86575W        W90643  19.173   7.655  10.564
86576W        W90644  21.225   8.139   8.245
86577W        W90645  21.592   8.621   8.190
86578W        W90646  19.335  10.838  10.661
86579W        W90647  19.261   7.374   7.896
86580W        W90648  21.582   7.908   8.931
86581W        W90649  21.732  10.157   7.376
86582W        W90650  18.639   9.360   9.078
86583W        W90651  20.556   7.947   7.308
86584W        W90652  21.690  10.279   9.028
86585W        W90653  21.729   7.473   9.778
86586W        W90654  20.174   8.685  10.332
86587W        W90655  20.267  10.024   8.035
86588W        W90656  20.667   9.318  10.775
86589W        W90657  20.341   7.295   9.084
86590W        W90658  18.953   8.198   9.147
86591W        W90659  18.507   9.398   9.921
86592W        W90660  20.366  10.591   8.627
86593W        W90661  21.560   8.188   9.499
86594W        W90662  20.197  10.535  10.266
86595W        W90663  21.540   9.594   7.471
86596W        W90664  19.975   9.077   8.532
86597W        W90665  21.827   7.588  10.273
86598W        W90666  19.976   9.423   9.867
86599W        W90667  20.193   8.309   9.312
86600W        W90668  21.045   8.607   8.150
86601W        W90669  21.332   8.340   7.792
86602W        W90670  21.141  10.380   8.181
86603W        W90671  20.975   9.983   8.977
86604W        W90672  20.871   9.062   7.955
86605W        W90673  20.304   9.272   8.941
86606W        W90674  21.185   9.060   9.008
86607W        W90675  18.560   8.075   9.432
86608W        W90676  21.338   9.127  10.259
86609W        W90677  21.689  10.745   9.405
86610W        W90678  19.619  10.189   8.807
86611W        W90679  20.626  10.722  10.131
86612W        W90680  20.620   8.052   9.895
86613W        W90681  19.827  10.760   9.956
86614W        W90682  21.524   7.714   8.422
86615W        W90683  21.315   9.033   9.723
86616W        W90684  18.298   8.354   9.761
86617W        W90685  21.158   8.149   8.779
86618W        W90686  21.569   8.300  10.556
86619W        W90687  20.454   9.999   8.774
86620W        W90688  19.710  10.590   8.387
86621W        W90689  18.825   7.770   7.645
86622W        W90690  19.929   7.424   9.455
86623W        W90691  18.957  10.544   7.303
86624W        W90692  19.331   9.010   8.054
86625W        W90693  19.985   9.639  10.367
86626W        W90694  19.815   7.997   8.357
86627W        W90695  21.171   7.594   8.785
86628W        W90696  20.891  10.876   9.113
86629W        W90697  20.303  10.524   9.453
86630W        W90698  19.699   9.561   9.414
86631W        W90699  21.469  10.284   9.540
86632W        W90700  19.163   7.787   8.309
86633W        W90701  19.685  10.084   9.269
86634W        W90702  19.168   8.015   7.334
86635W        W90703  19.969   8.624   9.728
86636W        W90704  20.817   7.490   9.598
86637W        W90705  18.237   9.333   9.483
86638W        W90706  19.941   9.151   7.641
86639W        W90707  19.209   7.466   7.411
86640W        W90708  19.947   8.547   8.462
86641W        W90709  20.917   7.523  10.161
86642W        W90710  19.505   9.535  10.270
86643W        W90711  20.309   9.317  10.487
86644W        W90712  20.926   9.347  10.380
86645W        W90713  20.210   7.487  10.885
86646W        W90714  19.432   8.103   9.278
86647W        W90715  18.858   8.059   8.676
86648W        W90716  18.644  10.771   8.352
86649W        W90717  19.976  10.101  10.477
86650W        W90718  19.011   9.586   7.836
86651W        W90719  20.691   8.971   9.057
86652W        W90720  20.971   8.770   9.456
86653W        W90721  20.176   9.444   9.390
86654W        W90722  20.646   9.818   7.522
86655W        W90723  20.318   7.839   8.850
86656W        W90724  21.797   8.117   8.118
86657W        W90725  18.291  10.706  10.149
86658W        W90726  18.708   9.932   9.681
86659W        W90727  18.275  10.778   7.913
86660W        W90728  20.174   8.048   9.719
86661W        W90729  19.537  10.071   7.568
86662W        W90730  21.442  10.453   7.754
86663W        W90731  20.417   9.106   7.768
86664W        W90732  19.260   8.297   8.285
86665W        W90733  20.092   8.207   7.337
86666W        W90734  20.676   9.772  10.515
86667W        W90735  21.029   7.678   8.132
86668W        W90736  18.359   7.526   7.580
86669W        W90737  19.645   9.845   9.870
86670W        W90738  19.444   9.761   8.962
86671W        W90739  19.186   9.713   7.360
86672W        W90740  18.427   9.954   8.128
86673W        W90741  18.931   9.024  10.570
86674W        W90742  19.635   7.584  10.756
86675W        W90743  20.344   7.726  10.112
86676W        W90744  19.539   7.494   8.393
86677W        W90745  20.598   7.571   7.898
86678W        W90746  18.543   7.503   9.475
86679W        W90747  18.591   8.466   8.845
86680W        W90748  21.280   7.574   9.251
86681W        W90749  18.702   8.072   8.065
86682W        W90750  21.273   7.760   9.681
86683W        W90751  21.669   8.963   7.366
86684W        W90752  18.961   7.721   9.185
86685W        W90753  20.075   8.293  10.125
86686W        W90754  18.223   7.983   7.603
86687W        W90755  19.009   9.372  10.164
86688W        W90756  20.367   8.770   9.343
86689W        W90757  20.234  10.849   7.639
86690W        W90758  18.380   9.356   7.336
86691W        W90759  19.115   9.767  10.462
86692W        W90760  18.636   8.934  10.093
86693W        W90761  19.627   9.039   9.887
86694W        W90762  21.395   7.398  10.149
86695W        W90763  21.793   9.008  10.140
86696W        W90764  21.781   9.208   7.826
86697W        W90765  20.644   9.540   7.925
86698W        W90766  21.118  10.840   7.620
86699W        W90767  20.295   8.830  10.762
86700W        W90768  18.625   9.797  10.802
86701W        W90769  21.831   7.719  10.754
86702W        W90770  21.549   8.647   9.375
86703W        W90771  19.857  10.777  10.852
86704W        W90772  19.712   7.406   7.579
86705W        W90773  21.251  10.005   7.522
86706W        W90774  19.020   8.098  10.408
86707W        W90775  19.454  10.092  10.270
86708W        W90776  21.580   8.083  10.068
86709W        W90777  20.791  10.742   8.036
86710W        W90778  21.030   9.361   9.403
86711W        W90779  19.280   7.777  10.070
86712W        W90780  19.749   8.846  10.827
86713W        W90781  19.252  10.025   8.021
86714W        W90782  21.007   9.523   8.285
86715W        W90783  18.775   8.149  10.009
86716W        W90784  20.104  10.211   8.473
86717W        W90785  21.854   8.771   8.654
86718W        W90786  20.076   7.404  10.373
86719W        W90787  20.856  10.109   9.452
86720W        W90788  21.159  10.453   9.160
86721W        W90789  20.378  10.255   7.588
86722W        W90790  18.388  10.147  10.430
86723W        W90791  19.131   8.139   9.668
86724W        W90792  19.101   7.487   8.778
86725W        W90793  20.722   8.329   9.470
86726W        W90794  19.520   9.500   7.670
86727W        W90795  21.518   9.442   9.169
86728W        W90796  18.845  10.200  10.592
86729W        W90797  21.232  10.882   8.389
86730W        W90798  19.331   7.902   8.834
86731W        W90799  19.100   9.395   8.924
86732W        W90800  19.413  10.806   9.674
86733W        W90801  21.480  10.902  10.706
86734W        W90802  20.639   9.090   9.639
86735W        W90803  18.488   8.888   7.554
86736W        W90804  21.622  10.546   8.251
86737W        W90805  21.459   7.870   7.870
86738W        W90806  19.598   7.389  10.273
86739W        W90807  21.304  10.191   8.731
86740W        W90808  21.333   8.747   8.636
86741W        W90809  19.450   8.420   8.852
86742W        W90810  19.695   8.682  10.176
86743W        W90811  20.806   9.835  10.039
86744W        W90812  19.456   8.289  10.151
86745W        W90813  19.435  10.755   8.767
86746W        W90814  18.752  10.714  10.401
86747W        W90815  18.864  10.075   7.531
86748W        W90816  21.381   9.833   8.341
86749W        W90817  18.985   8.625  10.227
86750W        W90818  21.758   8.555   7.708
86751W        W90819  19.503   9.612   8.179
86752W        W90820  20.602   8.994  10.260
86753W        W90821  20.493   8.622   9.804
86754W        W90822  19.053   8.994   9.833
86755W        W90823  21.263  10.882   9.662
86756W        W90824  21.054   7.516  10.656
86757W        W90825  18.718   7.666  10.243
86758W        W90826  19.057   8.689   9.296
86759W        W90827  19.426   8.503   7.418
86760W        W90828  18.229  10.262   9.963
86761W        W90829  19.814   8.971   9.406
86762W        W90830  19.637   7.996   7.511
86763W        W90831  18.772   8.812   8.292
86764W        W90832  18.543  10.664   9.729
86765W        W90833  21.338   8.890   7.837
86766W        W90834  21.433   7.806  10.523
86767W        W90835  20.869  10.015   8.486
86768W        W90836  18.467   8.939  10.663
86769W        W90837  21.433   7.403   7.959
86770W        W90838  20.953   9.878   7.970
86771W        W90839  19.855   8.936   8.055
86772W        W90840  21.042   7.740   7.578
86773W        W90841  21.107   8.347   9.764
86774W        W90842  18.816   8.940   8.971
86775W        W90843  19.110   9.879   8.620
86776W        W90844  20.873   8.499   8.585
86777W        W90845  19.896   7.878   9.281
86778W        W90846  21.858   9.789   9.792
86779W        W90847  21.776   7.776   9.353
86780W        W90848  18.315  10.606   8.729
86781W        W90849  18.824   9.793   8.265
86782W        W90850  18.739   7.410  10.818
86783W        W90851  19.858  10.263  10.920
86784W        W90852  21.613   9.231   8.710
86785W        W90853  20.967   9.408   7.590
86786W        W90854  20.262  10.929   9.802
86787W        W90855  21.119   9.651  10.839
86788W        W90856  19.934   7.361   8.119
86789W        W90857  20.647   8.230   8.978
86790W        W90858  18.333   9.817   9.310
86791W        W90859  19.586   7.779   7.951
86792W        W90860  19.390   9.263  10.800
86793W        W90861  20.384   8.244   8.514
86794W        W90862  20.589   9.654   9.636
86795W        W90863  18.743  10.259  10.071
86796W        W90864  19.334  10.242  10.794
86797W        W90865  19.185   8.039   7.808
86798W        W90866  20.702   8.181   8.133
86799W        W90867  20.660  10.289  10.370
86800W        W90868  19.345   8.881   8.969
86801W        W90869  19.000  10.579   9.834
86802W        W90870  21.745  10.696   7.435
86803W        W90871  18.608   9.368  10.431
86804W        W90872  20.603   9.630   9.119
86805W        W90873  19.039   9.279   8.361
86806W        W90874  19.410  10.286   9.756
86807W        W90875  19.788   7.705   8.797
86808W        W90876  18.399   9.689   7.727
86809W        W90877  19.918   8.640   7.597
86810W        W90878  18.564   9.189   8.616
86811W        W90879  19.854   7.831  10.080
86812W        W90880  21.526   7.540   7.507
86813W        W90881  21.619   9.286  10.606
86814W        W90882  20.273  10.543  10.758
86815W        W90883  21.831   9.637  10.280
86816W        W90884  21.239  10.435  10.891
86817W        W90885  18.978  10.891   9.369
86818W        W90886  21.837   9.513   8.243
86819W        W90887  20.367   8.780   8.756
86820W        W90888  20.134   7.392   8.646
86821W        W90889  19.193  10.376   8.483
86822W        W90890  19.692   8.117   9.708
86823W        W90891  19.392   7.486   9.177
86824W        W90892  18.455  10.308   7.725
86825W        W90893  20.271   9.672   8.443
86826W        W90894  19.146  10.467  10.322
86827W        W90895  18.623   9.290   8.018
86828W        W90896  18.508   7.833   9.017
86829W        W90897  20.056   9.798   9.074
86830W        W90898  18.308   7.652   8.094
86831W        W90899  20.972   8.858  10.021
86832W        W90900  20.849   8.244   7.593
86833W        W90901  21.366   9.916   9.241
86834W        W90902  20.027  10.400   9.072
86835W        W90903  19.439  10.504   7.983
86836W        W90904  20.721   7.407   7.413
86837W        W90905  18.521  10.667   9.154
86838W        W90906  20.718   8.425  10.789
86839W        W90907  18.701   7.955  10.788
86840W        W90908  18.432   8.555   8.121
86841W        W90909  19.123   8.544   7.846
86842W        W90910  20.886   8.871  10.663
86843W        W90911  19.229   9.152   9.372
86844W        W90912  20.703   7.438   8.492
86845W        W90913  19.834  10.869   8.995
86846W        W90914  21.048  10.331   9.932
86847W        W90915  20.632  10.480   9.043
86848W        W90916  20.651   9.460   8.637
86849W        W90917  20.113   7.685   7.708
86850W        W90918  21.794   7.313   8.430
86851W        W90919  19.482   8.948   7.593
86852W        W90920  21.648   8.285   8.583
86853W        W90921  20.340   9.455   7.460
86854W        W90922  21.276   9.655  10.208
86855W        W90923  20.930  10.356   7.675
86856W        W90924  19.545   8.031  10.581
86857W        W90925  19.365   8.615   9.822
86858W        W90926  21.457  10.110  10.099
86859W        W90927  20.557   8.060  10.476
86860W        W90928  18.401   8.531  10.253
86861W        W90929  20.161   9.008   9.979
86862W        W90930  18.518   9.766   8.636
86863W        W90931  18.665   9.063   9.526
86864W        W90932  20.982   9.349   9.876
86865W        W90933  20.754  10.729  10.687
86866W        W90934  20.650   8.468  10.240
86867W        W90935  20.927  10.522   8.645
86868W        W90936  19.929  10.242   9.968
86869W        W90937  19.414  10.597   9.237
86870W        W90938  21.219   9.768   9.656
86871W        W90939  20.269   9.840  10.793
86872W        W90940  18.874   9.793   9.132
86873W        W90941  21.220   9.552   8.777
86874W        W90942  20.861  10.618   9.528
86875W        W90943  18.839  10.347   9.398
86876W        W90944  19.860   8.399  10.608
86877W        W90945  20.311  10.565   8.119
86878W        W90946  19.619   9.820  10.757
86879W        W90947  19.745  10.058   8.134
86880W        W90948  18.966   8.798   7.393
86881W        W90949  18.305  10.884  14.292
86882W        W90950  18.681   9.777  13.815
86883W        W90951  21.386   9.507  11.585
86884W        W90952  21.516  10.592  13.612
86885W        W90953  19.434  10.583  11.138
86886W        W90954  19.517   8.735  12.121
86887W        W90955  19.032   8.583  12.285
86888W        W90956  20.023   9.398  11.719
86889W        W90957  19.698  10.490  14.074
86890W        W90958  18.347   8.051  14.037
86891W        W90959  19.109   7.331  13.839
86892W        W90960  20.803   7.719  12.726
86893W        W90961  20.452   8.590  11.296
86894W        W90962  21.022   8.024  14.387
86895W        W90963  18.388   7.816  13.512
86896W        W90964  18.487  10.435  14.533
86897W        W90965  20.009   9.825  11.265
86898W        W90966  18.441   8.608  12.958
86899W        W90967  19.334   8.499  14.195
86900W        W90968  21.793   8.358  12.694
86901W        W90969  21.557   9.401  13.553
86902W        W90970  19.865   8.734  12.580
86903W        W90971  20.411  10.073  12.949
86904W        W90972  18.911   9.507  13.181
86905W        W90973  18.270   9.035  12.752
86906W        W90974  19.306   9.007  13.944
86907W        W90975  21.577   8.790  14.198
86908W        W90976  19.193  10.234  12.643
86909W        W90977  20.314   9.923  13.777
86910W        W90978  19.534   8.563  13.002
86911W        W90979  19.826   9.347  12.645
86912W        W90980  20.823  10.120  14.493
86913W        W90981  19.902   9.440  14.503
86914W        W90982  19.883   9.156  13.981
86915W        W90983  18.292   8.547  14.503
86916W        W90984  21.124  10.082  14.102
86917W        W90985  18.705   7.664  12.100
86918W        W90986  19.232   9.922  13.099
86919W        W90987  21.695   9.705  12.389
86920W        W90988  21.108   8.105  12.956
86921W        W90989  21.393   8.058  11.051
86922W        W90990  21.858   8.859  13.357
86923W        W90991  19.825  10.566  13.110
86924W        W90992  21.599  10.032  11.548
86925W        W90993  18.728  10.818  11.302
86926W        W90994  19.121  10.864  11.978
86927W        W90995  18.918   7.618  13.404
86928W        W90996  21.541   8.636  13.679
86929W        W90997  20.946   9.058  12.138
86930W        W90998  20.912   8.746  11.165
86931W        W90999  20.120   9.890  13.305
86932W        W91000  19.926   8.220  12.504
86933W        W91001  20.526  10.307  13.498
86934W        W91002  21.397   9.098  11.920
86935W        W91003  20.299   7.756  11.936
86936W        W91004  18.956  10.450  11.619
86937W        W91005  18.327   7.949  12.218
86938W        W91006  21.113   8.556  12.692
86939W        W91007  18.571  10.173  12.607
86940W        W91008  19.912  10.523  11.477
86941W        W91009  21.304   8.549  10.941
86942W        W91010  18.327  10.307  13.105
86943W        W91011  19.118   9.879  13.585
86944W        W91012  19.491   9.239  12.204
86945W        W91013  19.513   7.644  13.297
86946W        W91014  21.742   7.406  12.594
86947W        W91015  18.961   9.278  11.062
86948W        W91016  18.616   8.311  11.241
86949W        W91017  18.678  10.267  12.035
86950W        W91018  19.809   9.750  12.283
86951W        W91019  21.141  10.609  13.997
86952W        W91020  20.067   8.251  11.681
86953W        W91021  21.450  10.649  12.453
86954W        W91022  21.127   8.502  14.051
86955W        W91023  21.840  10.158  12.185
86956W        W91024  20.467   9.450  13.669
86957W        W91025  18.233   9.001  11.875
86958W        W91026  19.344   9.416  13.448
86959W        W91027  20.548   8.680  11.826
86960W        W91028  20.425   9.170  11.930
86961W        W91029  18.768   8.590  13.404
86962W        W91030  18.753   8.466  14.326
86963W        W91031  18.643   7.383  12.485
86964W        W91032  20.411   7.730  13.046
86965W        W91033  20.059   7.915  14.209
86966W        W91034  20.414   8.064  11.387
86967W        W91035  21.597  10.457  14.141
86968W        W91036  20.564   7.538  14.180
86969W        W91037  21.583   9.839  14.302
86970W        W91038  21.013   8.006  13.898
86971W        W91039  20.813   7.944  12.168
86972W        W91040  21.206   9.078  14.572
86973W        W91041  18.946  10.654  12.558
86974W        W91042  19.604   8.371  11.544
86975W        W91043  19.173   7.655  14.208
86976W        W91044  21.225   8.139  11.889
86977W        W91045  21.592   8.621  11.834
86978W        W91046  19.335  10.838  14.305
86979W        W91047  19.261   7.374  11.540
86980W        W91048  21.582   7.908  12.575
86981W        W91049  21.732  10.157  11.020
86982W        W91050  18.639   9.360  12.722
86983W        W91051  20.556   7.947  10.952
86984W        W91052  21.690  10.279  12.672
86985W        W91053  21.729   7.473  13.422
86986W        W91054  20.174   8.685  13.976
86987W        W91055  20.267  10.024  11.679
86988W        W91056  20.667   9.318  14.419
86989W        W91057  20.341   7.295  12.728
86990W        W91058  18.953   8.198  12.791
86991W        W91059  18.507   9.398  13.565
86992W        W91060  20.366  10.591  12.271
86993W        W91061  21.560   8.188  13.143
86994W        W91062  20.197  10.535  13.910
86995W        W91063  21.540   9.594  11.115
86996W        W91064  19.975   9.077  12.176
86997W        W91065  21.827   7.588  13.917
86998W        W91066  19.976   9.423  13.511
86999W        W91067  20.193   8.309  12.956
87000W        W91068  21.045   8.607  11.794
87001W        W91069  21.332   8.340  11.436
87002W        W91070  21.141  10.380  11.825
87003W        W91071  20.975   9.983  12.621
87004W        W91072  20.871   9.062  11.599
87005W        W91073  20.304   9.272  12.585
87006W        W91074  21.185   9.060  12.652
87007W        W91075  18.560   8.075  13.076
87008W        W91076  21.338   9.127  13.903
87009W        W91077  21.689  10.745  13.049
87010W        W91078  19.619  10.189  12.451
87011W        W91079  20.626  10.722  13.775
87012W        W91080  20.620   8.052  13.539
87013W        W91081  19.827  10.760  13.600
87014W        W91082  21.524   7.714  12.066
87015W        W91083  21.315   9.033  13.367
87016W        W91084  18.298   8.354  13.405
87017W        W91085  21.158   8.149  12.423
87018W        W91086  21.569   8.300  14.200
87019W        W91087  20.454   9.999  12.418
87020W        W91088  19.710  10.590  12.031
87021W        W91089  18.825   7.770  11.289
87022W        W91090  19.929   7.424  13.099
87023W        W91091  18.957  10.544  10.947
87024W        W91092  19.331   9.010  11.698
87025W        W91093  19.985   9.639  14.011
87026W        W91094  19.815   7.997  12.001
87027W        W91095  21.171   7.594  12.429
87028W        W91096  20.891  10.876  12.757
87029W        W91097  20.303  10.524  13.097
87030W        W91098  19.699   9.561  13.058
87031W        W91099  21.469  10.284  13.184
87032W        W91100  19.163   7.787  11.953
87033W        W91101  19.685  10.084  12.913
87034W        W91102  19.168   8.015  10.978
87035W        W91103  19.969   8.624  13.372
87036W        W91104  20.817   7.490  13.242
87037W        W91105  18.237   9.333  13.127
87038W        W91106  19.941   9.151  11.285
87039W        W91107  19.209   7.466  11.055
87040W        W91108  19.947   8.547  12.106
87041W        W91109  20.917   7.523  13.805
87042W        W91110  19.505   9.535  13.914
87043W        W91111  20.309   9.317  14.131
87044W        W91112  20.926   9.347  14.024
87045W        W91113  20.210   7.487  14.529
87046W        W91114  19.432   8.103  12.922
87047W        W91115  18.858   8.059  12.320
87048W        W91116  18.644  10.771  11.996
87049W        W91117  19.976  10.101  14.121
87050W        W91118  19.011   9.586  11.480
87051W        W91119  20.691   8.971  12.701
87052W        W91120  20.971   8.770  13.100
87053W        W91121  20.176   9.444  13.034
87054W        W91122  20.646   9.818  11.166
87055W        W91123  20.318   7.839  12.494
87056W        W91124  21.797   8.117  11.762
87057W        W91125  18.291  10.706  13.793
87058W        W91126  18.708   9.932  13.325
87059W        W91127  18.275  10.778  11.557
87060W        W91128  20.174   8.048  13.363
87061W        W91129  19.537  10.071  11.212
87062W        W91130  21.442  10.453  11.398
87063W        W91131  20.417   9.106  11.412
87064W        W91132  19.260   8.297  11.929
87065W        W91133  20.092   8.207  10.981
87066W        W91134  20.676   9.772  14.159
87067W        W91135  21.029   7.678  11.776
87068W        W91136  18.359   7.526  11.224
87069W        W91137  19.645   9.845  13.514
87070W        W91138  19.444   9.761  12.606
87071W        W91139  19.186   9.713  11.004
87072W        W91140  18.427   9.954  11.772
87073W        W91141  18.931   9.024  14.214
87074W        W91142  19.635   7.584  14.400
87075W        W91143  20.344   7.726  13.756
87076W        W91144  19.539   7.494  12.037
87077W        W91145  20.598   7.571  11.542
87078W        W91146  18.543   7.503  13.119
87079W        W91147  18.591   8.466  12.489
87080W        W91148  21.280   7.574  12.895
87081W        W91149  18.702   8.072  11.709
87082W        W91150  21.273   7.760  13.325
87083W        W91151  21.669   8.963  11.010
87084W        W91152  18.961   7.721  12.829
87085W        W91153  20.075   8.293  13.769
87086W        W91154  18.223   7.983  11.247
87087W        W91155  19.009   9.372  13.808
87088W        W91156  20.367   8.770  12.987
87089W        W91157  20.234  10.849  11.283
87090W        W91158  18.380   9.356  10.980
87091W        W91159  19.115   9.767  14.106
87092W        W91160  18.636   8.934  13.737
87093W        W91161  19.627   9.039  13.531
87094W        W91162  21.395   7.398  13.793
87095W        W91163  21.793   9.008  13.784
87096W        W91164  21.781   9.208  11.470
87097W        W91165  20.644   9.540  11.569
87098W        W91166  21.118  10.840  11.264
87099W        W91167  20.295   8.830  14.406
87100W        W91168  18.625   9.797  14.446
87101W        W91169  21.831   7.719  14.398
87102W        W91170  21.549   8.647  13.019
87103W        W91171  19.857  10.777  14.496
87104W        W91172  19.712   7.406  11.223
87105W        W91173  21.251  10.005  11.166
87106W        W91174  19.020   8.098  14.052
87107W        W91175  19.454  10.092  13.914
87108W        W91176  21.580   8.083  13.712
87109W        W91177  20.791  10.742  11.680
87110W        W91178  21.030   9.361  13.047
87111W        W91179  19.280   7.777  13.714
87112W        W91180  19.749   8.846  14.471
87113W        W91181  19.252  10.025  11.665
87114W        W91182  21.007   9.523  11.929
87115W        W91183  18.775   8.149  13.653
87116W        W91184  20.104  10.211  12.117
87117W        W91185  21.854   8.771  12.298
87118W        W91186  20.076   7.404  14.017
87119W        W91187  20.856  10.109  13.096
87120W        W91188  21.159  10.453  12.804
87121W        W91189  20.378  10.255  11.232
87122W        W91190  18.388  10.147  14.074
87123W        W91191  19.131   8.139  13.312
87124W        W91192  19.101   7.487  12.422
87125W        W91193  20.722   8.329  13.114
87126W        W91194  19.520   9.500  11.314
87127W        W91195  21.518   9.442  12.813
87128W        W91196  18.845  10.200  14.236
87129W        W91197  21.232  10.882  12.033
87130W        W91198  19.331   7.902  12.478
87131W        W91199  19.100   9.395  12.568
87132W        W91200  19.413  10.806  13.318
87133W        W91201  21.480  10.902  14.350
87134W        W91202  20.639   9.090  13.283
87135W        W91203  18.488   8.888  11.198
87136W        W91204  21.622  10.546  11.895
87137W        W91205  21.459   7.870  11.514
87138W        W91206  19.598   7.389  13.917
87139W        W91207  21.304  10.191  12.375
87140W        W91208  21.333   8.747  12.280
87141W        W91209  19.450   8.420  12.496
87142W        W91210  19.695   8.682  13.820
87143W        W91211  20.806   9.835  13.683
87144W        W91212  19.456   8.289  13.795
87145W        W91213  19.435  10.755  12.411
87146W        W91214  18.752  10.714  14.045
87147W        W91215  18.864  10.075  11.175
87148W        W91216  21.381   9.833  11.985
87149W        W91217  18.985   8.625  13.871
87150W        W91218  21.758   8.555  11.352
87151W        W91219  19.503   9.612  11.823
87152W        W91220  20.602   8.994  13.904
87153W        W91221  20.493   8.622  13.448
87154W        W91222  19.053   8.994  13.477
87155W        W91223  21.263  10.882  13.306
87156W        W91224  21.054   7.516  14.300
87157W        W91225  18.718   7.666  13.887
87158W        W91226  19.057   8.689  12.940
87159W        W91227  19.426   8.503  11.062
87160W        W91228  18.229  10.262  13.607
87161W        W91229  19.814   8.971  13.050
87162W        W91230  19.637   7.996  11.155
87163W        W91231  18.772   8.812  11.936
87164W        W91232  18.543  10.664  13.373
87165W        W91233  21.338   8.890  11.481
87166W        W91234  21.433   7.806  14.167
87167W        W91235  20.869  10.015  12.130
87168W        W91236  18.467   8.939  14.307
87169W        W91237  21.433   7.403  11.603
87170W        W91238  20.953   9.878  11.614
87171W        W91239  19.855   8.936  11.699
87172W        W91240  21.042   7.740  11.222
87173W        W91241  21.107   8.347  13.408
87174W        W91242  18.816   8.940  12.615
87175W        W91243  19.110   9.879  12.264
87176W        W91244  20.873   8.499  12.229
87177W        W91245  19.896   7.878  12.925
87178W        W91246  21.858   9.789  13.436
87179W        W91247  21.776   7.776  12.997
87180W        W91248  18.315  10.606  12.373
87181W        W91249  18.824   9.793  11.909
87182W        W91250  18.739   7.410  14.462
87183W        W91251  19.858  10.263  14.564
87184W        W91252  21.613   9.231  12.354
87185W        W91253  20.967   9.408  11.234
87186W        W91254  20.262  10.929  13.446
87187W        W91255  21.119   9.651  14.483
87188W        W91256  19.934   7.361  11.763
87189W        W91257  20.647   8.230  12.622
87190W        W91258  18.333   9.817  12.954
87191W        W91259  19.586   7.779  11.595
87192W        W91260  19.390   9.263  14.444
87193W        W91261  20.384   8.244  12.158
87194W        W91262  20.589   9.654  13.280
87195W        W91263  18.743  10.259  13.715
87196W        W91264  19.334  10.242  14.438
87197W        W91265  19.185   8.039  11.452
87198W        W91266  20.702   8.181  11.777
87199W        W91267  20.660  10.289  14.014
87200W        W91268  19.345   8.881  12.613
87201W        W91269  19.000  10.579  13.478
87202W        W91270  21.745  10.696  11.079
87203W        W91271  18.608   9.368  14.075
87204W        W91272  20.603   9.630  12.763
87205W        W91273  19.039   9.279  12.005
87206W        W91274  19.410  10.286  13.400
87207W        W91275  19.788   7.705  12.441
87208W        W91276  18.399   9.689  11.371
87209W        W91277  19.918   8.640  11.241
87210W        W91278  18.564   9.189  12.260
87211W        W91279  19.854   7.831  13.724
87212W        W91280  21.526   7.540  11.151
87213W        W91281  21.619   9.286  14.250
87214W        W91282  20.273  10.543  14.402
87215W        W91283  21.831   9.637  13.924
87216W        W91284  21.239  10.435  14.535
87217W        W91285  18.978  10.891  13.013
87218W        W91286  21.837   9.513  11.887
87219W        W91287  20.367   8.780  12.400
87220W        W91288  20.134   7.392  12.290
87221W        W91289  19.193  10.376  12.127
87222W        W91290  19.692   8.117  13.352
87223W        W91291  19.392   7.486  12.821
87224W        W91292  18.455  10.308  11.369
87225W        W91293  20.271   9.672  12.087
87226W        W91294  19.146  10.467  13.966
87227W        W91295  18.623   9.290  11.662
87228W        W91296  18.508   7.833  12.661
87229W        W91297  20.056   9.798  12.718
87230W        W91298  18.308   7.652  11.738
87231W        W91299  20.972   8.858  13.665
87232W        W91300  20.849   8.244  11.237
87233W        W91301  21.366   9.916  12.885
87234W        W91302  20.027  10.400  12.716
87235W        W91303  19.439  10.504  11.627
87236W        W91304  20.721   7.407  11.057
87237W        W91305  18.521  10.667  12.798
87238W        W91306  20.718   8.425  14.433
87239W        W91307  18.701   7.955  14.432
87240W        W91308  18.432   8.555  11.765
87241W        W91309  19.123   8.544  11.490
87242W        W91310  20.886   8.871  14.307
87243W        W91311  19.229   9.152  13.016
87244W        W91312  20.703   7.438  12.136
87245W        W91313  19.834  10.869  12.639
87246W        W91314  21.048  10.331  13.576
87247W        W91315  20.632  10.480  12.687
87248W        W91316  20.651   9.460  12.281
87249W        W91317  20.113   7.685  11.352
87250W        W91318  21.794   7.313  12.074
87251W        W91319  19.482   8.948  11.237
87252W        W91320  21.648   8.285  12.227
87253W        W91321  20.340   9.455  11.104
87254W        W91322  21.276   9.655  13.852
87255W        W91323  20.930  10.356  11.319
87256W        W91324  19.545   8.031  14.225
87257W        W91325  19.365   8.615  13.466
87258W        W91326  21.457  10.110  13.743
87259W        W91327  20.557   8.060  14.120
87260W        W91328  18.401   8.531  13.897
87261W        W91329  20.161   9.008  13.623
87262W        W91330  18.518   9.766  12.280
87263W        W91331  18.665   9.063  13.170
87264W        W91332  20.982   9.349  13.520
87265W        W91333  20.754  10.729  14.331
87266W        W91334  20.650   8.468  13.884
87267W        W91335  20.927  10.522  12.289
87268W        W91336  19.929  10.242  13.612
87269W        W91337  19.414  10.597  12.881
87270W        W91338  21.219   9.768  13.300
87271W        W91339  20.269   9.840  14.437
87272W        W91340  18.874   9.793  12.776
87273W        W91341  21.220   9.552  12.421
87274W        W91342  20.861  10.618  13.172
87275W        W91343  18.839  10.347  13.042
87276W        W91344  19.860   8.399  14.252
87277W        W91345  20.311  10.565  11.763
87278W        W91346  19.619   9.820  14.401
87279W        W91347  19.745  10.058  11.778
87280W        W91348  18.966   8.798  11.037
87281W        W91349  18.305  10.884  17.936
87282W        W91350  18.681   9.777  17.459
87283W        W91351  21.386   9.507  15.229
87284W        W91352  21.516  10.592  17.256
87285W        W91353  19.434  10.583  14.782
87286W        W91354  19.517   8.735  15.765
87287W        W91355  19.032   8.583  15.929
87288W        W91356  20.023   9.398  15.363
87289W        W91357  19.698  10.490  17.718
87290W        W91358  18.347   8.051  17.681
87291W        W91359  19.109   7.331  17.483
87292W        W91360  20.803   7.719  16.370
87293W        W91361  20.452   8.590  14.940
87294W        W91362  21.022   8.024  18.031
87295W        W91363  18.388   7.816  17.156
87296W        W91364  18.487  10.435  18.177
87297W        W91365  20.009   9.825  14.909
87298W        W91366  18.441   8.608  16.602
87299W        W91367  19.334   8.499  17.839
87300W        W91368  21.793   8.358  16.338
87301W        W91369  21.557   9.401  17.197
87302W        W91370  19.865   8.734  16.224
87303W        W91371  20.411  10.073  16.593
87304W        W91372  18.911   9.507  16.825
87305W        W91373  18.270   9.035  16.396
87306W        W91374  19.306   9.007  17.588
87307W        W91375  21.577   8.790  17.842
87308W        W91376  19.193  10.234  16.287
87309W        W91377  20.314   9.923  17.421
87310W        W91378  19.534   8.563  16.646
87311W        W91379  19.826   9.347  16.289
87312W        W91380  20.823  10.120  18.137
87313W        W91381  19.902   9.440  18.147
87314W        W91382  19.883   9.156  17.625
87315W        W91383  18.292   8.547  18.147
87316W        W91384  21.124  10.082  17.746
87317W        W91385  18.705   7.664  15.744
87318W        W91386  19.232   9.922  16.743
87319W        W91387  21.695   9.705  16.033
87320W        W91388  21.108   8.105  16.600
87321W        W91389  21.393   8.058  14.695
87322W        W91390  21.858   8.859  17.001
87323W        W91391  19.825  10.566  16.754
87324W        W91392  21.599  10.032  15.192
87325W        W91393  18.728  10.818  14.946
87326W        W91394  19.121  10.864  15.622
87327W        W91395  18.918   7.618  17.048
87328W        W91396  21.541   8.636  17.323
87329W        W91397  20.946   9.058  15.782
87330W        W91398  20.912   8.746  14.809
87331W        W91399  20.120   9.890  16.949
87332W        W91400  19.926   8.220  16.148
87333W        W91401  20.526  10.307  17.142
87334W        W91402  21.397   9.098  15.564
87335W        W91403  20.299   7.756  15.580
87336W        W91404  18.956  10.450  15.263
87337W        W91405  18.327   7.949  15.862
87338W        W91406  21.113   8.556  16.336
87339W        W91407  18.571  10.173  16.251
87340W        W91408  19.912  10.523  15.121
87341W        W91409  21.304   8.549  14.585
87342W        W91410  18.327  10.307  16.749
87343W        W91411  19.118   9.879  17.229
87344W        W91412  19.491   9.239  15.848
87345W        W91413  19.513   7.644  16.941
87346W        W91414  21.742   7.406  16.238
87347W        W91415  18.961   9.278  14.706
87348W        W91416  18.616   8.311  14.885
87349W        W91417  18.678  10.267  15.679
87350W        W91418  19.809   9.750  15.927
87351W        W91419  21.141  10.609  17.641
87352W        W91420  20.067   8.251  15.325
87353W        W91421  21.450  10.649  16.097
87354W        W91422  21.127   8.502  17.695
87355W        W91423  21.840  10.158  15.829
87356W        W91424  20.467   9.450  17.313
87357W        W91425  18.233   9.001  15.519
87358W        W91426  19.344   9.416  17.092
87359W        W91427  20.548   8.680  15.470
87360W        W91428  20.425   9.170  15.574
87361W        W91429  18.768   8.590  17.048
87362W        W91430  18.753   8.466  17.970
87363W        W91431  18.643   7.383  16.129
87364W        W91432  20.411   7.730  16.690
87365W        W91433  20.059   7.915  17.853
87366W        W91434  20.414   8.064  15.031
87367W        W91435  21.597  10.457  17.785
87368W        W91436  20.564   7.538  17.824
87369W        W91437  21.583   9.839  17.946
87370W        W91438  21.013   8.006  17.542
87371W        W91439  20.813   7.944  15.812
87372W        W91440  21.206   9.078  18.216
87373W        W91441  18.946  10.654  16.202
87374W        W91442  19.604   8.371  15.188
87375W        W91443  19.173   7.655  17.852
87376W        W91444  21.225   8.139  15.533
87377W        W91445  21.592   8.621  15.478
87378W        W91446  19.335  10.838  17.949
87379W        W91447  19.261   7.374  15.184
87380W        W91448  21.582   7.908  16.219
87381W        W91449  21.732  10.157  14.664
87382W        W91450  18.639   9.360  16.366
87383W        W91451  20.556   7.947  14.596
87384W        W91452  21.690  10.279  16.316
87385W        W91453  21.729   7.473  17.066
87386W        W91454  20.174   8.685  17.620
87387W        W91455  20.267  10.024  15.323
87388W        W91456  20.667   9.318  18.063
87389W        W91457  20.341   7.295  16.372
87390W        W91458  18.953   8.198  16.435
87391W        W91459  18.507   9.398  17.209
87392W        W91460  20.366  10.591  15.915
87393W        W91461  21.560   8.188  16.787
87394W        W91462  20.197  10.535  17.554
87395W        W91463  21.540   9.594  14.759
87396W        W91464  19.975   9.077  15.820
87397W        W91465  21.827   7.588  17.561
87398W        W91466  19.976   9.423  17.155
87399W        W91467  20.193   8.309  16.600
87400W        W91468  21.045   8.607  15.438
87401W        W91469  21.332   8.340  15.080
87402W        W91470  21.141  10.380  15.469
87403W        W91471  20.975   9.983  16.265
87404W        W91472  20.871   9.062  15.243
87405W        W91473  20.304   9.272  16.229
87406W        W91474  21.185   9.060  16.296
87407W        W91475  18.560   8.075  16.720
87408W        W91476  21.338   9.127  17.547
87409W        W91477  21.689  10.745  16.693
87410W        W91478  19.619  10.189  16.095
87411W        W91479  20.626  10.722  17.419
87412W        W91480  20.620   8.052  17.183
87413W        W91481  19.827  10.760  17.244
87414W        W91482  21.524   7.714  15.710
87415W        W91483  21.315   9.033  17.011
87416W        W91484  18.298   8.354  17.049
87417W        W91485  21.158   8.149  16.067
87418W        W91486  21.569   8.300  17.844
87419W        W91487  20.454   9.999  16.062
87420W        W91488  19.710  10.590  15.675
87421W        W91489  18.825   7.770  14.933
87422W        W91490  19.929   7.424  16.743
87423W        W91491  18.957  10.544  14.591
87424W        W91492  19.331   9.010  15.342
87425W        W91493  19.985   9.639  17.655
87426W        W91494  19.815   7.997  15.645
87427W        W91495  21.171   7.594  16.073
87428W        W91496  20.891  10.876  16.401
87429W        W91497  20.303  10.524  16.741
87430W        W91498  19.699   9.561  16.702
87431W        W91499  21.469  10.284  16.828
87432W        W91500  19.163   7.787  15.597
87433W        W91501  19.685  10.084  16.557
87434W        W91502  19.168   8.015  14.622
87435W        W91503  19.969   8.624  17.016
87436W        W91504  20.817   7.490  16.886
87437W        W91505  18.237   9.333  16.771
87438W        W91506  19.941   9.151  14.929
87439W        W91507  19.209   7.466  14.699
87440W        W91508  19.947   8.547  15.750
87441W        W91509  20.917   7.523  17.449
87442W        W91510  19.505   9.535  17.558
87443W        W91511  20.309   9.317  17.775
87444W        W91512  20.926   9.347  17.668
87445W        W91513  20.210   7.487  18.173
87446W        W91514  19.432   8.103  16.566
87447W        W91515  18.858   8.059  15.964
87448W        W91516  18.644  10.771  15.640
87449W        W91517  19.976  10.101  17.765
87450W        W91518  19.011   9.586  15.124
87451W        W91519  20.691   8.971  16.345
87452W        W91520  20.971   8.770  16.744
87453W        W91521  20.176   9.444  16.678
87454W        W91522  20.646   9.818  14.810
87455W        W91523  20.318   7.839  16.138
87456W        W91524  21.797   8.117  15.406
87457W        W91525  18.291  10.706  17.437
87458W        W91526  18.708   9.932  16.969
87459W        W91527  18.275  10.778  15.201
87460W        W91528  20.174   8.048  17.007
87461W        W91529  19.537  10.071  14.856
87462W        W91530  21.442  10.453  15.042
87463W        W91531  20.417   9.106  15.056
87464W        W91532  19.260   8.297  15.573
87465W        W91533  20.092   8.207  14.625
87466W        W91534  20.676   9.772  17.803
87467W        W91535  21.029   7.678  15.420
87468W        W91536  18.359   7.526  14.868
87469W        W91537  19.645   9.845  17.158
87470W        W91538  19.444   9.761  16.250
87471W        W91539  19.186   9.713  14.648
87472W        W91540  18.427   9.954  15.416
87473W        W91541  18.931   9.024  17.858
87474W        W91542  19.635   7.584  18.044
87475W        W91543  20.344   7.726  17.400
87476W        W91544  19.539   7.494  15.681
87477W        W91545  20.598   7.571  15.186
87478W        W91546  18.543   7.503  16.763
87479W        W91547  18.591   8.466  16.133
87480W        W91548  21.280   7.574  16.539
87481W        W91549  18.702   8.072  15.353
87482W        W91550  21.273   7.760  16.969
87483W        W91551  21.669   8.963  14.654
87484W        W91552  18.961   7.721  16.473
87485W        W91553  20.075   8.293  17.413
87486W        W91554  18.223   7.983  14.891
87487W        W91555  19.009   9.372  17.452
87488W        W91556  20.367   8.770  16.631
87489W        W91557  20.234  10.849  14.927
87490W        W91558  18.380   9.356  14.624
87491W        W91559  19.115   9.767  17.750
87492W        W91560  18.636   8.934  17.381
87493W        W91561  19.627   9.039  17.175
87494W        W91562  21.395   7.398  17.437
87495W        W91563  21.793   9.008  17.428
87496W        W91564  21.781   9.208  15.114
87497W        W91565  20.644   9.540  15.213
87498W        W91566  21.118  10.840  14.908
87499W        W91567  20.295   8.830  18.050
87500W        W91568  18.625   9.797  18.090
87501W        W91569  21.831   7.719  18.042
87502W        W91570  21.549   8.647  16.663
87503W        W91571  19.857  10.777  18.140
87504W        W91572  19.712   7.406  14.867
87505W        W91573  21.251  10.005  14.810
87506W        W91574  19.020   8.098  17.696
87507W        W91575  19.454  10.092  17.558
87508W        W91576  21.580   8.083  17.356
87509W        W91577  20.791  10.742  15.324
87510W        W91578  21.030   9.361  16.691
87511W        W91579  19.280   7.777  17.358
87512W        W91580  19.749   8.846  18.115
87513W        W91581  19.252  10.025  15.309
87514W        W91582  21.007   9.523  15.573
87515W        W91583  18.775   8.149  17.297
87516W        W91584  20.104  10.211  15.761
87517W        W91585  21.854   8.771  15.942
87518W        W91586  20.076   7.404  17.661
87519W        W91587  20.856  10.109  16.740
87520W        W91588  21.159  10.453  16.448
87521W        W91589  20.378  10.255  14.876
87522W        W91590  18.388  10.147  17.718
87523W        W91591  19.131   8.139  16.956
87524W        W91592  19.101   7.487  16.066
87525W        W91593  20.722   8.329  16.758
87526W        W91594  19.520   9.500  14.958
87527W        W91595  21.518   9.442  16.457
87528W        W91596  18.845  10.200  17.880
87529W        W91597  21.232  10.882  15.677
87530W        W91598  19.331   7.902  16.122
87531W        W91599  19.100   9.395  16.212
87532W        W91600  19.413  10.806  16.962
87533W        W91601  21.480  10.902  17.994
87534W        W91602  20.639   9.090  16.927
87535W        W91603  18.488   8.888  14.842
87536W        W91604  21.622  10.546  15.539
87537W        W91605  21.459   7.870  15.158
87538W        W91606  19.598   7.389  17.561
87539W        W91607  21.304  10.191  16.019
87540W        W91608  21.333   8.747  15.924
87541W        W91609  19.450   8.420  16.140
87542W        W91610  19.695   8.682  17.464
87543W        W91611  20.806   9.835  17.327
87544W        W91612  19.456   8.289  17.439
87545W        W91613  19.435  10.755  16.055
87546W        W91614  18.752  10.714  17.689
87547W        W91615  18.864  10.075  14.819
87548W        W91616  21.381   9.833  15.629
87549W        W91617  18.985   8.625  17.515
87550W        W91618  21.758   8.555  14.996
87551W        W91619  19.503   9.612  15.467
87552W        W91620  20.602   8.994  17.548
87553W        W91621  20.493   8.622  17.092
87554W        W91622  19.053   8.994  17.121
87555W        W91623  21.263  10.882  16.950
87556W        W91624  21.054   7.516  17.944
87557W        W91625  18.718   7.666  17.531
87558W        W91626  19.057   8.689  16.584
87559W        W91627  19.426   8.503  14.706
87560W        W91628  18.229  10.262  17.251
87561W        W91629  19.814   8.971  16.694
87562W        W91630  19.637   7.996  14.799
87563W        W91631  18.772   8.812  15.580
87564W        W91632  18.543  10.664  17.017
87565W        W91633  21.338   8.890  15.125
87566W        W91634  21.433   7.806  17.811
87567W        W91635  20.869  10.015  15.774
87568W        W91636  18.467   8.939  17.951
87569W        W91637  21.433   7.403  15.247
87570W        W91638  20.953   9.878  15.258
87571W        W91639  19.855   8.936  15.343
87572W        W91640  21.042   7.740  14.866
87573W        W91641  21.107   8.347  17.052
87574W        W91642  18.816   8.940  16.259
87575W        W91643  19.110   9.879  15.908
87576W        W91644  20.873   8.499  15.873
87577W        W91645  19.896   7.878  16.569
87578W        W91646  21.858   9.789  17.080
87579W        W91647  21.776   7.776  16.641
87580W        W91648  18.315  10.606  16.017
87581W        W91649  18.824   9.793  15.553
87582W        W91650  18.739   7.410  18.106
87583W        W91651  19.858  10.263  18.208
87584W        W91652  21.613   9.231  15.998
87585W        W91653  20.967   9.408  14.878
87586W        W91654  20.262  10.929  17.090
87587W        W91655  21.119   9.651  18.127
87588W        W91656  19.934   7.361  15.407
87589W        W91657  20.647   8.230  16.266
87590W        W91658  18.333   9.817  16.598
87591W        W91659  19.586   7.779  15.239
87592W        W91660  19.390   9.263  18.088
87593W        W91661  20.384   8.244  15.802
87594W        W91662  20.589   9.654  16.924
87595W        W91663  18.743  10.259  17.359
87596W        W91664  19.334  10.242  18.082
87597W        W91665  19.185   8.039  15.096
87598W        W91666  20.702   8.181  15.421
87599W        W91667  20.660  10.289  17.658
87600W        W91668  19.345   8.881  16.257
87601W        W91669  19.000  10.579  17.122
87602W        W91670  21.745  10.696  14.723
87603W        W91671  18.608   9.368  17.719
87604W        W91672  20.603   9.630  16.407
87605W        W91673  19.039   9.279  15.649
87606W        W91674  19.410  10.286  17.044
87607W        W91675  19.788   7.705  16.085
87608W        W91676  18.399   9.689  15.015
87609W        W91677  19.918   8.640  14.885
87610W        W91678  18.564   9.189  15.904
87611W        W91679  19.854   7.831  17.368
87612W        W91680  21.526   7.540  14.795
87613W        W91681  21.619   9.286  17.894
87614W        W91682  20.273  10.543  18.046
87615W        W91683  21.831   9.637  17.568
87616W        W91684  21.239  10.435  18.179
87617W        W91685  18.978  10.891  16.657
87618W        W91686  21.837   9.513  15.531
87619W        W91687  20.367   8.780  16.044
87620W        W91688  20.134   7.392  15.934
87621W        W91689  19.193  10.376  15.771
87622W        W91690  19.692   8.117  16.996
87623W        W91691  19.392   7.486  16.465
87624W        W91692  18.455  10.308  15.013
87625W        W91693  20.271   9.672  15.731
87626W        W91694  19.146  10.467  17.610
87627W        W91695  18.623   9.290  15.306
87628W        W91696  18.508   7.833  16.305
87629W        W91697  20.056   9.798  16.362
87630W        W91698  18.308   7.652  15.382
87631W        W91699  20.972   8.858  17.309
87632W        W91700  20.849   8.244  14.881
87633W        W91701  21.366   9.916  16.529
87634W        W91702  20.027  10.400  16.360
87635W        W91703  19.439  10.504  15.271
87636W        W91704  20.721   7.407  14.701
87637W        W91705  18.521  10.667  16.442
87638W        W91706  20.718   8.425  18.077
87639W        W91707  18.701   7.955  18.076
87640W        W91708  18.432   8.555  15.409
87641W        W91709  19.123   8.544  15.134
87642W        W91710  20.886   8.871  17.951
87643W        W91711  19.229   9.152  16.660
87644W        W91712  20.703   7.438  15.780
87645W        W91713  19.834  10.869  16.283
87646W        W91714  21.048  10.331  17.220
87647W        W91715  20.632  10.480  16.331
87648W        W91716  20.651   9.460  15.925
87649W        W91717  20.113   7.685  14.996
87650W        W91718  21.794   7.313  15.718
87651W        W91719  19.482   8.948  14.881
87652W        W91720  21.648   8.285  15.871
87653W        W91721  20.340   9.455  14.748
87654W        W91722  21.276   9.655  17.496
87655W        W91723  20.930  10.356  14.963
87656W        W91724  19.545   8.031  17.869
87657W        W91725  19.365   8.615  17.110
87658W        W91726  21.457  10.110  17.387
87659W        W91727  20.557   8.060  17.764
87660W        W91728  18.401   8.531  17.541
87661W        W91729  20.161   9.008  17.267
87662W        W91730  18.518   9.766  15.924
87663W        W91731  18.665   9.063  16.814
87664W        W91732  20.982   9.349  17.164
87665W        W91733  20.754  10.729  17.975
87666W        W91734  20.650   8.468  17.528
87667W        W91735  20.927  10.522  15.933
87668W        W91736  19.929  10.242  17.256
87669W        W91737  19.414  10.597  16.525
87670W        W91738  21.219   9.768  16.944
87671W        W91739  20.269   9.840  18.081
87672W        W91740  18.874   9.793  16.420
87673W        W91741  21.220   9.552  16.065
87674W        W91742  20.861  10.618  16.816
87675W        W91743  18.839  10.347  16.686
87676W        W91744  19.860   8.399  17.896
87677W        W91745  20.311  10.565  15.407
87678W        W91746  19.619   9.820  18.045
87679W        W91747  19.745  10.058  15.422
87680W        W91748  18.966   8.798  14.681
87681W        W91749  18.305  10.884  21.580
87682W        W91750  18.681   9.777  21.103
87683W        W91751  21.386   9.507  18.873
87684W        W91752  21.516  10.592  20.900
87685W        W91753  19.434  10.583  18.426
87686W        W91754  19.517   8.735  19.409
87687W        W91755  19.032   8.583  19.573
87688W        W91756  20.023   9.398  19.007
87689W        W91757  19.698  10.490  21.362
87690W        W91758  18.347   8.051  21.325
87691W        W91759  19.109   7.331  21.127
87692W        W91760  20.803   7.719  20.014
87693W        W91761  20.452   8.590  18.584
87694W        W91762  21.022   8.024  21.675
87695W        W91763  18.388   7.816  20.800
87696W        W91764  18.487  10.435  21.821
87697W        W91765  20.009   9.825  18.553
87698W        W91766  18.441   8.608  20.246
87699W        W91767  19.334   8.499  21.483
87700W        W91768  21.793   8.358  19.982
87701W        W91769  21.557   9.401  20.841
87702W        W91770  19.865   8.734  19.868
87703W        W91771  20.411  10.073  20.237
87704W        W91772  18.911   9.507  20.469
87705W        W91773  18.270   9.035  20.040
87706W        W91774  19.306   9.007  21.232
87707W        W91775  21.577   8.790  21.486
87708W        W91776  19.193  10.234  19.931
87709W        W91777  20.314   9.923  21.065
87710W        W91778  19.534   8.563  20.290
87711W        W91779  19.826   9.347  19.933
87712W        W91780  20.823  10.120  21.781
87713W        W91781  19.902   9.440  21.791
87714W        W91782  19.883   9.156  21.269
87715W        W91783  18.292   8.547  21.791
87716W        W91784  21.124  10.082  21.390
87717W        W91785  18.705   7.664  19.388
87718W        W91786  19.232   9.922  20.387
87719W        W91787  21.695   9.705  19.677
87720W        W91788  21.108   8.105  20.244
87721W        W91789  21.393   8.058  18.339
87722W        W91790  21.858   8.859  20.645
87723W        W91791  19.825  10.566  20.398
87724W        W91792  21.599  10.032  18.836
87725W        W91793  18.728  10.818  18.590
87726W        W91794  19.121  10.864  19.266
87727W        W91795  18.918   7.618  20.692
87728W        W91796  21.541   8.636  20.967
87729W        W91797  20.946   9.058  19.426
87730W        W91798  20.912   8.746  18.453
87731W        W91799  20.120   9.890  20.593
87732W        W91800  19.926   8.220  19.792
87733W        W91801  20.526  10.307  20.786
87734W        W91802  21.397   9.098  19.208
87735W        W91803  20.299   7.756  19.224
87736W        W91804  18.956  10.450  18.907
87737W        W91805  18.327   7.949  19.506
87738W        W91806  21.113   8.556  19.980
87739W        W91807  18.571  10.173  19.895
87740W        W91808  19.912  10.523  18.765
87741W        W91809  21.304   8.549  18.229
87742W        W91810  18.327  10.307  20.393
87743W        W91811  19.118   9.879  20.873
87744W        W91812  19.491   9.239  19.492
87745W        W91813  19.513   7.644  20.585
87746W        W91814  21.742   7.406  19.882
87747W        W91815  18.961   9.278  18.350
87748W        W91816  18.616   8.311  18.529
87749W        W91817  18.678  10.267  19.323
87750W        W91818  19.809   9.750  19.571
87751W        W91819  21.141  10.609  21.285
87752W        W91820  20.067   8.251  18.969
87753W        W91821  21.450  10.649  19.741
87754W        W91822  21.127   8.502  21.339
87755W        W91823  21.840  10.158  19.473
87756W        W91824  20.467   9.450  20.957
87757W        W91825  18.233   9.001  19.163
87758W        W91826  19.344   9.416  20.736
87759W        W91827  20.548   8.680  19.114
87760W        W91828  20.425   9.170  19.218
87761W        W91829  18.768   8.590  20.692
87762W        W91830  18.753   8.466  21.614
87763W        W91831  18.643   7.383  19.773
87764W        W91832  20.411   7.730  20.334
87765W        W91833  20.059   7.915  21.497
87766W        W91834  20.414   8.064  18.675
87767W        W91835  21.597  10.457  21.429
87768W        W91836  20.564   7.538  21.468
87769W        W91837  21.583   9.839  21.590
87770W        W91838  21.013   8.006  21.186
87771W        W91839  20.813   7.944  19.456
87772W        W91840  21.206   9.078  21.860
87773W        W91841  18.946  10.654  19.846
87774W        W91842  19.604   8.371  18.832
87775W        W91843  19.173   7.655  21.496
87776W        W91844  21.225   8.139  19.177
87777W        W91845  21.592   8.621  19.122
87778W        W91846  19.335  10.838  21.593
87779W        W91847  19.261   7.374  18.828
87780W        W91848  21.582   7.908  19.863
87781W        W91849  21.732  10.157  18.308
87782W        W91850  18.639   9.360  20.010
87783W        W91851  20.556   7.947  18.240
87784W        W91852  21.690  10.279  19.960
87785W        W91853  21.729   7.473  20.710
87786W        W91854  20.174   8.685  21.264
87787W        W91855  20.267  10.024  18.967
87788W        W91856  20.667   9.318  21.707
87789W        W91857  20.341   7.295  20.016
87790W        W91858  18.953   8.198  20.079
87791W        W91859  18.507   9.398  20.853
87792W        W91860  20.366  10.591  19.559
87793W        W91861  21.560   8.188  20.431
87794W        W91862  20.197  10.535  21.198
87795W        W91863  21.540   9.594  18.403
87796W        W91864  19.975   9.077  19.464
87797W        W91865  21.827   7.588  21.205
87798W        W91866  19.976   9.423  20.799
87799W        W91867  20.193   8.309  20.244
87800W        W91868  21.045   8.607  19.082
87801W        W91869  21.332   8.340  18.724
87802W        W91870  21.141  10.380  19.113
87803W        W91871  20.975   9.983  19.909
87804W        W91872  20.871   9.062  18.887
87805W        W91873  20.304   9.272  19.873
87806W        W91874  21.185   9.060  19.940
87807W        W91875  18.560   8.075  20.364
87808W        W91876  21.338   9.127  21.191
87809W        W91877  21.689  10.745  20.337
87810W        W91878  19.619  10.189  19.739
87811W        W91879  20.626  10.722  21.063
87812W        W91880  20.620   8.052  20.827
87813W        W91881  19.827  10.760  20.888
87814W        W91882  21.524   7.714  19.354
87815W        W91883  21.315   9.033  20.655
87816W        W91884  18.298   8.354  20.693
87817W        W91885  21.158   8.149  19.711
87818W        W91886  21.569   8.300  21.488
87819W        W91887  20.454   9.999  19.706
87820W        W91888  19.710  10.590  19.319
87821W        W91889  18.825   7.770  18.577
87822W        W91890  19.929   7.424  20.387
87823W        W91891  18.957  10.544  18.235
87824W        W91892  19.331   9.010  18.986
87825W        W91893  19.985   9.639  21.299
87826W        W91894  19.815   7.997  19.289
87827W        W91895  21.171   7.594  19.717
87828W        W91896  20.891  10.876  20.045
87829W        W91897  20.303  10.524  20.385
87830W        W91898  19.699   9.561  20.346
87831W        W91899  21.469  10.284  20.472
87832W        W91900  19.163   7.787  19.241
87833W        W91901  19.685  10.084  20.201
87834W        W91902  19.168   8.015  18.266
87835W        W91903  19.969   8.624  20.660
87836W        W91904  20.817   7.490  20.530
87837W        W91905  18.237   9.333  20.415
87838W        W91906  19.941   9.151  18.573
87839W        W91907  19.209   7.466  18.343
87840W        W91908  19.947   8.547  19.394
87841W        W91909  20.917   7.523  21.093
87842W        W91910  19.505   9.535  21.202
87843W        W91911  20.309   9.317  21.419
87844W        W91912  20.926   9.347  21.312
87845W        W91913  20.210   7.487  21.817
87846W        W91914  19.432   8.103  20.210
87847W        W91915  18.858   8.059  19.608
87848W        W91916  18.644  10.771  19.284
87849W        W91917  19.976  10.101  21.409
87850W        W91918  19.011   9.586  18.768
87851W        W91919  20.691   8.971  19.989
87852W        W91920  20.971   8.770  20.388
87853W        W91921  20.176   9.444  20.322
87854W        W91922  20.646   9.818  18.454
87855W        W91923  20.318   7.839  19.782
87856W        W91924  21.797   8.117  19.050
87857W        W91925  18.291  10.706  21.081
87858W        W91926  18.708   9.932  20.613
87859W        W91927  18.275  10.778  18.845
87860W        W91928  20.174   8.048  20.651
87861W        W91929  19.537  10.071  18.500
87862W        W91930  21.442  10.453  18.686
87863W        W91931  20.417   9.106  18.700
87864W        W91932  19.260   8.297  19.217
87865W        W91933  20.092   8.207  18.269
87866W        W91934  20.676   9.772  21.447
87867W        W91935  21.029   7.678  19.064
87868W        W91936  18.359   7.526  18.512
87869W        W91937  19.645   9.845  20.802
87870W        W91938  19.444   9.761  19.894
87871W        W91939  19.186   9.713  18.292
87872W        W91940  18.427   9.954  19.060
87873W        W91941  18.931   9.024  21.502
87874W        W91942  19.635   7.584  21.688
87875W        W91943  20.344   7.726  21.044
87876W        W91944  19.539   7.494  19.325
87877W        W91945  20.598   7.571  18.830
87878W        W91946  18.543   7.503  20.407
87879W        W91947  18.591   8.466  19.777
87880W        W91948  21.280   7.574  20.183
87881W        W91949  18.702   8.072  18.997
87882W        W91950  21.273   7.760  20.613
87883W        W91951  21.669   8.963  18.298
87884W        W91952  18.961   7.721  20.117
87885W        W91953  20.075   8.293  21.057
87886W        W91954  18.223   7.983  18.535
87887W        W91955  19.009   9.372  21.096
87888W        W91956  20.367   8.770  20.275
87889W        W91957  20.234  10.849  18.571
87890W        W91958  18.380   9.356  18.268
87891W        W91959  19.115   9.767  21.394
87892W        W91960  18.636   8.934  21.025
87893W        W91961  19.627   9.039  20.819
87894W        W91962  21.395   7.398  21.081
87895W        W91963  21.793   9.008  21.072
87896W        W91964  21.781   9.208  18.758
87897W        W91965  20.644   9.540  18.857
87898W        W91966  21.118  10.840  18.552
87899W        W91967  20.295   8.830  21.694
87900W        W91968  18.625   9.797  21.734
87901W        W91969  21.831   7.719  21.686
87902W        W91970  21.549   8.647  20.307
87903W        W91971  19.857  10.777  21.784
87904W        W91972  19.712   7.406  18.511
87905W        W91973  21.251  10.005  18.454
87906W        W91974  19.020   8.098  21.340
87907W        W91975  19.454  10.092  21.202
87908W        W91976  21.580   8.083  21.000
87909W        W91977  20.791  10.742  18.968
87910W        W91978  21.030   9.361  20.335
87911W        W91979  19.280   7.777  21.002
87912W        W91980  19.749   8.846  21.759
87913W        W91981  19.252  10.025  18.953
87914W        W91982  21.007   9.523  19.217
87915W        W91983  18.775   8.149  20.941
87916W        W91984  20.104  10.211  19.405
87917W        W91985  21.854   8.771  19.586
87918W        W91986  20.076   7.404  21.305
87919W        W91987  20.856  10.109  20.384
87920W        W91988  21.159  10.453  20.092
87921W        W91989  20.378  10.255  18.520
87922W        W91990  18.388  10.147  21.362
87923W        W91991  19.131   8.139  20.600
87924W        W91992  19.101   7.487  19.710
87925W        W91993  20.722   8.329  20.402
87926W        W91994  19.520   9.500  18.602
87927W        W91995  21.518   9.442  20.101
87928W        W91996  18.845  10.200  21.524
87929W        W91997  21.232  10.882  19.321
87930W        W91998  19.331   7.902  19.766
87931W        W91999  19.100   9.395  19.856
87932W        W92000  19.413  10.806  20.606
87933W        W92001  21.480  10.902  21.638
87934W        W92002  20.639   9.090  20.571
87935W        W92003  18.488   8.888  18.486
87936W        W92004  21.622  10.546  19.183
87937W        W92005  21.459   7.870  18.802
87938W        W92006  19.598   7.389  21.205
87939W        W92007  21.304  10.191  19.663
87940W        W92008  21.333   8.747  19.568
87941W        W92009  19.450   8.420  19.784
87942W        W92010  19.695   8.682  21.108
87943W        W92011  20.806   9.835  20.971
87944W        W92012  19.456   8.289  21.083
87945W        W92013  19.435  10.755  19.699
87946W        W92014  18.752  10.714  21.333
87947W        W92015  18.864  10.075  18.463
87948W        W92016  21.381   9.833  19.273
87949W        W92017  18.985   8.625  21.159
87950W        W92018  21.758   8.555  18.640
87951W        W92019  19.503   9.612  19.111
87952W        W92020  20.602   8.994  21.192
87953W        W92021  20.493   8.622  20.736
87954W        W92022  19.053   8.994  20.765
87955W        W92023  21.263  10.882  20.594
87956W        W92024  21.054   7.516  21.588
87957W        W92025  18.718   7.666  21.175
87958W        W92026  19.057   8.689  20.228
87959W        W92027  19.426   8.503  18.350
87960W        W92028  18.229  10.262  20.895
87961W        W92029  19.814   8.971  20.338
87962W        W92030  19.637   7.996  18.443
87963W        W92031  18.772   8.812  19.224
87964W        W92032  18.543  10.664  20.661
87965W        W92033  21.338   8.890  18.769
87966W        W92034  21.433   7.806  21.455
87967W        W92035  20.869  10.015  19.418
87968W        W92036  18.467   8.939  21.595
87969W        W92037  21.433   7.403  18.891
87970W        W92038  20.953   9.878  18.902
87971W        W92039  19.855   8.936  18.987
87972W        W92040  21.042   7.740  18.510
87973W        W92041  21.107   8.347  20.696
87974W        W92042  18.816   8.940  19.903
87975W        W92043  19.110   9.879  19.552
87976W        W92044  20.873   8.499  19.517
87977W        W92045  19.896   7.878  20.213
87978W        W92046  21.858   9.789  20.724
87979W        W92047  21.776   7.776  20.285
87980W        W92048  18.315  10.606  19.661
87981W        W92049  18.824   9.793  19.197
87982W        W92050  18.739   7.410  21.750
87983W        W92051  19.858  10.263  21.852
87984W        W92052  21.613   9.231  19.642
87985W        W92053  20.967   9.408  18.522
87986W        W92054  20.262  10.929  20.734
87987W        W92055  21.119   9.651  21.771
87988W        W92056  19.934   7.361  19.051
87989W        W92057  20.647   8.230  19.910
87990W        W92058  18.333   9.817  20.242
87991W        W92059  19.586   7.779  18.883
87992W        W92060  19.390   9.263  21.732
87993W        W92061  20.384   8.244  19.446
87994W        W92062  20.589   9.654  20.568
87995W        W92063  18.743  10.259  21.003
87996W        W92064  19.334  10.242  21.726
87997W        W92065  19.185   8.039  18.740
87998W        W92066  20.702   8.181  19.065
87999W        W92067  20.660  10.289  21.302
88000W        W92068  19.345   8.881  19.901
88001W        W92069  19.000  10.579  20.766
88002W        W92070  21.745  10.696  18.367
88003W        W92071  18.608   9.368  21.363
88004W        W92072  20.603   9.630  20.051
88005W        W92073  19.039   9.279  19.293
88006W        W92074  19.410  10.286  20.688
88007W        W92075  19.788   7.705  19.729
88008W        W92076  18.399   9.689  18.659
88009W        W92077  19.918   8.640  18.529
88010W        W92078  18.564   9.189  19.548
88011W        W92079  19.854   7.831  21.012
88012W        W92080  21.526   7.540  18.439
88013W        W92081  21.619   9.286  21.538
88014W        W92082  20.273  10.543  21.690
88015W        W92083  21.831   9.637  21.212
88016W        W92084  21.239  10.435  21.823
88017W        W92085  18.978  10.891  20.301
88018W        W92086  21.837   9.513  19.175
88019W        W92087  20.367   8.780  19.688
88020W        W92088  20.134   7.392  19.578
88021W        W92089  19.193  10.376  19.415
88022W        W92090  19.692   8.117  20.640
88023W        W92091  19.392   7.486  20.109
88024W        W92092  18.455  10.308  18.657
88025W        W92093  20.271   9.672  19.375
88026W        W92094  19.146  10.467  21.254
88027W        W92095  18.623   9.290  18.950
88028W        W92096  18.508   7.833  19.949
88029W        W92097  20.056   9.798  20.006
88030W        W92098  18.308   7.652  19.026
88031W        W92099  20.972   8.858  20.953
88032W        W92100  20.849   8.244  18.525
88033W        W92101  21.366   9.916  20.173
88034W        W92102  20.027  10.400  20.004
88035W        W92103  19.439  10.504  18.915
88036W        W92104  20.721   7.407  18.345
88037W        W92105  18.521  10.667  20.086
88038W        W92106  20.718   8.425  21.721
88039W        W92107  18.701   7.955  21.720
88040W        W92108  18.432   8.555  19.053
88041W        W92109  19.123   8.544  18.778
88042W        W92110  20.886   8.871  21.595
88043W        W92111  19.229   9.152  20.304
88044W        W92112  20.703   7.438  19.424
88045W        W92113  19.834  10.869  19.927
88046W        W92114  21.048  10.331  20.864
88047W        W92115  20.632  10.480  19.975
88048W        W92116  20.651   9.460  19.569
88049W        W92117  20.113   7.685  18.640
88050W        W92118  21.794   7.313  19.362
88051W        W92119  19.482   8.948  18.525
88052W        W92120  21.648   8.285  19.515
88053W        W92121  20.340   9.455  18.392
88054W        W92122  21.276   9.655  21.140
88055W        W92123  20.930  10.356  18.607
88056W        W92124  19.545   8.031  21.513
88057W        W92125  19.365   8.615  20.754
88058W        W92126  21.457  10.110  21.031
88059W        W92127  20.557   8.060  21.408
88060W        W92128  18.401   8.531  21.185
88061W        W92129  20.161   9.008  20.911
88062W        W92130  18.518   9.766  19.568
88063W        W92131  18.665   9.063  20.458
88064W        W92132  20.982   9.349  20.808
88065W        W92133  20.754  10.729  21.619
88066W        W92134  20.650   8.468  21.172
88067W        W92135  20.927  10.522  19.577
88068W        W92136  19.929  10.242  20.900
88069W        W92137  19.414  10.597  20.169
88070W        W92138  21.219   9.768  20.588
88071W        W92139  20.269   9.840  21.725
88072W        W92140  18.874   9.793  20.064
88073W        W92141  21.220   9.552  19.709
88074W        W92142  20.861  10.618  20.460
88075W        W92143  18.839  10.347  20.330
88076W        W92144  19.860   8.399  21.540
88077W        W92145  20.311  10.565  19.051
88078W        W92146  19.619   9.820  21.689
88079W        W92147  19.745  10.058  19.066
88080W        W92148  18.966   8.798  18.325
88081W        W92149  21.386   9.507  22.518
88082W        W92150  19.434  10.583  22.071
88083W        W92151  19.517   8.735  23.054
88084W        W92152  19.032   8.583  23.218
88085W        W92153  20.023   9.398  22.652
88086W        W92154  20.452   8.590  22.229
88087W        W92155  20.009   9.825  22.198
88088W        W92156  18.705   7.664  23.033
88089W        W92157  21.393   8.058  21.984
88090W        W92158  21.599  10.032  22.481
88091W        W92159  18.728  10.818  22.235
88092W        W92160  19.121  10.864  22.911
88093W        W92161  20.946   9.058  23.071
88094W        W92162  20.912   8.746  22.098
88095W        W92163  21.397   9.098  22.853
88096W        W92164  20.299   7.756  22.869
88097W        W92165  18.956  10.450  22.552
88098W        W92166  19.912  10.523  22.410
88099W        W92167  21.304   8.549  21.874
88100W        W92168  19.491   9.239  23.137
88101W        W92169  18.961   9.278  21.995
88102W        W92170  18.616   8.311  22.174
88103W        W92171  18.678  10.267  22.968
88104W        W92172  19.809   9.750  23.216
88105W        W92173  20.067   8.251  22.614
88106W        W92174  18.233   9.001  22.808
88107W        W92175  20.548   8.680  22.759
88108W        W92176  20.425   9.170  22.863
88109W        W92177  20.414   8.064  22.320
88110W        W92178  20.813   7.944  23.101
88111W        W92179  19.604   8.371  22.477
88112W        W92180  21.225   8.139  22.822
88113W        W92181  21.592   8.621  22.767
88114W        W92182  19.261   7.374  22.473
88115W        W92183  21.732  10.157  21.953
88116W        W92184  20.556   7.947  21.885
88117W        W92185  20.267  10.024  22.612
88118W        W92186  20.366  10.591  23.204
88119W        W92187  21.540   9.594  22.048
88120W        W92188  19.975   9.077  23.109
88121W        W92189  21.045   8.607  22.727
88122W        W92190  21.332   8.340  22.369
88123W        W92191  21.141  10.380  22.758
88124W        W92192  20.871   9.062  22.532
88125W        W92193  21.524   7.714  22.999
88126W        W92194  19.710  10.590  22.964
88127W        W92195  18.825   7.770  22.222
88128W        W92196  18.957  10.544  21.880
88129W        W92197  19.331   9.010  22.631
88130W        W92198  19.815   7.997  22.934
88131W        W92199  19.163   7.787  22.886
88132W        W92200  19.168   8.015  21.911
88133W        W92201  19.941   9.151  22.218
88134W        W92202  19.209   7.466  21.988
88135W        W92203  19.947   8.547  23.039
88136W        W92204  18.858   8.059  23.253
88137W        W92205  18.644  10.771  22.929
88138W        W92206  19.011   9.586  22.413
88139W        W92207  20.646   9.818  22.099
88140W        W92208  21.797   8.117  22.695
88141W        W92209  18.275  10.778  22.490
88142W        W92210  19.537  10.071  22.145
88143W        W92211  21.442  10.453  22.331
88144W        W92212  20.417   9.106  22.345
88145W        W92213  19.260   8.297  22.862
88146W        W92214  20.092   8.207  21.914
88147W        W92215  21.029   7.678  22.709
88148W        W92216  18.359   7.526  22.157
88149W        W92217  19.186   9.713  21.937
88150W        W92218  18.427   9.954  22.705
88151W        W92219  19.539   7.494  22.970
88152W        W92220  20.598   7.571  22.475
88153W        W92221  18.702   8.072  22.642
88154W        W92222  21.669   8.963  21.943
88155W        W92223  18.223   7.983  22.180
88156W        W92224  20.234  10.849  22.216
88157W        W92225  18.380   9.356  21.913
88158W        W92226  21.781   9.208  22.403
88159W        W92227  20.644   9.540  22.502
88160W        W92228  21.118  10.840  22.197
88161W        W92229  19.712   7.406  22.156
88162W        W92230  21.251  10.005  22.099
88163W        W92231  20.791  10.742  22.613
88164W        W92232  19.252  10.025  22.598
88165W        W92233  21.007   9.523  22.862
88166W        W92234  20.104  10.211  23.050
88167W        W92235  21.854   8.771  23.231
88168W        W92236  20.378  10.255  22.165
88169W        W92237  19.520   9.500  22.247
88170W        W92238  21.232  10.882  22.966
88171W        W92239  18.488   8.888  22.131
88172W        W92240  21.622  10.546  22.828
88173W        W92241  21.459   7.870  22.447
88174W        W92242  21.333   8.747  23.213
88175W        W92243  18.864  10.075  22.108
88176W        W92244  21.381   9.833  22.918
88177W        W92245  21.758   8.555  22.285
88178W        W92246  19.503   9.612  22.756
88179W        W92247  19.426   8.503  21.995
88180W        W92248  19.637   7.996  22.088
88181W        W92249  18.772   8.812  22.869
88182W        W92250  21.338   8.890  22.414
88183W        W92251  20.869  10.015  23.063
88184W        W92252  21.433   7.403  22.536
88185W        W92253  20.953   9.878  22.547
88186W        W92254  19.855   8.936  22.632
88187W        W92255  21.042   7.740  22.155
88188W        W92256  19.110   9.879  23.197
88189W        W92257  20.873   8.499  23.162
88190W        W92258  18.315  10.606  23.306
88191W        W92259  18.824   9.793  22.842
88192W        W92260  21.613   9.231  23.287
88193W        W92261  20.967   9.408  22.167
88194W        W92262  19.934   7.361  22.696
88195W        W92263  19.586   7.779  22.528
88196W        W92264  20.384   8.244  23.091
88197W        W92265  19.185   8.039  22.385
88198W        W92266  20.702   8.181  22.710
88199W        W92267  21.745  10.696  22.012
88200W        W92268  18.399   9.689  22.304
88201W        W92269  19.918   8.640  22.174
88202W        W92270  18.564   9.189  23.193
88203W        W92271  21.526   7.540  22.084
88204W        W92272  21.837   9.513  22.820
88205W        W92273  20.134   7.392  23.223
88206W        W92274  19.193  10.376  23.060
88207W        W92275  18.455  10.308  22.302
88208W        W92276  20.271   9.672  23.020
88209W        W92277  18.623   9.290  22.595
88210W        W92278  18.308   7.652  22.671
88211W        W92279  20.849   8.244  22.170
88212W        W92280  19.439  10.504  22.560
88213W        W92281  20.721   7.407  21.990
88214W        W92282  18.432   8.555  22.698
88215W        W92283  19.123   8.544  22.423
88216W        W92284  20.651   9.460  23.214
88217W        W92285  20.113   7.685  22.285
88218W        W92286  21.794   7.313  23.007
88219W        W92287  19.482   8.948  22.170
88220W        W92288  21.648   8.285  23.160
88221W        W92289  20.340   9.455  22.037
88222W        W92290  20.930  10.356  22.252
88223W        W92291  18.518   9.766  23.213
88224W        W92292  20.927  10.522  23.222
88225W        W92293  20.311  10.565  22.696
88226W        W92294  19.745  10.058  22.711
88227W        W92295  18.966   8.798  21.970
88228W        W92296  18.305  14.528   3.359
88229W        W92297  18.681  13.421   2.882
88230W        W92298  21.386  13.151   0.652
88231W        W92299  21.516  14.236   2.679
88232W        W92300  19.434  14.227   0.205
88233W        W92301  19.517  12.379   1.188
88234W        W92302  19.032  12.227   1.352
88235W        W92303  20.023  13.042   0.786
88236W        W92304  19.698  14.134   3.141
88237W        W92305  18.347  11.695   3.104
88238W        W92306  19.109  10.975   2.906
88239W        W92307  20.803  11.363   1.793
88240W        W92308  20.452  12.234   0.363
88241W        W92309  21.022  11.668   3.454
88242W        W92310  18.388  11.460   2.579
88243W        W92311  18.487  14.079   3.600
88244W        W92312  20.009  13.469   0.332
88245W        W92313  18.441  12.252   2.025
88246W        W92314  19.334  12.143   3.262
88247W        W92315  21.793  12.002   1.761
88248W        W92316  21.557  13.045   2.620
88249W        W92317  19.865  12.378   1.647
88250W        W92318  20.411  13.717   2.016
88251W        W92319  18.911  13.151   2.248
88252W        W92320  18.270  12.679   1.819
88253W        W92321  19.306  12.651   3.011
88254W        W92322  21.577  12.434   3.265
88255W        W92323  19.193  13.878   1.710
88256W        W92324  20.314  13.567   2.844
88257W        W92325  19.534  12.207   2.069
88258W        W92326  19.826  12.991   1.712
88259W        W92327  20.823  13.764   3.560
88260W        W92328  19.902  13.084   3.570
88261W        W92329  19.883  12.800   3.048
88262W        W92330  18.292  12.191   3.570
88263W        W92331  21.124  13.726   3.169
88264W        W92332  18.705  11.308   1.167
88265W        W92333  19.232  13.566   2.166
88266W        W92334  21.695  13.349   1.456
88267W        W92335  21.108  11.749   2.023
88268W        W92336  21.393  11.702   0.118
88269W        W92337  21.858  12.503   2.424
88270W        W92338  19.825  14.210   2.177
88271W        W92339  21.599  13.676   0.615
88272W        W92340  18.728  14.462   0.369
88273W        W92341  19.121  14.508   1.045
88274W        W92342  18.918  11.262   2.471
88275W        W92343  21.541  12.280   2.746
88276W        W92344  20.946  12.702   1.205
88277W        W92345  20.912  12.390   0.232
88278W        W92346  20.120  13.534   2.372
88279W        W92347  19.926  11.864   1.571
88280W        W92348  20.526  13.951   2.565
88281W        W92349  21.397  12.742   0.987
88282W        W92350  20.299  11.400   1.003
88283W        W92351  18.956  14.094   0.686
88284W        W92352  18.327  11.593   1.285
88285W        W92353  21.113  12.200   1.759
88286W        W92354  18.571  13.817   1.674
88287W        W92355  19.912  14.167   0.544
88288W        W92356  21.304  12.193   0.008
88289W        W92357  18.327  13.951   2.172
88290W        W92358  19.118  13.523   2.652
88291W        W92359  19.491  12.883   1.271
88292W        W92360  19.513  11.288   2.364
88293W        W92361  21.742  11.050   1.661
88294W        W92362  18.961  12.922   0.129
88295W        W92363  18.616  11.955   0.308
88296W        W92364  18.678  13.911   1.102
88297W        W92365  19.809  13.394   1.350
88298W        W92366  21.141  14.253   3.064
88299W        W92367  20.067  11.895   0.748
88300W        W92368  21.450  14.293   1.520
88301W        W92369  21.127  12.146   3.118
88302W        W92370  21.840  13.802   1.252
88303W        W92371  20.467  13.094   2.736
88304W        W92372  18.233  12.645   0.942
88305W        W92373  19.344  13.060   2.515
88306W        W92374  20.548  12.324   0.893
88307W        W92375  20.425  12.814   0.997
88308W        W92376  18.768  12.234   2.471
88309W        W92377  18.753  12.110   3.393
88310W        W92378  18.643  11.027   1.552
88311W        W92379  20.411  11.374   2.113
88312W        W92380  20.059  11.559   3.276
88313W        W92381  20.414  11.708   0.454
88314W        W92382  21.597  14.101   3.208
88315W        W92383  20.564  11.182   3.247
88316W        W92384  21.583  13.483   3.369
88317W        W92385  21.013  11.650   2.965
88318W        W92386  20.813  11.588   1.235
88319W        W92387  21.206  12.722   3.639
88320W        W92388  18.946  14.298   1.625
88321W        W92389  19.604  12.015   0.611
88322W        W92390  19.173  11.299   3.275
88323W        W92391  21.225  11.783   0.956
88324W        W92392  21.592  12.265   0.901
88325W        W92393  19.335  14.482   3.372
88326W        W92394  19.261  11.018   0.607
88327W        W92395  21.582  11.552   1.642
88328W        W92396  21.732  13.801   0.087
88329W        W92397  18.639  13.004   1.789
88330W        W92398  20.556  11.591   0.019
88331W        W92399  21.690  13.923   1.739
88332W        W92400  21.729  11.117   2.489
88333W        W92401  20.174  12.329   3.043
88334W        W92402  20.267  13.668   0.746
88335W        W92403  20.667  12.962   3.486
88336W        W92404  20.341  10.939   1.795
88337W        W92405  18.953  11.842   1.858
88338W        W92406  18.507  13.042   2.632
88339W        W92407  20.366  14.235   1.338
88340W        W92408  21.560  11.832   2.210
88341W        W92409  20.197  14.179   2.977
88342W        W92410  21.540  13.238   0.182
88343W        W92411  19.975  12.721   1.243
88344W        W92412  21.827  11.232   2.984
88345W        W92413  19.976  13.067   2.578
88346W        W92414  20.193  11.953   2.023
88347W        W92415  21.045  12.251   0.861
88348W        W92416  21.332  11.984   0.503
88349W        W92417  21.141  14.024   0.892
88350W        W92418  20.975  13.627   1.688
88351W        W92419  20.871  12.706   0.666
88352W        W92420  20.304  12.916   1.652
88353W        W92421  21.185  12.704   1.719
88354W        W92422  18.560  11.719   2.143
88355W        W92423  21.338  12.771   2.970
88356W        W92424  21.689  14.389   2.116
88357W        W92425  19.619  13.833   1.518
88358W        W92426  20.626  14.366   2.842
88359W        W92427  20.620  11.696   2.606
88360W        W92428  19.827  14.404   2.667
88361W        W92429  21.524  11.358   1.133
88362W        W92430  21.315  12.677   2.434
88363W        W92431  18.298  11.998   2.472
88364W        W92432  21.158  11.793   1.490
88365W        W92433  21.569  11.944   3.267
88366W        W92434  20.454  13.643   1.485
88367W        W92435  19.710  14.234   1.098
88368W        W92436  18.825  11.414   0.356
88369W        W92437  19.929  11.068   2.166
88370W        W92438  18.957  14.188   0.014
88371W        W92439  19.331  12.654   0.765
88372W        W92440  19.985  13.283   3.078
88373W        W92441  19.815  11.641   1.068
88374W        W92442  21.171  11.238   1.496
88375W        W92443  20.891  14.520   1.824
88376W        W92444  20.303  14.168   2.164
88377W        W92445  19.699  13.205   2.125
88378W        W92446  21.469  13.928   2.251
88379W        W92447  19.163  11.431   1.020
88380W        W92448  19.685  13.728   1.980
88381W        W92449  19.168  11.659   0.045
88382W        W92450  19.969  12.268   2.439
88383W        W92451  20.817  11.134   2.309
88384W        W92452  18.237  12.977   2.194
88385W        W92453  19.941  12.795   0.352
88386W        W92454  19.209  11.110   0.122
88387W        W92455  19.947  12.191   1.173
88388W        W92456  20.917  11.167   2.872
88389W        W92457  19.505  13.179   2.981
88390W        W92458  20.309  12.961   3.198
88391W        W92459  20.926  12.991   3.091
88392W        W92460  20.210  11.131   3.596
88393W        W92461  19.432  11.747   1.989
88394W        W92462  18.858  11.703   1.387
88395W        W92463  18.644  14.415   1.063
88396W        W92464  19.976  13.745   3.188
88397W        W92465  19.011  13.230   0.547
88398W        W92466  20.691  12.615   1.768
88399W        W92467  20.971  12.414   2.167
88400W        W92468  20.176  13.088   2.101
88401W        W92469  20.646  13.462   0.233
88402W        W92470  20.318  11.483   1.561
88403W        W92471  21.797  11.761   0.829
88404W        W92472  18.291  14.350   2.860
88405W        W92473  18.708  13.576   2.392
88406W        W92474  18.275  14.422   0.624
88407W        W92475  20.174  11.692   2.430
88408W        W92476  19.537  13.715   0.279
88409W        W92477  21.442  14.097   0.465
88410W        W92478  20.417  12.750   0.479
88411W        W92479  19.260  11.941   0.996
88412W        W92480  20.092  11.851   0.048
88413W        W92481  20.676  13.416   3.226
88414W        W92482  21.029  11.322   0.843
88415W        W92483  18.359  11.170   0.291
88416W        W92484  19.645  13.489   2.581
88417W        W92485  19.444  13.405   1.673
88418W        W92486  19.186  13.357   0.071
88419W        W92487  18.427  13.598   0.839
88420W        W92488  18.931  12.668   3.281
88421W        W92489  19.635  11.228   3.467
88422W        W92490  20.344  11.370   2.823
88423W        W92491  19.539  11.138   1.104
88424W        W92492  20.598  11.215   0.609
88425W        W92493  18.543  11.147   2.186
88426W        W92494  18.591  12.110   1.556
88427W        W92495  21.280  11.218   1.962
88428W        W92496  18.702  11.716   0.776
88429W        W92497  21.273  11.404   2.392
88430W        W92498  21.669  12.607   0.077
88431W        W92499  18.961  11.365   1.896
88432W        W92500  20.075  11.937   2.836
88433W        W92501  18.223  11.627   0.314
88434W        W92502  19.009  13.016   2.875
88435W        W92503  20.367  12.414   2.054
88436W        W92504  20.234  14.493   0.350
88437W        W92505  18.380  13.000   0.047
88438W        W92506  19.115  13.411   3.173
88439W        W92507  18.636  12.578   2.804
88440W        W92508  19.627  12.683   2.598
88441W        W92509  21.395  11.042   2.860
88442W        W92510  21.793  12.652   2.851
88443W        W92511  21.781  12.852   0.537
88444W        W92512  20.644  13.184   0.636
88445W        W92513  21.118  14.484   0.331
88446W        W92514  20.295  12.474   3.473
88447W        W92515  18.625  13.441   3.513
88448W        W92516  21.831  11.363   3.465
88449W        W92517  21.549  12.291   2.086
88450W        W92518  19.857  14.421   3.563
88451W        W92519  19.712  11.050   0.290
88452W        W92520  21.251  13.649   0.233
88453W        W92521  19.020  11.742   3.119
88454W        W92522  19.454  13.736   2.981
88455W        W92523  21.580  11.727   2.779
88456W        W92524  20.791  14.386   0.747
88457W        W92525  21.030  13.005   2.114
88458W        W92526  19.280  11.421   2.781
88459W        W92527  19.749  12.490   3.538
88460W        W92528  19.252  13.669   0.732
88461W        W92529  21.007  13.167   0.996
88462W        W92530  18.775  11.793   2.720
88463W        W92531  20.104  13.855   1.184
88464W        W92532  21.854  12.415   1.365
88465W        W92533  20.076  11.048   3.084
88466W        W92534  20.856  13.753   2.163
88467W        W92535  21.159  14.097   1.871
88468W        W92536  20.378  13.899   0.299
88469W        W92537  18.388  13.791   3.141
88470W        W92538  19.131  11.783   2.379
88471W        W92539  19.101  11.131   1.489
88472W        W92540  20.722  11.973   2.181
88473W        W92541  19.520  13.144   0.381
88474W        W92542  21.518  13.086   1.880
88475W        W92543  18.845  13.844   3.303
88476W        W92544  21.232  14.526   1.100
88477W        W92545  19.331  11.546   1.545
88478W        W92546  19.100  13.039   1.635
88479W        W92547  19.413  14.450   2.385
88480W        W92548  21.480  14.546   3.417
88481W        W92549  20.639  12.734   2.350
88482W        W92550  18.488  12.532   0.265
88483W        W92551  21.622  14.190   0.962
88484W        W92552  21.459  11.514   0.581
88485W        W92553  19.598  11.033   2.984
88486W        W92554  21.304  13.835   1.442
88487W        W92555  21.333  12.391   1.347
88488W        W92556  19.450  12.064   1.563
88489W        W92557  19.695  12.326   2.887
88490W        W92558  20.806  13.479   2.750
88491W        W92559  19.456  11.933   2.862
88492W        W92560  19.435  14.399   1.478
88493W        W92561  18.752  14.358   3.112
88494W        W92562  18.864  13.719   0.242
88495W        W92563  21.381  13.477   1.052
88496W        W92564  18.985  12.269   2.938
88497W        W92565  21.758  12.199   0.419
88498W        W92566  19.503  13.256   0.890
88499W        W92567  20.602  12.638   2.971
88500W        W92568  20.493  12.266   2.515
88501W        W92569  19.053  12.638   2.544
88502W        W92570  21.263  14.526   2.373
88503W        W92571  21.054  11.160   3.367
88504W        W92572  18.718  11.310   2.954
88505W        W92573  19.057  12.333   2.007
88506W        W92574  19.426  12.147   0.129
88507W        W92575  18.229  13.906   2.674
88508W        W92576  19.814  12.615   2.117
88509W        W92577  19.637  11.640   0.222
88510W        W92578  18.772  12.456   1.003
88511W        W92579  18.543  14.308   2.440
88512W        W92580  21.338  12.534   0.548
88513W        W92581  21.433  11.450   3.234
88514W        W92582  20.869  13.659   1.197
88515W        W92583  18.467  12.583   3.374
88516W        W92584  21.433  11.047   0.670
88517W        W92585  20.953  13.522   0.681
88518W        W92586  19.855  12.580   0.766
88519W        W92587  21.042  11.384   0.289
88520W        W92588  21.107  11.991   2.475
88521W        W92589  18.816  12.584   1.682
88522W        W92590  19.110  13.523   1.331
88523W        W92591  20.873  12.143   1.296
88524W        W92592  19.896  11.522   1.992
88525W        W92593  21.858  13.433   2.503
88526W        W92594  21.776  11.420   2.064
88527W        W92595  18.315  14.250   1.440
88528W        W92596  18.824  13.437   0.976
88529W        W92597  18.739  11.054   3.529
88530W        W92598  19.858  13.907   3.631
88531W        W92599  21.613  12.875   1.421
88532W        W92600  20.967  13.052   0.301
88533W        W92601  20.262  14.573   2.513
88534W        W92602  21.119  13.295   3.550
88535W        W92603  19.934  11.005   0.830
88536W        W92604  20.647  11.874   1.689
88537W        W92605  18.333  13.461   2.021
88538W        W92606  19.586  11.423   0.662
88539W        W92607  19.390  12.907   3.511
88540W        W92608  20.384  11.888   1.225
88541W        W92609  20.589  13.298   2.347
88542W        W92610  18.743  13.903   2.782
88543W        W92611  19.334  13.886   3.505
88544W        W92612  19.185  11.683   0.519
88545W        W92613  20.702  11.825   0.844
88546W        W92614  20.660  13.933   3.081
88547W        W92615  19.345  12.525   1.680
88548W        W92616  19.000  14.223   2.545
88549W        W92617  21.745  14.340   0.146
88550W        W92618  18.608  13.012   3.142
88551W        W92619  20.603  13.274   1.830
88552W        W92620  19.039  12.923   1.072
88553W        W92621  19.410  13.930   2.467
88554W        W92622  19.788  11.349   1.508
88555W        W92623  18.399  13.333   0.438
88556W        W92624  19.918  12.284   0.308
88557W        W92625  18.564  12.833   1.327
88558W        W92626  19.854  11.475   2.791
88559W        W92627  21.526  11.184   0.218
88560W        W92628  21.619  12.930   3.317
88561W        W92629  20.273  14.187   3.469
88562W        W92630  21.831  13.281   2.991
88563W        W92631  21.239  14.079   3.602
88564W        W92632  18.978  14.535   2.080
88565W        W92633  21.837  13.157   0.954
88566W        W92634  20.367  12.424   1.467
88567W        W92635  20.134  11.036   1.357
88568W        W92636  19.193  14.020   1.194
88569W        W92637  19.692  11.761   2.419
88570W        W92638  19.392  11.130   1.888
88571W        W92639  18.455  13.952   0.436
88572W        W92640  20.271  13.316   1.154
88573W        W92641  19.146  14.111   3.033
88574W        W92642  18.623  12.934   0.729
88575W        W92643  18.508  11.477   1.728
88576W        W92644  20.056  13.442   1.785
88577W        W92645  18.308  11.296   0.805
88578W        W92646  20.972  12.502   2.732
88579W        W92647  20.849  11.888   0.304
88580W        W92648  21.366  13.560   1.952
88581W        W92649  20.027  14.044   1.783
88582W        W92650  19.439  14.148   0.694
88583W        W92651  20.721  11.051   0.124
88584W        W92652  18.521  14.311   1.865
88585W        W92653  20.718  12.069   3.500
88586W        W92654  18.701  11.599   3.499
88587W        W92655  18.432  12.199   0.832
88588W        W92656  19.123  12.188   0.557
88589W        W92657  20.886  12.515   3.374
88590W        W92658  19.229  12.796   2.083
88591W        W92659  20.703  11.082   1.203
88592W        W92660  19.834  14.513   1.706
88593W        W92661  21.048  13.975   2.643
88594W        W92662  20.632  14.124   1.754
88595W        W92663  20.651  13.104   1.348
88596W        W92664  20.113  11.329   0.419
88597W        W92665  21.794  10.957   1.141
88598W        W92666  19.482  12.592   0.304
88599W        W92667  21.648  11.929   1.294
88600W        W92668  20.340  13.099   0.171
88601W        W92669  21.276  13.299   2.919
88602W        W92670  20.930  14.000   0.386
88603W        W92671  19.545  11.675   3.292
88604W        W92672  19.365  12.259   2.533
88605W        W92673  21.457  13.754   2.810
88606W        W92674  20.557  11.704   3.187
88607W        W92675  18.401  12.175   2.964
88608W        W92676  20.161  12.652   2.690
88609W        W92677  18.518  13.410   1.347
88610W        W92678  18.665  12.707   2.237
88611W        W92679  20.982  12.993   2.587
88612W        W92680  20.754  14.373   3.398
88613W        W92681  20.650  12.112   2.951
88614W        W92682  20.927  14.166   1.356
88615W        W92683  19.929  13.886   2.679
88616W        W92684  19.414  14.241   1.948
88617W        W92685  21.219  13.412   2.367
88618W        W92686  20.269  13.484   3.504
88619W        W92687  18.874  13.437   1.843
88620W        W92688  21.220  13.196   1.488
88621W        W92689  20.861  14.262   2.239
88622W        W92690  18.839  13.991   2.109
88623W        W92691  19.860  12.043   3.319
88624W        W92692  20.311  14.209   0.830
88625W        W92693  19.619  13.464   3.468
88626W        W92694  19.745  13.702   0.845
88627W        W92695  18.966  12.442   0.104
88628W        W92696  18.305  14.528   7.003
88629W        W92697  18.681  13.421   6.526
88630W        W92698  21.386  13.151   4.296
88631W        W92699  21.516  14.236   6.323
88632W        W92700  19.434  14.227   3.849
88633W        W92701  19.517  12.379   4.832
88634W        W92702  19.032  12.227   4.996
88635W        W92703  20.023  13.042   4.430
88636W        W92704  19.698  14.134   6.785
88637W        W92705  18.347  11.695   6.748
88638W        W92706  19.109  10.975   6.550
88639W        W92707  20.803  11.363   5.437
88640W        W92708  20.452  12.234   4.007
88641W        W92709  21.022  11.668   7.098
88642W        W92710  18.388  11.460   6.223
88643W        W92711  18.487  14.079   7.244
88644W        W92712  20.009  13.469   3.976
88645W        W92713  18.441  12.252   5.669
88646W        W92714  19.334  12.143   6.906
88647W        W92715  21.793  12.002   5.405
88648W        W92716  21.557  13.045   6.264
88649W        W92717  19.865  12.378   5.291
88650W        W92718  20.411  13.717   5.660
88651W        W92719  18.911  13.151   5.892
88652W        W92720  18.270  12.679   5.463
88653W        W92721  19.306  12.651   6.655
88654W        W92722  21.577  12.434   6.909
88655W        W92723  19.193  13.878   5.354
88656W        W92724  20.314  13.567   6.488
88657W        W92725  19.534  12.207   5.713
88658W        W92726  19.826  12.991   5.356
88659W        W92727  20.823  13.764   7.204
88660W        W92728  19.902  13.084   7.214
88661W        W92729  19.883  12.800   6.692
88662W        W92730  18.292  12.191   7.214
88663W        W92731  21.124  13.726   6.813
88664W        W92732  18.705  11.308   4.811
88665W        W92733  19.232  13.566   5.810
88666W        W92734  21.695  13.349   5.100
88667W        W92735  21.108  11.749   5.667
88668W        W92736  21.393  11.702   3.762
88669W        W92737  21.858  12.503   6.068
88670W        W92738  19.825  14.210   5.821
88671W        W92739  21.599  13.676   4.259
88672W        W92740  18.728  14.462   4.013
88673W        W92741  19.121  14.508   4.689
88674W        W92742  18.918  11.262   6.115
88675W        W92743  21.541  12.280   6.390
88676W        W92744  20.946  12.702   4.849
88677W        W92745  20.912  12.390   3.876
88678W        W92746  20.120  13.534   6.016
88679W        W92747  19.926  11.864   5.215
88680W        W92748  20.526  13.951   6.209
88681W        W92749  21.397  12.742   4.631
88682W        W92750  20.299  11.400   4.647
88683W        W92751  18.956  14.094   4.330
88684W        W92752  18.327  11.593   4.929
88685W        W92753  21.113  12.200   5.403
88686W        W92754  18.571  13.817   5.318
88687W        W92755  19.912  14.167   4.188
88688W        W92756  21.304  12.193   3.652
88689W        W92757  18.327  13.951   5.816
88690W        W92758  19.118  13.523   6.296
88691W        W92759  19.491  12.883   4.915
88692W        W92760  19.513  11.288   6.008
88693W        W92761  21.742  11.050   5.305
88694W        W92762  18.961  12.922   3.773
88695W        W92763  18.616  11.955   3.952
88696W        W92764  18.678  13.911   4.746
88697W        W92765  19.809  13.394   4.994
88698W        W92766  21.141  14.253   6.708
88699W        W92767  20.067  11.895   4.392
88700W        W92768  21.450  14.293   5.164
88701W        W92769  21.127  12.146   6.762
88702W        W92770  21.840  13.802   4.896
88703W        W92771  20.467  13.094   6.380
88704W        W92772  18.233  12.645   4.586
88705W        W92773  19.344  13.060   6.159
88706W        W92774  20.548  12.324   4.537
88707W        W92775  20.425  12.814   4.641
88708W        W92776  18.768  12.234   6.115
88709W        W92777  18.753  12.110   7.037
88710W        W92778  18.643  11.027   5.196
88711W        W92779  20.411  11.374   5.757
88712W        W92780  20.059  11.559   6.920
88713W        W92781  20.414  11.708   4.098
88714W        W92782  21.597  14.101   6.852
88715W        W92783  20.564  11.182   6.891
88716W        W92784  21.583  13.483   7.013
88717W        W92785  21.013  11.650   6.609
88718W        W92786  20.813  11.588   4.879
88719W        W92787  21.206  12.722   7.283
88720W        W92788  18.946  14.298   5.269
88721W        W92789  19.604  12.015   4.255
88722W        W92790  19.173  11.299   6.919
88723W        W92791  21.225  11.783   4.600
88724W        W92792  21.592  12.265   4.545
88725W        W92793  19.335  14.482   7.016
88726W        W92794  19.261  11.018   4.251
88727W        W92795  21.582  11.552   5.286
88728W        W92796  21.732  13.801   3.731
88729W        W92797  18.639  13.004   5.433
88730W        W92798  20.556  11.591   3.663
88731W        W92799  21.690  13.923   5.383
88732W        W92800  21.729  11.117   6.133
88733W        W92801  20.174  12.329   6.687
88734W        W92802  20.267  13.668   4.390
88735W        W92803  20.667  12.962   7.130
88736W        W92804  20.341  10.939   5.439
88737W        W92805  18.953  11.842   5.502
88738W        W92806  18.507  13.042   6.276
88739W        W92807  20.366  14.235   4.982
88740W        W92808  21.560  11.832   5.854
88741W        W92809  20.197  14.179   6.621
88742W        W92810  21.540  13.238   3.826
88743W        W92811  19.975  12.721   4.887
88744W        W92812  21.827  11.232   6.628
88745W        W92813  19.976  13.067   6.222
88746W        W92814  20.193  11.953   5.667
88747W        W92815  21.045  12.251   4.505
88748W        W92816  21.332  11.984   4.147
88749W        W92817  21.141  14.024   4.536
88750W        W92818  20.975  13.627   5.332
88751W        W92819  20.871  12.706   4.310
88752W        W92820  20.304  12.916   5.296
88753W        W92821  21.185  12.704   5.363
88754W        W92822  18.560  11.719   5.787
88755W        W92823  21.338  12.771   6.614
88756W        W92824  21.689  14.389   5.760
88757W        W92825  19.619  13.833   5.162
88758W        W92826  20.626  14.366   6.486
88759W        W92827  20.620  11.696   6.250
88760W        W92828  19.827  14.404   6.311
88761W        W92829  21.524  11.358   4.777
88762W        W92830  21.315  12.677   6.078
88763W        W92831  18.298  11.998   6.116
88764W        W92832  21.158  11.793   5.134
88765W        W92833  21.569  11.944   6.911
88766W        W92834  20.454  13.643   5.129
88767W        W92835  19.710  14.234   4.742
88768W        W92836  18.825  11.414   4.000
88769W        W92837  19.929  11.068   5.810
88770W        W92838  18.957  14.188   3.658
88771W        W92839  19.331  12.654   4.409
88772W        W92840  19.985  13.283   6.722
88773W        W92841  19.815  11.641   4.712
88774W        W92842  21.171  11.238   5.140
88775W        W92843  20.891  14.520   5.468
88776W        W92844  20.303  14.168   5.808
88777W        W92845  19.699  13.205   5.769
88778W        W92846  21.469  13.928   5.895
88779W        W92847  19.163  11.431   4.664
88780W        W92848  19.685  13.728   5.624
88781W        W92849  19.168  11.659   3.689
88782W        W92850  19.969  12.268   6.083
88783W        W92851  20.817  11.134   5.953
88784W        W92852  18.237  12.977   5.838
88785W        W92853  19.941  12.795   3.996
88786W        W92854  19.209  11.110   3.766
88787W        W92855  19.947  12.191   4.817
88788W        W92856  20.917  11.167   6.516
88789W        W92857  19.505  13.179   6.625
88790W        W92858  20.309  12.961   6.842
88791W        W92859  20.926  12.991   6.735
88792W        W92860  20.210  11.131   7.240
88793W        W92861  19.432  11.747   5.633
88794W        W92862  18.858  11.703   5.031
88795W        W92863  18.644  14.415   4.707
88796W        W92864  19.976  13.745   6.832
88797W        W92865  19.011  13.230   4.191
88798W        W92866  20.691  12.615   5.412
88799W        W92867  20.971  12.414   5.811
88800W        W92868  20.176  13.088   5.745
88801W        W92869  20.646  13.462   3.877
88802W        W92870  20.318  11.483   5.205
88803W        W92871  21.797  11.761   4.473
88804W        W92872  18.291  14.350   6.504
88805W        W92873  18.708  13.576   6.036
88806W        W92874  18.275  14.422   4.268
88807W        W92875  20.174  11.692   6.074
88808W        W92876  19.537  13.715   3.923
88809W        W92877  21.442  14.097   4.109
88810W        W92878  20.417  12.750   4.123
88811W        W92879  19.260  11.941   4.640
88812W        W92880  20.092  11.851   3.692
88813W        W92881  20.676  13.416   6.870
88814W        W92882  21.029  11.322   4.487
88815W        W92883  18.359  11.170   3.935
88816W        W92884  19.645  13.489   6.225
88817W        W92885  19.444  13.405   5.317
88818W        W92886  19.186  13.357   3.715
88819W        W92887  18.427  13.598   4.483
88820W        W92888  18.931  12.668   6.925
88821W        W92889  19.635  11.228   7.111
88822W        W92890  20.344  11.370   6.467
88823W        W92891  19.539  11.138   4.748
88824W        W92892  20.598  11.215   4.253
88825W        W92893  18.543  11.147   5.830
88826W        W92894  18.591  12.110   5.200
88827W        W92895  21.280  11.218   5.606
88828W        W92896  18.702  11.716   4.420
88829W        W92897  21.273  11.404   6.036
88830W        W92898  21.669  12.607   3.721
88831W        W92899  18.961  11.365   5.540
88832W        W92900  20.075  11.937   6.480
88833W        W92901  18.223  11.627   3.958
88834W        W92902  19.009  13.016   6.519
88835W        W92903  20.367  12.414   5.698
88836W        W92904  20.234  14.493   3.994
88837W        W92905  18.380  13.000   3.691
88838W        W92906  19.115  13.411   6.817
88839W        W92907  18.636  12.578   6.448
88840W        W92908  19.627  12.683   6.242
88841W        W92909  21.395  11.042   6.504
88842W        W92910  21.793  12.652   6.495
88843W        W92911  21.781  12.852   4.181
88844W        W92912  20.644  13.184   4.280
88845W        W92913  21.118  14.484   3.975
88846W        W92914  20.295  12.474   7.117
88847W        W92915  18.625  13.441   7.157
88848W        W92916  21.831  11.363   7.109
88849W        W92917  21.549  12.291   5.730
88850W        W92918  19.857  14.421   7.207
88851W        W92919  19.712  11.050   3.934
88852W        W92920  21.251  13.649   3.877
88853W        W92921  19.020  11.742   6.763
88854W        W92922  19.454  13.736   6.625
88855W        W92923  21.580  11.727   6.423
88856W        W92924  20.791  14.386   4.391
88857W        W92925  21.030  13.005   5.758
88858W        W92926  19.280  11.421   6.425
88859W        W92927  19.749  12.490   7.182
88860W        W92928  19.252  13.669   4.376
88861W        W92929  21.007  13.167   4.640
88862W        W92930  18.775  11.793   6.364
88863W        W92931  20.104  13.855   4.828
88864W        W92932  21.854  12.415   5.009
88865W        W92933  20.076  11.048   6.728
88866W        W92934  20.856  13.753   5.807
88867W        W92935  21.159  14.097   5.515
88868W        W92936  20.378  13.899   3.943
88869W        W92937  18.388  13.791   6.785
88870W        W92938  19.131  11.783   6.023
88871W        W92939  19.101  11.131   5.133
88872W        W92940  20.722  11.973   5.825
88873W        W92941  19.520  13.144   4.025
88874W        W92942  21.518  13.086   5.524
88875W        W92943  18.845  13.844   6.947
88876W        W92944  21.232  14.526   4.744
88877W        W92945  19.331  11.546   5.189
88878W        W92946  19.100  13.039   5.279
88879W        W92947  19.413  14.450   6.029
88880W        W92948  21.480  14.546   7.061
88881W        W92949  20.639  12.734   5.994
88882W        W92950  18.488  12.532   3.909
88883W        W92951  21.622  14.190   4.606
88884W        W92952  21.459  11.514   4.225
88885W        W92953  19.598  11.033   6.628
88886W        W92954  21.304  13.835   5.086
88887W        W92955  21.333  12.391   4.991
88888W        W92956  19.450  12.064   5.207
88889W        W92957  19.695  12.326   6.531
88890W        W92958  20.806  13.479   6.394
88891W        W92959  19.456  11.933   6.506
88892W        W92960  19.435  14.399   5.122
88893W        W92961  18.752  14.358   6.756
88894W        W92962  18.864  13.719   3.886
88895W        W92963  21.381  13.477   4.696
88896W        W92964  18.985  12.269   6.582
88897W        W92965  21.758  12.199   4.063
88898W        W92966  19.503  13.256   4.534
88899W        W92967  20.602  12.638   6.615
88900W        W92968  20.493  12.266   6.159
88901W        W92969  19.053  12.638   6.188
88902W        W92970  21.263  14.526   6.017
88903W        W92971  21.054  11.160   7.011
88904W        W92972  18.718  11.310   6.598
88905W        W92973  19.057  12.333   5.651
88906W        W92974  19.426  12.147   3.773
88907W        W92975  18.229  13.906   6.318
88908W        W92976  19.814  12.615   5.761
88909W        W92977  19.637  11.640   3.866
88910W        W92978  18.772  12.456   4.647
88911W        W92979  18.543  14.308   6.084
88912W        W92980  21.338  12.534   4.192
88913W        W92981  21.433  11.450   6.878
88914W        W92982  20.869  13.659   4.841
88915W        W92983  18.467  12.583   7.018
88916W        W92984  21.433  11.047   4.314
88917W        W92985  20.953  13.522   4.325
88918W        W92986  19.855  12.580   4.410
88919W        W92987  21.042  11.384   3.933
88920W        W92988  21.107  11.991   6.119
88921W        W92989  18.816  12.584   5.326
88922W        W92990  19.110  13.523   4.975
88923W        W92991  20.873  12.143   4.940
88924W        W92992  19.896  11.522   5.636
88925W        W92993  21.858  13.433   6.147
88926W        W92994  21.776  11.420   5.708
88927W        W92995  18.315  14.250   5.084
88928W        W92996  18.824  13.437   4.620
88929W        W92997  18.739  11.054   7.173
88930W        W92998  19.858  13.907   7.275
88931W        W92999  21.613  12.875   5.065
88932W        W93000  20.967  13.052   3.945
88933W        W93001  20.262  14.573   6.157
88934W        W93002  21.119  13.295   7.194
88935W        W93003  19.934  11.005   4.474
88936W        W93004  20.647  11.874   5.333
88937W        W93005  18.333  13.461   5.665
88938W        W93006  19.586  11.423   4.306
88939W        W93007  19.390  12.907   7.155
88940W        W93008  20.384  11.888   4.869
88941W        W93009  20.589  13.298   5.991
88942W        W93010  18.743  13.903   6.426
88943W        W93011  19.334  13.886   7.149
88944W        W93012  19.185  11.683   4.163
88945W        W93013  20.702  11.825   4.488
88946W        W93014  20.660  13.933   6.725
88947W        W93015  19.345  12.525   5.324
88948W        W93016  19.000  14.223   6.189
88949W        W93017  21.745  14.340   3.790
88950W        W93018  18.608  13.012   6.786
88951W        W93019  20.603  13.274   5.474
88952W        W93020  19.039  12.923   4.716
88953W        W93021  19.410  13.930   6.111
88954W        W93022  19.788  11.349   5.152
88955W        W93023  18.399  13.333   4.082
88956W        W93024  19.918  12.284   3.952
88957W        W93025  18.564  12.833   4.971
88958W        W93026  19.854  11.475   6.435
88959W        W93027  21.526  11.184   3.862
88960W        W93028  21.619  12.930   6.961
88961W        W93029  20.273  14.187   7.113
88962W        W93030  21.831  13.281   6.635
88963W        W93031  21.239  14.079   7.246
88964W        W93032  18.978  14.535   5.724
88965W        W93033  21.837  13.157   4.598
88966W        W93034  20.367  12.424   5.111
88967W        W93035  20.134  11.036   5.001
88968W        W93036  19.193  14.020   4.838
88969W        W93037  19.692  11.761   6.063
88970W        W93038  19.392  11.130   5.532
88971W        W93039  18.455  13.952   4.080
88972W        W93040  20.271  13.316   4.798
88973W        W93041  19.146  14.111   6.677
88974W        W93042  18.623  12.934   4.373
88975W        W93043  18.508  11.477   5.372
88976W        W93044  20.056  13.442   5.429
88977W        W93045  18.308  11.296   4.449
88978W        W93046  20.972  12.502   6.376
88979W        W93047  20.849  11.888   3.948
88980W        W93048  21.366  13.560   5.596
88981W        W93049  20.027  14.044   5.427
88982W        W93050  19.439  14.148   4.338
88983W        W93051  20.721  11.051   3.768
88984W        W93052  18.521  14.311   5.509
88985W        W93053  20.718  12.069   7.144
88986W        W93054  18.701  11.599   7.143
88987W        W93055  18.432  12.199   4.476
88988W        W93056  19.123  12.188   4.201
88989W        W93057  20.886  12.515   7.018
88990W        W93058  19.229  12.796   5.727
88991W        W93059  20.703  11.082   4.847
88992W        W93060  19.834  14.513   5.350
88993W        W93061  21.048  13.975   6.287
88994W        W93062  20.632  14.124   5.398
88995W        W93063  20.651  13.104   4.992
88996W        W93064  20.113  11.329   4.063
88997W        W93065  21.794  10.957   4.785
88998W        W93066  19.482  12.592   3.948
88999W        W93067  21.648  11.929   4.938
89000W        W93068  20.340  13.099   3.815
89001W        W93069  21.276  13.299   6.563
89002W        W93070  20.930  14.000   4.030
89003W        W93071  19.545  11.675   6.936
89004W        W93072  19.365  12.259   6.177
89005W        W93073  21.457  13.754   6.454
89006W        W93074  20.557  11.704   6.831
89007W        W93075  18.401  12.175   6.608
89008W        W93076  20.161  12.652   6.334
89009W        W93077  18.518  13.410   4.991
89010W        W93078  18.665  12.707   5.881
89011W        W93079  20.982  12.993   6.231
89012W        W93080  20.754  14.373   7.042
89013W        W93081  20.650  12.112   6.595
89014W        W93082  20.927  14.166   5.000
89015W        W93083  19.929  13.886   6.323
89016W        W93084  19.414  14.241   5.592
89017W        W93085  21.219  13.412   6.011
89018W        W93086  20.269  13.484   7.148
89019W        W93087  18.874  13.437   5.487
89020W        W93088  21.220  13.196   5.132
89021W        W93089  20.861  14.262   5.883
89022W        W93090  18.839  13.991   5.753
89023W        W93091  19.860  12.043   6.963
89024W        W93092  20.311  14.209   4.474
89025W        W93093  19.619  13.464   7.112
89026W        W93094  19.745  13.702   4.489
89027W        W93095  18.966  12.442   3.748
89028W        W93096  18.305  14.528  10.648
89029W        W93097  18.681  13.421  10.171
89030W        W93098  21.386  13.151   7.941
89031W        W93099  21.516  14.236   9.968
89032W        W93100  19.434  14.227   7.494
89033W        W93101  19.517  12.379   8.477
89034W        W93102  19.032  12.227   8.641
89035W        W93103  20.023  13.042   8.075
89036W        W93104  19.698  14.134  10.430
89037W        W93105  18.347  11.695  10.393
89038W        W93106  19.109  10.975  10.195
89039W        W93107  20.803  11.363   9.082
89040W        W93108  20.452  12.234   7.652
89041W        W93109  21.022  11.668  10.743
89042W        W93110  18.388  11.460   9.868
89043W        W93111  18.487  14.079  10.889
89044W        W93112  20.009  13.469   7.621
89045W        W93113  18.441  12.252   9.314
89046W        W93114  19.334  12.143  10.551
89047W        W93115  21.793  12.002   9.050
89048W        W93116  21.557  13.045   9.909
89049W        W93117  19.865  12.378   8.936
89050W        W93118  20.411  13.717   9.305
89051W        W93119  18.911  13.151   9.537
89052W        W93120  18.270  12.679   9.108
89053W        W93121  19.306  12.651  10.300
89054W        W93122  21.577  12.434  10.554
89055W        W93123  19.193  13.878   8.999
89056W        W93124  20.314  13.567  10.133
89057W        W93125  19.534  12.207   9.358
89058W        W93126  19.826  12.991   9.001
89059W        W93127  20.823  13.764  10.849
89060W        W93128  19.902  13.084  10.859
89061W        W93129  19.883  12.800  10.337
89062W        W93130  18.292  12.191  10.859
89063W        W93131  21.124  13.726  10.458
89064W        W93132  18.705  11.308   8.456
89065W        W93133  19.232  13.566   9.455
89066W        W93134  21.695  13.349   8.745
89067W        W93135  21.108  11.749   9.312
89068W        W93136  21.393  11.702   7.407
89069W        W93137  21.858  12.503   9.713
89070W        W93138  19.825  14.210   9.466
89071W        W93139  21.599  13.676   7.904
89072W        W93140  18.728  14.462   7.658
89073W        W93141  19.121  14.508   8.334
89074W        W93142  18.918  11.262   9.760
89075W        W93143  21.541  12.280  10.035
89076W        W93144  20.946  12.702   8.494
89077W        W93145  20.912  12.390   7.521
89078W        W93146  20.120  13.534   9.661
89079W        W93147  19.926  11.864   8.860
89080W        W93148  20.526  13.951   9.854
89081W        W93149  21.397  12.742   8.276
89082W        W93150  20.299  11.400   8.292
89083W        W93151  18.956  14.094   7.975
89084W        W93152  18.327  11.593   8.574
89085W        W93153  21.113  12.200   9.048
89086W        W93154  18.571  13.817   8.963
89087W        W93155  19.912  14.167   7.833
89088W        W93156  21.304  12.193   7.297
89089W        W93157  18.327  13.951   9.461
89090W        W93158  19.118  13.523   9.941
89091W        W93159  19.491  12.883   8.560
89092W        W93160  19.513  11.288   9.653
89093W        W93161  21.742  11.050   8.950
89094W        W93162  18.961  12.922   7.418
89095W        W93163  18.616  11.955   7.597
89096W        W93164  18.678  13.911   8.391
89097W        W93165  19.809  13.394   8.639
89098W        W93166  21.141  14.253  10.353
89099W        W93167  20.067  11.895   8.037
89100W        W93168  21.450  14.293   8.809
89101W        W93169  21.127  12.146  10.407
89102W        W93170  21.840  13.802   8.541
89103W        W93171  20.467  13.094  10.025
89104W        W93172  18.233  12.645   8.231
89105W        W93173  19.344  13.060   9.804
89106W        W93174  20.548  12.324   8.182
89107W        W93175  20.425  12.814   8.286
89108W        W93176  18.768  12.234   9.760
89109W        W93177  18.753  12.110  10.682
89110W        W93178  18.643  11.027   8.841
89111W        W93179  20.411  11.374   9.402
89112W        W93180  20.059  11.559  10.565
89113W        W93181  20.414  11.708   7.743
89114W        W93182  21.597  14.101  10.497
89115W        W93183  20.564  11.182  10.536
89116W        W93184  21.583  13.483  10.658
89117W        W93185  21.013  11.650  10.254
89118W        W93186  20.813  11.588   8.524
89119W        W93187  21.206  12.722  10.928
89120W        W93188  18.946  14.298   8.914
89121W        W93189  19.604  12.015   7.900
89122W        W93190  19.173  11.299  10.564
89123W        W93191  21.225  11.783   8.245
89124W        W93192  21.592  12.265   8.190
89125W        W93193  19.335  14.482  10.661
89126W        W93194  19.261  11.018   7.896
89127W        W93195  21.582  11.552   8.931
89128W        W93196  21.732  13.801   7.376
89129W        W93197  18.639  13.004   9.078
89130W        W93198  20.556  11.591   7.308
89131W        W93199  21.690  13.923   9.028
89132W        W93200  21.729  11.117   9.778
89133W        W93201  20.174  12.329  10.332
89134W        W93202  20.267  13.668   8.035
89135W        W93203  20.667  12.962  10.775
89136W        W93204  20.341  10.939   9.084
89137W        W93205  18.953  11.842   9.147
89138W        W93206  18.507  13.042   9.921
89139W        W93207  20.366  14.235   8.627
89140W        W93208  21.560  11.832   9.499
89141W        W93209  20.197  14.179  10.266
89142W        W93210  21.540  13.238   7.471
89143W        W93211  19.975  12.721   8.532
89144W        W93212  21.827  11.232  10.273
89145W        W93213  19.976  13.067   9.867
89146W        W93214  20.193  11.953   9.312
89147W        W93215  21.045  12.251   8.150
89148W        W93216  21.332  11.984   7.792
89149W        W93217  21.141  14.024   8.181
89150W        W93218  20.975  13.627   8.977
89151W        W93219  20.871  12.706   7.955
89152W        W93220  20.304  12.916   8.941
89153W        W93221  21.185  12.704   9.008
89154W        W93222  18.560  11.719   9.432
89155W        W93223  21.338  12.771  10.259
89156W        W93224  21.689  14.389   9.405
89157W        W93225  19.619  13.833   8.807
89158W        W93226  20.626  14.366  10.131
89159W        W93227  20.620  11.696   9.895
89160W        W93228  19.827  14.404   9.956
89161W        W93229  21.524  11.358   8.422
89162W        W93230  21.315  12.677   9.723
89163W        W93231  18.298  11.998   9.761
89164W        W93232  21.158  11.793   8.779
89165W        W93233  21.569  11.944  10.556
89166W        W93234  20.454  13.643   8.774
89167W        W93235  19.710  14.234   8.387
89168W        W93236  18.825  11.414   7.645
89169W        W93237  19.929  11.068   9.455
89170W        W93238  18.957  14.188   7.303
89171W        W93239  19.331  12.654   8.054
89172W        W93240  19.985  13.283  10.367
89173W        W93241  19.815  11.641   8.357
89174W        W93242  21.171  11.238   8.785
89175W        W93243  20.891  14.520   9.113
89176W        W93244  20.303  14.168   9.453
89177W        W93245  19.699  13.205   9.414
89178W        W93246  21.469  13.928   9.540
89179W        W93247  19.163  11.431   8.309
89180W        W93248  19.685  13.728   9.269
89181W        W93249  19.168  11.659   7.334
89182W        W93250  19.969  12.268   9.728
89183W        W93251  20.817  11.134   9.598
89184W        W93252  18.237  12.977   9.483
89185W        W93253  19.941  12.795   7.641
89186W        W93254  19.209  11.110   7.411
89187W        W93255  19.947  12.191   8.462
89188W        W93256  20.917  11.167  10.161
89189W        W93257  19.505  13.179  10.270
89190W        W93258  20.309  12.961  10.487
89191W        W93259  20.926  12.991  10.380
89192W        W93260  20.210  11.131  10.885
89193W        W93261  19.432  11.747   9.278
89194W        W93262  18.858  11.703   8.676
89195W        W93263  18.644  14.415   8.352
89196W        W93264  19.976  13.745  10.477
89197W        W93265  19.011  13.230   7.836
89198W        W93266  20.691  12.615   9.057
89199W        W93267  20.971  12.414   9.456
89200W        W93268  20.176  13.088   9.390
89201W        W93269  20.646  13.462   7.522
89202W        W93270  20.318  11.483   8.850
89203W        W93271  21.797  11.761   8.118
89204W        W93272  18.291  14.350  10.149
89205W        W93273  18.708  13.576   9.681
89206W        W93274  18.275  14.422   7.913
89207W        W93275  20.174  11.692   9.719
89208W        W93276  19.537  13.715   7.568
89209W        W93277  21.442  14.097   7.754
89210W        W93278  20.417  12.750   7.768
89211W        W93279  19.260  11.941   8.285
89212W        W93280  20.092  11.851   7.337
89213W        W93281  20.676  13.416  10.515
89214W        W93282  21.029  11.322   8.132
89215W        W93283  18.359  11.170   7.580
89216W        W93284  19.645  13.489   9.870
89217W        W93285  19.444  13.405   8.962
89218W        W93286  19.186  13.357   7.360
89219W        W93287  18.427  13.598   8.128
89220W        W93288  18.931  12.668  10.570
89221W        W93289  19.635  11.228  10.756
89222W        W93290  20.344  11.370  10.112
89223W        W93291  19.539  11.138   8.393
89224W        W93292  20.598  11.215   7.898
89225W        W93293  18.543  11.147   9.475
89226W        W93294  18.591  12.110   8.845
89227W        W93295  21.280  11.218   9.251
89228W        W93296  18.702  11.716   8.065
89229W        W93297  21.273  11.404   9.681
89230W        W93298  21.669  12.607   7.366
89231W        W93299  18.961  11.365   9.185
89232W        W93300  20.075  11.937  10.125
89233W        W93301  18.223  11.627   7.603
89234W        W93302  19.009  13.016  10.164
89235W        W93303  20.367  12.414   9.343
89236W        W93304  20.234  14.493   7.639
89237W        W93305  18.380  13.000   7.336
89238W        W93306  19.115  13.411  10.462
89239W        W93307  18.636  12.578  10.093
89240W        W93308  19.627  12.683   9.887
89241W        W93309  21.395  11.042  10.149
89242W        W93310  21.793  12.652  10.140
89243W        W93311  21.781  12.852   7.826
89244W        W93312  20.644  13.184   7.925
89245W        W93313  21.118  14.484   7.620
89246W        W93314  20.295  12.474  10.762
89247W        W93315  18.625  13.441  10.802
89248W        W93316  21.831  11.363  10.754
89249W        W93317  21.549  12.291   9.375
89250W        W93318  19.857  14.421  10.852
89251W        W93319  19.712  11.050   7.579
89252W        W93320  21.251  13.649   7.522
89253W        W93321  19.020  11.742  10.408
89254W        W93322  19.454  13.736  10.270
89255W        W93323  21.580  11.727  10.068
89256W        W93324  20.791  14.386   8.036
89257W        W93325  21.030  13.005   9.403
89258W        W93326  19.280  11.421  10.070
89259W        W93327  19.749  12.490  10.827
89260W        W93328  19.252  13.669   8.021
89261W        W93329  21.007  13.167   8.285
89262W        W93330  18.775  11.793  10.009
89263W        W93331  20.104  13.855   8.473
89264W        W93332  21.854  12.415   8.654
89265W        W93333  20.076  11.048  10.373
89266W        W93334  20.856  13.753   9.452
89267W        W93335  21.159  14.097   9.160
89268W        W93336  20.378  13.899   7.588
89269W        W93337  18.388  13.791  10.430
89270W        W93338  19.131  11.783   9.668
89271W        W93339  19.101  11.131   8.778
89272W        W93340  20.722  11.973   9.470
89273W        W93341  19.520  13.144   7.670
89274W        W93342  21.518  13.086   9.169
89275W        W93343  18.845  13.844  10.592
89276W        W93344  21.232  14.526   8.389
89277W        W93345  19.331  11.546   8.834
89278W        W93346  19.100  13.039   8.924
89279W        W93347  19.413  14.450   9.674
89280W        W93348  21.480  14.546  10.706
89281W        W93349  20.639  12.734   9.639
89282W        W93350  18.488  12.532   7.554
89283W        W93351  21.622  14.190   8.251
89284W        W93352  21.459  11.514   7.870
89285W        W93353  19.598  11.033  10.273
89286W        W93354  21.304  13.835   8.731
89287W        W93355  21.333  12.391   8.636
89288W        W93356  19.450  12.064   8.852
89289W        W93357  19.695  12.326  10.176
89290W        W93358  20.806  13.479  10.039
89291W        W93359  19.456  11.933  10.151
89292W        W93360  19.435  14.399   8.767
89293W        W93361  18.752  14.358  10.401
89294W        W93362  18.864  13.719   7.531
89295W        W93363  21.381  13.477   8.341
89296W        W93364  18.985  12.269  10.227
89297W        W93365  21.758  12.199   7.708
89298W        W93366  19.503  13.256   8.179
89299W        W93367  20.602  12.638  10.260
89300W        W93368  20.493  12.266   9.804
89301W        W93369  19.053  12.638   9.833
89302W        W93370  21.263  14.526   9.662
89303W        W93371  21.054  11.160  10.656
89304W        W93372  18.718  11.310  10.243
89305W        W93373  19.057  12.333   9.296
89306W        W93374  19.426  12.147   7.418
89307W        W93375  18.229  13.906   9.963
89308W        W93376  19.814  12.615   9.406
89309W        W93377  19.637  11.640   7.511
89310W        W93378  18.772  12.456   8.292
89311W        W93379  18.543  14.308   9.729
89312W        W93380  21.338  12.534   7.837
89313W        W93381  21.433  11.450  10.523
89314W        W93382  20.869  13.659   8.486
89315W        W93383  18.467  12.583  10.663
89316W        W93384  21.433  11.047   7.959
89317W        W93385  20.953  13.522   7.970
89318W        W93386  19.855  12.580   8.055
89319W        W93387  21.042  11.384   7.578
89320W        W93388  21.107  11.991   9.764
89321W        W93389  18.816  12.584   8.971
89322W        W93390  19.110  13.523   8.620
89323W        W93391  20.873  12.143   8.585
89324W        W93392  19.896  11.522   9.281
89325W        W93393  21.858  13.433   9.792
89326W        W93394  21.776  11.420   9.353
89327W        W93395  18.315  14.250   8.729
89328W        W93396  18.824  13.437   8.265
89329W        W93397  18.739  11.054  10.818
89330W        W93398  19.858  13.907  10.920
89331W        W93399  21.613  12.875   8.710
89332W        W93400  20.967  13.052   7.590
89333W        W93401  20.262  14.573   9.802
89334W        W93402  21.119  13.295  10.839
89335W        W93403  19.934  11.005   8.119
89336W        W93404  20.647  11.874   8.978
89337W        W93405  18.333  13.461   9.310
89338W        W93406  19.586  11.423   7.951
89339W        W93407  19.390  12.907  10.800
89340W        W93408  20.384  11.888   8.514
89341W        W93409  20.589  13.298   9.636
89342W        W93410  18.743  13.903  10.071
89343W        W93411  19.334  13.886  10.794
89344W        W93412  19.185  11.683   7.808
89345W        W93413  20.702  11.825   8.133
89346W        W93414  20.660  13.933  10.370
89347W        W93415  19.345  12.525   8.969
89348W        W93416  19.000  14.223   9.834
89349W        W93417  21.745  14.340   7.435
89350W        W93418  18.608  13.012  10.431
89351W        W93419  20.603  13.274   9.119
89352W        W93420  19.039  12.923   8.361
89353W        W93421  19.410  13.930   9.756
89354W        W93422  19.788  11.349   8.797
89355W        W93423  18.399  13.333   7.727
89356W        W93424  19.918  12.284   7.597
89357W        W93425  18.564  12.833   8.616
89358W        W93426  19.854  11.475  10.080
89359W        W93427  21.526  11.184   7.507
89360W        W93428  21.619  12.930  10.606
89361W        W93429  20.273  14.187  10.758
89362W        W93430  21.831  13.281  10.280
89363W        W93431  21.239  14.079  10.891
89364W        W93432  18.978  14.535   9.369
89365W        W93433  21.837  13.157   8.243
89366W        W93434  20.367  12.424   8.756
89367W        W93435  20.134  11.036   8.646
89368W        W93436  19.193  14.020   8.483
89369W        W93437  19.692  11.761   9.708
89370W        W93438  19.392  11.130   9.177
89371W        W93439  18.455  13.952   7.725
89372W        W93440  20.271  13.316   8.443
89373W        W93441  19.146  14.111  10.322
89374W        W93442  18.623  12.934   8.018
89375W        W93443  18.508  11.477   9.017
89376W        W93444  20.056  13.442   9.074
89377W        W93445  18.308  11.296   8.094
89378W        W93446  20.972  12.502  10.021
89379W        W93447  20.849  11.888   7.593
89380W        W93448  21.366  13.560   9.241
89381W        W93449  20.027  14.044   9.072
89382W        W93450  19.439  14.148   7.983
89383W        W93451  20.721  11.051   7.413
89384W        W93452  18.521  14.311   9.154
89385W        W93453  20.718  12.069  10.789
89386W        W93454  18.701  11.599  10.788
89387W        W93455  18.432  12.199   8.121
89388W        W93456  19.123  12.188   7.846
89389W        W93457  20.886  12.515  10.663
89390W        W93458  19.229  12.796   9.372
89391W        W93459  20.703  11.082   8.492
89392W        W93460  19.834  14.513   8.995
89393W        W93461  21.048  13.975   9.932
89394W        W93462  20.632  14.124   9.043
89395W        W93463  20.651  13.104   8.637
89396W        W93464  20.113  11.329   7.708
89397W        W93465  21.794  10.957   8.430
89398W        W93466  19.482  12.592   7.593
89399W        W93467  21.648  11.929   8.583
89400W        W93468  20.340  13.099   7.460
89401W        W93469  21.276  13.299  10.208
89402W        W93470  20.930  14.000   7.675
89403W        W93471  19.545  11.675  10.581
89404W        W93472  19.365  12.259   9.822
89405W        W93473  21.457  13.754  10.099
89406W        W93474  20.557  11.704  10.476
89407W        W93475  18.401  12.175  10.253
89408W        W93476  20.161  12.652   9.979
89409W        W93477  18.518  13.410   8.636
89410W        W93478  18.665  12.707   9.526
89411W        W93479  20.982  12.993   9.876
89412W        W93480  20.754  14.373  10.687
89413W        W93481  20.650  12.112  10.240
89414W        W93482  20.927  14.166   8.645
89415W        W93483  19.929  13.886   9.968
89416W        W93484  19.414  14.241   9.237
89417W        W93485  21.219  13.412   9.656
89418W        W93486  20.269  13.484  10.793
89419W        W93487  18.874  13.437   9.132
89420W        W93488  21.220  13.196   8.777
89421W        W93489  20.861  14.262   9.528
89422W        W93490  18.839  13.991   9.398
89423W        W93491  19.860  12.043  10.608
89424W        W93492  20.311  14.209   8.119
89425W        W93493  19.619  13.464  10.757
89426W        W93494  19.745  13.702   8.134
89427W        W93495  18.966  12.442   7.393
89428W        W93496  18.305  14.528  14.292
89429W        W93497  18.681  13.421  13.815
89430W        W93498  21.386  13.151  11.585
89431W        W93499  21.516  14.236  13.612
89432W        W93500  19.434  14.227  11.138
89433W        W93501  19.517  12.379  12.121
89434W        W93502  19.032  12.227  12.285
89435W        W93503  20.023  13.042  11.719
89436W        W93504  19.698  14.134  14.074
89437W        W93505  18.347  11.695  14.037
89438W        W93506  19.109  10.975  13.839
89439W        W93507  20.803  11.363  12.726
89440W        W93508  20.452  12.234  11.296
89441W        W93509  21.022  11.668  14.387
89442W        W93510  18.388  11.460  13.512
89443W        W93511  18.487  14.079  14.533
89444W        W93512  20.009  13.469  11.265
89445W        W93513  18.441  12.252  12.958
89446W        W93514  19.334  12.143  14.195
89447W        W93515  21.793  12.002  12.694
89448W        W93516  21.557  13.045  13.553
89449W        W93517  19.865  12.378  12.580
89450W        W93518  20.411  13.717  12.949
89451W        W93519  18.911  13.151  13.181
89452W        W93520  18.270  12.679  12.752
89453W        W93521  19.306  12.651  13.944
89454W        W93522  21.577  12.434  14.198
89455W        W93523  19.193  13.878  12.643
89456W        W93524  20.314  13.567  13.777
89457W        W93525  19.534  12.207  13.002
89458W        W93526  19.826  12.991  12.645
89459W        W93527  20.823  13.764  14.493
89460W        W93528  19.902  13.084  14.503
89461W        W93529  19.883  12.800  13.981
89462W        W93530  18.292  12.191  14.503
89463W        W93531  21.124  13.726  14.102
89464W        W93532  18.705  11.308  12.100
89465W        W93533  19.232  13.566  13.099
89466W        W93534  21.695  13.349  12.389
89467W        W93535  21.108  11.749  12.956
89468W        W93536  21.393  11.702  11.051
89469W        W93537  21.858  12.503  13.357
89470W        W93538  19.825  14.210  13.110
89471W        W93539  21.599  13.676  11.548
89472W        W93540  18.728  14.462  11.302
89473W        W93541  19.121  14.508  11.978
89474W        W93542  18.918  11.262  13.404
89475W        W93543  21.541  12.280  13.679
89476W        W93544  20.946  12.702  12.138
89477W        W93545  20.912  12.390  11.165
89478W        W93546  20.120  13.534  13.305
89479W        W93547  19.926  11.864  12.504
89480W        W93548  20.526  13.951  13.498
89481W        W93549  21.397  12.742  11.920
89482W        W93550  20.299  11.400  11.936
89483W        W93551  18.956  14.094  11.619
89484W        W93552  18.327  11.593  12.218
89485W        W93553  21.113  12.200  12.692
89486W        W93554  18.571  13.817  12.607
89487W        W93555  19.912  14.167  11.477
89488W        W93556  21.304  12.193  10.941
89489W        W93557  18.327  13.951  13.105
89490W        W93558  19.118  13.523  13.585
89491W        W93559  19.491  12.883  12.204
89492W        W93560  19.513  11.288  13.297
89493W        W93561  21.742  11.050  12.594
89494W        W93562  18.961  12.922  11.062
89495W        W93563  18.616  11.955  11.241
89496W        W93564  18.678  13.911  12.035
89497W        W93565  19.809  13.394  12.283
89498W        W93566  21.141  14.253  13.997
89499W        W93567  20.067  11.895  11.681
89500W        W93568  21.450  14.293  12.453
89501W        W93569  21.127  12.146  14.051
89502W        W93570  21.840  13.802  12.185
89503W        W93571  20.467  13.094  13.669
89504W        W93572  18.233  12.645  11.875
89505W        W93573  19.344  13.060  13.448
89506W        W93574  20.548  12.324  11.826
89507W        W93575  20.425  12.814  11.930
89508W        W93576  18.768  12.234  13.404
89509W        W93577  18.753  12.110  14.326
89510W        W93578  18.643  11.027  12.485
89511W        W93579  20.411  11.374  13.046
89512W        W93580  20.059  11.559  14.209
89513W        W93581  20.414  11.708  11.387
89514W        W93582  21.597  14.101  14.141
89515W        W93583  20.564  11.182  14.180
89516W        W93584  21.583  13.483  14.302
89517W        W93585  21.013  11.650  13.898
89518W        W93586  20.813  11.588  12.168
89519W        W93587  21.206  12.722  14.572
89520W        W93588  18.946  14.298  12.558
89521W        W93589  19.604  12.015  11.544
89522W        W93590  19.173  11.299  14.208
89523W        W93591  21.225  11.783  11.889
89524W        W93592  21.592  12.265  11.834
89525W        W93593  19.335  14.482  14.305
89526W        W93594  19.261  11.018  11.540
89527W        W93595  21.582  11.552  12.575
89528W        W93596  21.732  13.801  11.020
89529W        W93597  18.639  13.004  12.722
89530W        W93598  20.556  11.591  10.952
89531W        W93599  21.690  13.923  12.672
89532W        W93600  21.729  11.117  13.422
89533W        W93601  20.174  12.329  13.976
89534W        W93602  20.267  13.668  11.679
89535W        W93603  20.667  12.962  14.419
89536W        W93604  20.341  10.939  12.728
89537W        W93605  18.953  11.842  12.791
89538W        W93606  18.507  13.042  13.565
89539W        W93607  20.366  14.235  12.271
89540W        W93608  21.560  11.832  13.143
89541W        W93609  20.197  14.179  13.910
89542W        W93610  21.540  13.238  11.115
89543W        W93611  19.975  12.721  12.176
89544W        W93612  21.827  11.232  13.917
89545W        W93613  19.976  13.067  13.511
89546W        W93614  20.193  11.953  12.956
89547W        W93615  21.045  12.251  11.794
89548W        W93616  21.332  11.984  11.436
89549W        W93617  21.141  14.024  11.825
89550W        W93618  20.975  13.627  12.621
89551W        W93619  20.871  12.706  11.599
89552W        W93620  20.304  12.916  12.585
89553W        W93621  21.185  12.704  12.652
89554W        W93622  18.560  11.719  13.076
89555W        W93623  21.338  12.771  13.903
89556W        W93624  21.689  14.389  13.049
89557W        W93625  19.619  13.833  12.451
89558W        W93626  20.626  14.366  13.775
89559W        W93627  20.620  11.696  13.539
89560W        W93628  19.827  14.404  13.600
89561W        W93629  21.524  11.358  12.066
89562W        W93630  21.315  12.677  13.367
89563W        W93631  18.298  11.998  13.405
89564W        W93632  21.158  11.793  12.423
89565W        W93633  21.569  11.944  14.200
89566W        W93634  20.454  13.643  12.418
89567W        W93635  19.710  14.234  12.031
89568W        W93636  18.825  11.414  11.289
89569W        W93637  19.929  11.068  13.099
89570W        W93638  18.957  14.188  10.947
89571W        W93639  19.331  12.654  11.698
89572W        W93640  19.985  13.283  14.011
89573W        W93641  19.815  11.641  12.001
89574W        W93642  21.171  11.238  12.429
89575W        W93643  20.891  14.520  12.757
89576W        W93644  20.303  14.168  13.097
89577W        W93645  19.699  13.205  13.058
89578W        W93646  21.469  13.928  13.184
89579W        W93647  19.163  11.431  11.953
89580W        W93648  19.685  13.728  12.913
89581W        W93649  19.168  11.659  10.978
89582W        W93650  19.969  12.268  13.372
89583W        W93651  20.817  11.134  13.242
89584W        W93652  18.237  12.977  13.127
89585W        W93653  19.941  12.795  11.285
89586W        W93654  19.209  11.110  11.055
89587W        W93655  19.947  12.191  12.106
89588W        W93656  20.917  11.167  13.805
89589W        W93657  19.505  13.179  13.914
89590W        W93658  20.309  12.961  14.131
89591W        W93659  20.926  12.991  14.024
89592W        W93660  20.210  11.131  14.529
89593W        W93661  19.432  11.747  12.922
89594W        W93662  18.858  11.703  12.320
89595W        W93663  18.644  14.415  11.996
89596W        W93664  19.976  13.745  14.121
89597W        W93665  19.011  13.230  11.480
89598W        W93666  20.691  12.615  12.701
89599W        W93667  20.971  12.414  13.100
89600W        W93668  20.176  13.088  13.034
89601W        W93669  20.646  13.462  11.166
89602W        W93670  20.318  11.483  12.494
89603W        W93671  21.797  11.761  11.762
89604W        W93672  18.291  14.350  13.793
89605W        W93673  18.708  13.576  13.325
89606W        W93674  18.275  14.422  11.557
89607W        W93675  20.174  11.692  13.363
89608W        W93676  19.537  13.715  11.212
89609W        W93677  21.442  14.097  11.398
89610W        W93678  20.417  12.750  11.412
89611W        W93679  19.260  11.941  11.929
89612W        W93680  20.092  11.851  10.981
89613W        W93681  20.676  13.416  14.159
89614W        W93682  21.029  11.322  11.776
89615W        W93683  18.359  11.170  11.224
89616W        W93684  19.645  13.489  13.514
89617W        W93685  19.444  13.405  12.606
89618W        W93686  19.186  13.357  11.004
89619W        W93687  18.427  13.598  11.772
89620W        W93688  18.931  12.668  14.214
89621W        W93689  19.635  11.228  14.400
89622W        W93690  20.344  11.370  13.756
89623W        W93691  19.539  11.138  12.037
89624W        W93692  20.598  11.215  11.542
89625W        W93693  18.543  11.147  13.119
89626W        W93694  18.591  12.110  12.489
89627W        W93695  21.280  11.218  12.895
89628W        W93696  18.702  11.716  11.709
89629W        W93697  21.273  11.404  13.325
89630W        W93698  21.669  12.607  11.010
89631W        W93699  18.961  11.365  12.829
89632W        W93700  20.075  11.937  13.769
89633W        W93701  18.223  11.627  11.247
89634W        W93702  19.009  13.016  13.808
89635W        W93703  20.367  12.414  12.987
89636W        W93704  20.234  14.493  11.283
89637W        W93705  18.380  13.000  10.980
89638W        W93706  19.115  13.411  14.106
89639W        W93707  18.636  12.578  13.737
89640W        W93708  19.627  12.683  13.531
89641W        W93709  21.395  11.042  13.793
89642W        W93710  21.793  12.652  13.784
89643W        W93711  21.781  12.852  11.470
89644W        W93712  20.644  13.184  11.569
89645W        W93713  21.118  14.484  11.264
89646W        W93714  20.295  12.474  14.406
89647W        W93715  18.625  13.441  14.446
89648W        W93716  21.831  11.363  14.398
89649W        W93717  21.549  12.291  13.019
89650W        W93718  19.857  14.421  14.496
89651W        W93719  19.712  11.050  11.223
89652W        W93720  21.251  13.649  11.166
89653W        W93721  19.020  11.742  14.052
89654W        W93722  19.454  13.736  13.914
89655W        W93723  21.580  11.727  13.712
89656W        W93724  20.791  14.386  11.680
89657W        W93725  21.030  13.005  13.047
89658W        W93726  19.280  11.421  13.714
89659W        W93727  19.749  12.490  14.471
89660W        W93728  19.252  13.669  11.665
89661W        W93729  21.007  13.167  11.929
89662W        W93730  18.775  11.793  13.653
89663W        W93731  20.104  13.855  12.117
89664W        W93732  21.854  12.415  12.298
89665W        W93733  20.076  11.048  14.017
89666W        W93734  20.856  13.753  13.096
89667W        W93735  21.159  14.097  12.804
89668W        W93736  20.378  13.899  11.232
89669W        W93737  18.388  13.791  14.074
89670W        W93738  19.131  11.783  13.312
89671W        W93739  19.101  11.131  12.422
89672W        W93740  20.722  11.973  13.114
89673W        W93741  19.520  13.144  11.314
89674W        W93742  21.518  13.086  12.813
89675W        W93743  18.845  13.844  14.236
89676W        W93744  21.232  14.526  12.033
89677W        W93745  19.331  11.546  12.478
89678W        W93746  19.100  13.039  12.568
89679W        W93747  19.413  14.450  13.318
89680W        W93748  21.480  14.546  14.350
89681W        W93749  20.639  12.734  13.283
89682W        W93750  18.488  12.532  11.198
89683W        W93751  21.622  14.190  11.895
89684W        W93752  21.459  11.514  11.514
89685W        W93753  19.598  11.033  13.917
89686W        W93754  21.304  13.835  12.375
89687W        W93755  21.333  12.391  12.280
89688W        W93756  19.450  12.064  12.496
89689W        W93757  19.695  12.326  13.820
89690W        W93758  20.806  13.479  13.683
89691W        W93759  19.456  11.933  13.795
89692W        W93760  19.435  14.399  12.411
89693W        W93761  18.752  14.358  14.045
89694W        W93762  18.864  13.719  11.175
89695W        W93763  21.381  13.477  11.985
89696W        W93764  18.985  12.269  13.871
89697W        W93765  21.758  12.199  11.352
89698W        W93766  19.503  13.256  11.823
89699W        W93767  20.602  12.638  13.904
89700W        W93768  20.493  12.266  13.448
89701W        W93769  19.053  12.638  13.477
89702W        W93770  21.263  14.526  13.306
89703W        W93771  21.054  11.160  14.300
89704W        W93772  18.718  11.310  13.887
89705W        W93773  19.057  12.333  12.940
89706W        W93774  19.426  12.147  11.062
89707W        W93775  18.229  13.906  13.607
89708W        W93776  19.814  12.615  13.050
89709W        W93777  19.637  11.640  11.155
89710W        W93778  18.772  12.456  11.936
89711W        W93779  18.543  14.308  13.373
89712W        W93780  21.338  12.534  11.481
89713W        W93781  21.433  11.450  14.167
89714W        W93782  20.869  13.659  12.130
89715W        W93783  18.467  12.583  14.307
89716W        W93784  21.433  11.047  11.603
89717W        W93785  20.953  13.522  11.614
89718W        W93786  19.855  12.580  11.699
89719W        W93787  21.042  11.384  11.222
89720W        W93788  21.107  11.991  13.408
89721W        W93789  18.816  12.584  12.615
89722W        W93790  19.110  13.523  12.264
89723W        W93791  20.873  12.143  12.229
89724W        W93792  19.896  11.522  12.925
89725W        W93793  21.858  13.433  13.436
89726W        W93794  21.776  11.420  12.997
89727W        W93795  18.315  14.250  12.373
89728W        W93796  18.824  13.437  11.909
89729W        W93797  18.739  11.054  14.462
89730W        W93798  19.858  13.907  14.564
89731W        W93799  21.613  12.875  12.354
89732W        W93800  20.967  13.052  11.234
89733W        W93801  20.262  14.573  13.446
89734W        W93802  21.119  13.295  14.483
89735W        W93803  19.934  11.005  11.763
89736W        W93804  20.647  11.874  12.622
89737W        W93805  18.333  13.461  12.954
89738W        W93806  19.586  11.423  11.595
89739W        W93807  19.390  12.907  14.444
89740W        W93808  20.384  11.888  12.158
89741W        W93809  20.589  13.298  13.280
89742W        W93810  18.743  13.903  13.715
89743W        W93811  19.334  13.886  14.438
89744W        W93812  19.185  11.683  11.452
89745W        W93813  20.702  11.825  11.777
89746W        W93814  20.660  13.933  14.014
89747W        W93815  19.345  12.525  12.613
89748W        W93816  19.000  14.223  13.478
89749W        W93817  21.745  14.340  11.079
89750W        W93818  18.608  13.012  14.075
89751W        W93819  20.603  13.274  12.763
89752W        W93820  19.039  12.923  12.005
89753W        W93821  19.410  13.930  13.400
89754W        W93822  19.788  11.349  12.441
89755W        W93823  18.399  13.333  11.371
89756W        W93824  19.918  12.284  11.241
89757W        W93825  18.564  12.833  12.260
89758W        W93826  19.854  11.475  13.724
89759W        W93827  21.526  11.184  11.151
89760W        W93828  21.619  12.930  14.250
89761W        W93829  20.273  14.187  14.402
89762W        W93830  21.831  13.281  13.924
89763W        W93831  21.239  14.079  14.535
89764W        W93832  18.978  14.535  13.013
89765W        W93833  21.837  13.157  11.887
89766W        W93834  20.367  12.424  12.400
89767W        W93835  20.134  11.036  12.290
89768W        W93836  19.193  14.020  12.127
89769W        W93837  19.692  11.761  13.352
89770W        W93838  19.392  11.130  12.821
89771W        W93839  18.455  13.952  11.369
89772W        W93840  20.271  13.316  12.087
89773W        W93841  19.146  14.111  13.966
89774W        W93842  18.623  12.934  11.662
89775W        W93843  18.508  11.477  12.661
89776W        W93844  20.056  13.442  12.718
89777W        W93845  18.308  11.296  11.738
89778W        W93846  20.972  12.502  13.665
89779W        W93847  20.849  11.888  11.237
89780W        W93848  21.366  13.560  12.885
89781W        W93849  20.027  14.044  12.716
89782W        W93850  19.439  14.148  11.627
89783W        W93851  20.721  11.051  11.057
89784W        W93852  18.521  14.311  12.798
89785W        W93853  20.718  12.069  14.433
89786W        W93854  18.701  11.599  14.432
89787W        W93855  18.432  12.199  11.765
89788W        W93856  19.123  12.188  11.490
89789W        W93857  20.886  12.515  14.307
89790W        W93858  19.229  12.796  13.016
89791W        W93859  20.703  11.082  12.136
89792W        W93860  19.834  14.513  12.639
89793W        W93861  21.048  13.975  13.576
89794W        W93862  20.632  14.124  12.687
89795W        W93863  20.651  13.104  12.281
89796W        W93864  20.113  11.329  11.352
89797W        W93865  21.794  10.957  12.074
89798W        W93866  19.482  12.592  11.237
89799W        W93867  21.648  11.929  12.227
89800W        W93868  20.340  13.099  11.104
89801W        W93869  21.276  13.299  13.852
89802W        W93870  20.930  14.000  11.319
89803W        W93871  19.545  11.675  14.225
89804W        W93872  19.365  12.259  13.466
89805W        W93873  21.457  13.754  13.743
89806W        W93874  20.557  11.704  14.120
89807W        W93875  18.401  12.175  13.897
89808W        W93876  20.161  12.652  13.623
89809W        W93877  18.518  13.410  12.280
89810W        W93878  18.665  12.707  13.170
89811W        W93879  20.982  12.993  13.520
89812W        W93880  20.754  14.373  14.331
89813W        W93881  20.650  12.112  13.884
89814W        W93882  20.927  14.166  12.289
89815W        W93883  19.929  13.886  13.612
89816W        W93884  19.414  14.241  12.881
89817W        W93885  21.219  13.412  13.300
89818W        W93886  20.269  13.484  14.437
89819W        W93887  18.874  13.437  12.776
89820W        W93888  21.220  13.196  12.421
89821W        W93889  20.861  14.262  13.172
89822W        W93890  18.839  13.991  13.042
89823W        W93891  19.860  12.043  14.252
89824W        W93892  20.311  14.209  11.763
89825W        W93893  19.619  13.464  14.401
89826W        W93894  19.745  13.702  11.778
89827W        W93895  18.966  12.442  11.037
89828W        W93896  18.305  14.528  17.936
89829W        W93897  18.681  13.421  17.459
89830W        W93898  21.386  13.151  15.229
89831W        W93899  21.516  14.236  17.256
89832W        W93900  19.434  14.227  14.782
89833W        W93901  19.517  12.379  15.765
89834W        W93902  19.032  12.227  15.929
89835W        W93903  20.023  13.042  15.363
89836W        W93904  19.698  14.134  17.718
89837W        W93905  18.347  11.695  17.681
89838W        W93906  19.109  10.975  17.483
89839W        W93907  20.803  11.363  16.370
89840W        W93908  20.452  12.234  14.940
89841W        W93909  21.022  11.668  18.031
89842W        W93910  18.388  11.460  17.156
89843W        W93911  18.487  14.079  18.177
89844W        W93912  20.009  13.469  14.909
89845W        W93913  18.441  12.252  16.602
89846W        W93914  19.334  12.143  17.839
89847W        W93915  21.793  12.002  16.338
89848W        W93916  21.557  13.045  17.197
89849W        W93917  19.865  12.378  16.224
89850W        W93918  20.411  13.717  16.593
89851W        W93919  18.911  13.151  16.825
89852W        W93920  18.270  12.679  16.396
89853W        W93921  19.306  12.651  17.588
89854W        W93922  21.577  12.434  17.842
89855W        W93923  19.193  13.878  16.287
89856W        W93924  20.314  13.567  17.421
89857W        W93925  19.534  12.207  16.646
89858W        W93926  19.826  12.991  16.289
89859W        W93927  20.823  13.764  18.137
89860W        W93928  19.902  13.084  18.147
89861W        W93929  19.883  12.800  17.625
89862W        W93930  18.292  12.191  18.147
89863W        W93931  21.124  13.726  17.746
89864W        W93932  18.705  11.308  15.744
89865W        W93933  19.232  13.566  16.743
89866W        W93934  21.695  13.349  16.033
89867W        W93935  21.108  11.749  16.600
89868W        W93936  21.393  11.702  14.695
89869W        W93937  21.858  12.503  17.001
89870W        W93938  19.825  14.210  16.754
89871W        W93939  21.599  13.676  15.192
89872W        W93940  18.728  14.462  14.946
89873W        W93941  19.121  14.508  15.622
89874W        W93942  18.918  11.262  17.048
89875W        W93943  21.541  12.280  17.323
89876W        W93944  20.946  12.702  15.782
89877W        W93945  20.912  12.390  14.809
89878W        W93946  20.120  13.534  16.949
89879W        W93947  19.926  11.864  16.148
89880W        W93948  20.526  13.951  17.142
89881W        W93949  21.397  12.742  15.564
89882W        W93950  20.299  11.400  15.580
89883W        W93951  18.956  14.094  15.263
89884W        W93952  18.327  11.593  15.862
89885W        W93953  21.113  12.200  16.336
89886W        W93954  18.571  13.817  16.251
89887W        W93955  19.912  14.167  15.121
89888W        W93956  21.304  12.193  14.585
89889W        W93957  18.327  13.951  16.749
89890W        W93958  19.118  13.523  17.229
89891W        W93959  19.491  12.883  15.848
89892W        W93960  19.513  11.288  16.941
89893W        W93961  21.742  11.050  16.238
89894W        W93962  18.961  12.922  14.706
89895W        W93963  18.616  11.955  14.885
89896W        W93964  18.678  13.911  15.679
89897W        W93965  19.809  13.394  15.927
89898W        W93966  21.141  14.253  17.641
89899W        W93967  20.067  11.895  15.325
89900W        W93968  21.450  14.293  16.097
89901W        W93969  21.127  12.146  17.695
89902W        W93970  21.840  13.802  15.829
89903W        W93971  20.467  13.094  17.313
89904W        W93972  18.233  12.645  15.519
89905W        W93973  19.344  13.060  17.092
89906W        W93974  20.548  12.324  15.470
89907W        W93975  20.425  12.814  15.574
89908W        W93976  18.768  12.234  17.048
89909W        W93977  18.753  12.110  17.970
89910W        W93978  18.643  11.027  16.129
89911W        W93979  20.411  11.374  16.690
89912W        W93980  20.059  11.559  17.853
89913W        W93981  20.414  11.708  15.031
89914W        W93982  21.597  14.101  17.785
89915W        W93983  20.564  11.182  17.824
89916W        W93984  21.583  13.483  17.946
89917W        W93985  21.013  11.650  17.542
89918W        W93986  20.813  11.588  15.812
89919W        W93987  21.206  12.722  18.216
89920W        W93988  18.946  14.298  16.202
89921W        W93989  19.604  12.015  15.188
89922W        W93990  19.173  11.299  17.852
89923W        W93991  21.225  11.783  15.533
89924W        W93992  21.592  12.265  15.478
89925W        W93993  19.335  14.482  17.949
89926W        W93994  19.261  11.018  15.184
89927W        W93995  21.582  11.552  16.219
89928W        W93996  21.732  13.801  14.664
89929W        W93997  18.639  13.004  16.366
89930W        W93998  20.556  11.591  14.596
89931W        W93999  21.690  13.923  16.316
89932W        W94000  21.729  11.117  17.066
89933W        W94001  20.174  12.329  17.620
89934W        W94002  20.267  13.668  15.323
89935W        W94003  20.667  12.962  18.063
89936W        W94004  20.341  10.939  16.372
89937W        W94005  18.953  11.842  16.435
89938W        W94006  18.507  13.042  17.209
89939W        W94007  20.366  14.235  15.915
89940W        W94008  21.560  11.832  16.787
89941W        W94009  20.197  14.179  17.554
89942W        W94010  21.540  13.238  14.759
89943W        W94011  19.975  12.721  15.820
89944W        W94012  21.827  11.232  17.561
89945W        W94013  19.976  13.067  17.155
89946W        W94014  20.193  11.953  16.600
89947W        W94015  21.045  12.251  15.438
89948W        W94016  21.332  11.984  15.080
89949W        W94017  21.141  14.024  15.469
89950W        W94018  20.975  13.627  16.265
89951W        W94019  20.871  12.706  15.243
89952W        W94020  20.304  12.916  16.229
89953W        W94021  21.185  12.704  16.296
89954W        W94022  18.560  11.719  16.720
89955W        W94023  21.338  12.771  17.547
89956W        W94024  21.689  14.389  16.693
89957W        W94025  19.619  13.833  16.095
89958W        W94026  20.626  14.366  17.419
89959W        W94027  20.620  11.696  17.183
89960W        W94028  19.827  14.404  17.244
89961W        W94029  21.524  11.358  15.710
89962W        W94030  21.315  12.677  17.011
89963W        W94031  18.298  11.998  17.049
89964W        W94032  21.158  11.793  16.067
89965W        W94033  21.569  11.944  17.844
89966W        W94034  20.454  13.643  16.062
89967W        W94035  19.710  14.234  15.675
89968W        W94036  18.825  11.414  14.933
89969W        W94037  19.929  11.068  16.743
89970W        W94038  18.957  14.188  14.591
89971W        W94039  19.331  12.654  15.342
89972W        W94040  19.985  13.283  17.655
89973W        W94041  19.815  11.641  15.645
89974W        W94042  21.171  11.238  16.073
89975W        W94043  20.891  14.520  16.401
89976W        W94044  20.303  14.168  16.741
89977W        W94045  19.699  13.205  16.702
89978W        W94046  21.469  13.928  16.828
89979W        W94047  19.163  11.431  15.597
89980W        W94048  19.685  13.728  16.557
89981W        W94049  19.168  11.659  14.622
89982W        W94050  19.969  12.268  17.016
89983W        W94051  20.817  11.134  16.886
89984W        W94052  18.237  12.977  16.771
89985W        W94053  19.941  12.795  14.929
89986W        W94054  19.209  11.110  14.699
89987W        W94055  19.947  12.191  15.750
89988W        W94056  20.917  11.167  17.449
89989W        W94057  19.505  13.179  17.558
89990W        W94058  20.309  12.961  17.775
89991W        W94059  20.926  12.991  17.668
89992W        W94060  20.210  11.131  18.173
89993W        W94061  19.432  11.747  16.566
89994W        W94062  18.858  11.703  15.964
89995W        W94063  18.644  14.415  15.640
89996W        W94064  19.976  13.745  17.765
89997W        W94065  19.011  13.230  15.124
89998W        W94066  20.691  12.615  16.345
89999W        W94067  20.971  12.414  16.744
90000W        W94068  20.176  13.088  16.678
90001W        W94069  20.646  13.462  14.810
90002W        W94070  20.318  11.483  16.138
90003W        W94071  21.797  11.761  15.406
90004W        W94072  18.291  14.350  17.437
90005W        W94073  18.708  13.576  16.969
90006W        W94074  18.275  14.422  15.201
90007W        W94075  20.174  11.692  17.007
90008W        W94076  19.537  13.715  14.856
90009W        W94077  21.442  14.097  15.042
90010W        W94078  20.417  12.750  15.056
90011W        W94079  19.260  11.941  15.573
90012W        W94080  20.092  11.851  14.625
90013W        W94081  20.676  13.416  17.803
90014W        W94082  21.029  11.322  15.420
90015W        W94083  18.359  11.170  14.868
90016W        W94084  19.645  13.489  17.158
90017W        W94085  19.444  13.405  16.250
90018W        W94086  19.186  13.357  14.648
90019W        W94087  18.427  13.598  15.416
90020W        W94088  18.931  12.668  17.858
90021W        W94089  19.635  11.228  18.044
90022W        W94090  20.344  11.370  17.400
90023W        W94091  19.539  11.138  15.681
90024W        W94092  20.598  11.215  15.186
90025W        W94093  18.543  11.147  16.763
90026W        W94094  18.591  12.110  16.133
90027W        W94095  21.280  11.218  16.539
90028W        W94096  18.702  11.716  15.353
90029W        W94097  21.273  11.404  16.969
90030W        W94098  21.669  12.607  14.654
90031W        W94099  18.961  11.365  16.473
90032W        W94100  20.075  11.937  17.413
90033W        W94101  18.223  11.627  14.891
90034W        W94102  19.009  13.016  17.452
90035W        W94103  20.367  12.414  16.631
90036W        W94104  20.234  14.493  14.927
90037W        W94105  18.380  13.000  14.624
90038W        W94106  19.115  13.411  17.750
90039W        W94107  18.636  12.578  17.381
90040W        W94108  19.627  12.683  17.175
90041W        W94109  21.395  11.042  17.437
90042W        W94110  21.793  12.652  17.428
90043W        W94111  21.781  12.852  15.114
90044W        W94112  20.644  13.184  15.213
90045W        W94113  21.118  14.484  14.908
90046W        W94114  20.295  12.474  18.050
90047W        W94115  18.625  13.441  18.090
90048W        W94116  21.831  11.363  18.042
90049W        W94117  21.549  12.291  16.663
90050W        W94118  19.857  14.421  18.140
90051W        W94119  19.712  11.050  14.867
90052W        W94120  21.251  13.649  14.810
90053W        W94121  19.020  11.742  17.696
90054W        W94122  19.454  13.736  17.558
90055W        W94123  21.580  11.727  17.356
90056W        W94124  20.791  14.386  15.324
90057W        W94125  21.030  13.005  16.691
90058W        W94126  19.280  11.421  17.358
90059W        W94127  19.749  12.490  18.115
90060W        W94128  19.252  13.669  15.309
90061W        W94129  21.007  13.167  15.573
90062W        W94130  18.775  11.793  17.297
90063W        W94131  20.104  13.855  15.761
90064W        W94132  21.854  12.415  15.942
90065W        W94133  20.076  11.048  17.661
90066W        W94134  20.856  13.753  16.740
90067W        W94135  21.159  14.097  16.448
90068W        W94136  20.378  13.899  14.876
90069W        W94137  18.388  13.791  17.718
90070W        W94138  19.131  11.783  16.956
90071W        W94139  19.101  11.131  16.066
90072W        W94140  20.722  11.973  16.758
90073W        W94141  19.520  13.144  14.958
90074W        W94142  21.518  13.086  16.457
90075W        W94143  18.845  13.844  17.880
90076W        W94144  21.232  14.526  15.677
90077W        W94145  19.331  11.546  16.122
90078W        W94146  19.100  13.039  16.212
90079W        W94147  19.413  14.450  16.962
90080W        W94148  21.480  14.546  17.994
90081W        W94149  20.639  12.734  16.927
90082W        W94150  18.488  12.532  14.842
90083W        W94151  21.622  14.190  15.539
90084W        W94152  21.459  11.514  15.158
90085W        W94153  19.598  11.033  17.561
90086W        W94154  21.304  13.835  16.019
90087W        W94155  21.333  12.391  15.924
90088W        W94156  19.450  12.064  16.140
90089W        W94157  19.695  12.326  17.464
90090W        W94158  20.806  13.479  17.327
90091W        W94159  19.456  11.933  17.439
90092W        W94160  19.435  14.399  16.055
90093W        W94161  18.752  14.358  17.689
90094W        W94162  18.864  13.719  14.819
90095W        W94163  21.381  13.477  15.629
90096W        W94164  18.985  12.269  17.515
90097W        W94165  21.758  12.199  14.996
90098W        W94166  19.503  13.256  15.467
90099W        W94167  20.602  12.638  17.548
90100W        W94168  20.493  12.266  17.092
90101W        W94169  19.053  12.638  17.121
90102W        W94170  21.263  14.526  16.950
90103W        W94171  21.054  11.160  17.944
90104W        W94172  18.718  11.310  17.531
90105W        W94173  19.057  12.333  16.584
90106W        W94174  19.426  12.147  14.706
90107W        W94175  18.229  13.906  17.251
90108W        W94176  19.814  12.615  16.694
90109W        W94177  19.637  11.640  14.799
90110W        W94178  18.772  12.456  15.580
90111W        W94179  18.543  14.308  17.017
90112W        W94180  21.338  12.534  15.125
90113W        W94181  21.433  11.450  17.811
90114W        W94182  20.869  13.659  15.774
90115W        W94183  18.467  12.583  17.951
90116W        W94184  21.433  11.047  15.247
90117W        W94185  20.953  13.522  15.258
90118W        W94186  19.855  12.580  15.343
90119W        W94187  21.042  11.384  14.866
90120W        W94188  21.107  11.991  17.052
90121W        W94189  18.816  12.584  16.259
90122W        W94190  19.110  13.523  15.908
90123W        W94191  20.873  12.143  15.873
90124W        W94192  19.896  11.522  16.569
90125W        W94193  21.858  13.433  17.080
90126W        W94194  21.776  11.420  16.641
90127W        W94195  18.315  14.250  16.017
90128W        W94196  18.824  13.437  15.553
90129W        W94197  18.739  11.054  18.106
90130W        W94198  19.858  13.907  18.208
90131W        W94199  21.613  12.875  15.998
90132W        W94200  20.967  13.052  14.878
90133W        W94201  20.262  14.573  17.090
90134W        W94202  21.119  13.295  18.127
90135W        W94203  19.934  11.005  15.407
90136W        W94204  20.647  11.874  16.266
90137W        W94205  18.333  13.461  16.598
90138W        W94206  19.586  11.423  15.239
90139W        W94207  19.390  12.907  18.088
90140W        W94208  20.384  11.888  15.802
90141W        W94209  20.589  13.298  16.924
90142W        W94210  18.743  13.903  17.359
90143W        W94211  19.334  13.886  18.082
90144W        W94212  19.185  11.683  15.096
90145W        W94213  20.702  11.825  15.421
90146W        W94214  20.660  13.933  17.658
90147W        W94215  19.345  12.525  16.257
90148W        W94216  19.000  14.223  17.122
90149W        W94217  21.745  14.340  14.723
90150W        W94218  18.608  13.012  17.719
90151W        W94219  20.603  13.274  16.407
90152W        W94220  19.039  12.923  15.649
90153W        W94221  19.410  13.930  17.044
90154W        W94222  19.788  11.349  16.085
90155W        W94223  18.399  13.333  15.015
90156W        W94224  19.918  12.284  14.885
90157W        W94225  18.564  12.833  15.904
90158W        W94226  19.854  11.475  17.368
90159W        W94227  21.526  11.184  14.795
90160W        W94228  21.619  12.930  17.894
90161W        W94229  20.273  14.187  18.046
90162W        W94230  21.831  13.281  17.568
90163W        W94231  21.239  14.079  18.179
90164W        W94232  18.978  14.535  16.657
90165W        W94233  21.837  13.157  15.531
90166W        W94234  20.367  12.424  16.044
90167W        W94235  20.134  11.036  15.934
90168W        W94236  19.193  14.020  15.771
90169W        W94237  19.692  11.761  16.996
90170W        W94238  19.392  11.130  16.465
90171W        W94239  18.455  13.952  15.013
90172W        W94240  20.271  13.316  15.731
90173W        W94241  19.146  14.111  17.610
90174W        W94242  18.623  12.934  15.306
90175W        W94243  18.508  11.477  16.305
90176W        W94244  20.056  13.442  16.362
90177W        W94245  18.308  11.296  15.382
90178W        W94246  20.972  12.502  17.309
90179W        W94247  20.849  11.888  14.881
90180W        W94248  21.366  13.560  16.529
90181W        W94249  20.027  14.044  16.360
90182W        W94250  19.439  14.148  15.271
90183W        W94251  20.721  11.051  14.701
90184W        W94252  18.521  14.311  16.442
90185W        W94253  20.718  12.069  18.077
90186W        W94254  18.701  11.599  18.076
90187W        W94255  18.432  12.199  15.409
90188W        W94256  19.123  12.188  15.134
90189W        W94257  20.886  12.515  17.951
90190W        W94258  19.229  12.796  16.660
90191W        W94259  20.703  11.082  15.780
90192W        W94260  19.834  14.513  16.283
90193W        W94261  21.048  13.975  17.220
90194W        W94262  20.632  14.124  16.331
90195W        W94263  20.651  13.104  15.925
90196W        W94264  20.113  11.329  14.996
90197W        W94265  21.794  10.957  15.718
90198W        W94266  19.482  12.592  14.881
90199W        W94267  21.648  11.929  15.871
90200W        W94268  20.340  13.099  14.748
90201W        W94269  21.276  13.299  17.496
90202W        W94270  20.930  14.000  14.963
90203W        W94271  19.545  11.675  17.869
90204W        W94272  19.365  12.259  17.110
90205W        W94273  21.457  13.754  17.387
90206W        W94274  20.557  11.704  17.764
90207W        W94275  18.401  12.175  17.541
90208W        W94276  20.161  12.652  17.267
90209W        W94277  18.518  13.410  15.924
90210W        W94278  18.665  12.707  16.814
90211W        W94279  20.982  12.993  17.164
90212W        W94280  20.754  14.373  17.975
90213W        W94281  20.650  12.112  17.528
90214W        W94282  20.927  14.166  15.933
90215W        W94283  19.929  13.886  17.256
90216W        W94284  19.414  14.241  16.525
90217W        W94285  21.219  13.412  16.944
90218W        W94286  20.269  13.484  18.081
90219W        W94287  18.874  13.437  16.420
90220W        W94288  21.220  13.196  16.065
90221W        W94289  20.861  14.262  16.816
90222W        W94290  18.839  13.991  16.686
90223W        W94291  19.860  12.043  17.896
90224W        W94292  20.311  14.209  15.407
90225W        W94293  19.619  13.464  18.045
90226W        W94294  19.745  13.702  15.422
90227W        W94295  18.966  12.442  14.681
90228W        W94296  18.305  14.528  21.580
90229W        W94297  18.681  13.421  21.103
90230W        W94298  21.386  13.151  18.873
90231W        W94299  21.516  14.236  20.900
90232W        W94300  19.434  14.227  18.426
90233W        W94301  19.517  12.379  19.409
90234W        W94302  19.032  12.227  19.573
90235W        W94303  20.023  13.042  19.007
90236W        W94304  19.698  14.134  21.362
90237W        W94305  18.347  11.695  21.325
90238W        W94306  19.109  10.975  21.127
90239W        W94307  20.803  11.363  20.014
90240W        W94308  20.452  12.234  18.584
90241W        W94309  21.022  11.668  21.675
90242W        W94310  18.388  11.460  20.800
90243W        W94311  18.487  14.079  21.821
90244W        W94312  20.009  13.469  18.553
90245W        W94313  18.441  12.252  20.246
90246W        W94314  19.334  12.143  21.483
90247W        W94315  21.793  12.002  19.982
90248W        W94316  21.557  13.045  20.841
90249W        W94317  19.865  12.378  19.868
90250W        W94318  20.411  13.717  20.237
90251W        W94319  18.911  13.151  20.469
90252W        W94320  18.270  12.679  20.040
90253W        W94321  19.306  12.651  21.232
90254W        W94322  21.577  12.434  21.486
90255W        W94323  19.193  13.878  19.931
90256W        W94324  20.314  13.567  21.065
90257W        W94325  19.534  12.207  20.290
90258W        W94326  19.826  12.991  19.933
90259W        W94327  20.823  13.764  21.781
90260W        W94328  19.902  13.084  21.791
90261W        W94329  19.883  12.800  21.269
90262W        W94330  18.292  12.191  21.791
90263W        W94331  21.124  13.726  21.390
90264W        W94332  18.705  11.308  19.388
90265W        W94333  19.232  13.566  20.387
90266W        W94334  21.695  13.349  19.677
90267W        W94335  21.108  11.749  20.244
90268W        W94336  21.393  11.702  18.339
90269W        W94337  21.858  12.503  20.645
90270W        W94338  19.825  14.210  20.398
90271W        W94339  21.599  13.676  18.836
90272W        W94340  18.728  14.462  18.590
90273W        W94341  19.121  14.508  19.266
90274W        W94342  18.918  11.262  20.692
90275W        W94343  21.541  12.280  20.967
90276W        W94344  20.946  12.702  19.426
90277W        W94345  20.912  12.390  18.453
90278W        W94346  20.120  13.534  20.593
90279W        W94347  19.926  11.864  19.792
90280W        W94348  20.526  13.951  20.786
90281W        W94349  21.397  12.742  19.208
90282W        W94350  20.299  11.400  19.224
90283W        W94351  18.956  14.094  18.907
90284W        W94352  18.327  11.593  19.506
90285W        W94353  21.113  12.200  19.980
90286W        W94354  18.571  13.817  19.895
90287W        W94355  19.912  14.167  18.765
90288W        W94356  21.304  12.193  18.229
90289W        W94357  18.327  13.951  20.393
90290W        W94358  19.118  13.523  20.873
90291W        W94359  19.491  12.883  19.492
90292W        W94360  19.513  11.288  20.585
90293W        W94361  21.742  11.050  19.882
90294W        W94362  18.961  12.922  18.350
90295W        W94363  18.616  11.955  18.529
90296W        W94364  18.678  13.911  19.323
90297W        W94365  19.809  13.394  19.571
90298W        W94366  21.141  14.253  21.285
90299W        W94367  20.067  11.895  18.969
90300W        W94368  21.450  14.293  19.741
90301W        W94369  21.127  12.146  21.339
90302W        W94370  21.840  13.802  19.473
90303W        W94371  20.467  13.094  20.957
90304W        W94372  18.233  12.645  19.163
90305W        W94373  19.344  13.060  20.736
90306W        W94374  20.548  12.324  19.114
90307W        W94375  20.425  12.814  19.218
90308W        W94376  18.768  12.234  20.692
90309W        W94377  18.753  12.110  21.614
90310W        W94378  18.643  11.027  19.773
90311W        W94379  20.411  11.374  20.334
90312W        W94380  20.059  11.559  21.497
90313W        W94381  20.414  11.708  18.675
90314W        W94382  21.597  14.101  21.429
90315W        W94383  20.564  11.182  21.468
90316W        W94384  21.583  13.483  21.590
90317W        W94385  21.013  11.650  21.186
90318W        W94386  20.813  11.588  19.456
90319W        W94387  21.206  12.722  21.860
90320W        W94388  18.946  14.298  19.846
90321W        W94389  19.604  12.015  18.832
90322W        W94390  19.173  11.299  21.496
90323W        W94391  21.225  11.783  19.177
90324W        W94392  21.592  12.265  19.122
90325W        W94393  19.335  14.482  21.593
90326W        W94394  19.261  11.018  18.828
90327W        W94395  21.582  11.552  19.863
90328W        W94396  21.732  13.801  18.308
90329W        W94397  18.639  13.004  20.010
90330W        W94398  20.556  11.591  18.240
90331W        W94399  21.690  13.923  19.960
90332W        W94400  21.729  11.117  20.710
90333W        W94401  20.174  12.329  21.264
90334W        W94402  20.267  13.668  18.967
90335W        W94403  20.667  12.962  21.707
90336W        W94404  20.341  10.939  20.016
90337W        W94405  18.953  11.842  20.079
90338W        W94406  18.507  13.042  20.853
90339W        W94407  20.366  14.235  19.559
90340W        W94408  21.560  11.832  20.431
90341W        W94409  20.197  14.179  21.198
90342W        W94410  21.540  13.238  18.403
90343W        W94411  19.975  12.721  19.464
90344W        W94412  21.827  11.232  21.205
90345W        W94413  19.976  13.067  20.799
90346W        W94414  20.193  11.953  20.244
90347W        W94415  21.045  12.251  19.082
90348W        W94416  21.332  11.984  18.724
90349W        W94417  21.141  14.024  19.113
90350W        W94418  20.975  13.627  19.909
90351W        W94419  20.871  12.706  18.887
90352W        W94420  20.304  12.916  19.873
90353W        W94421  21.185  12.704  19.940
90354W        W94422  18.560  11.719  20.364
90355W        W94423  21.338  12.771  21.191
90356W        W94424  21.689  14.389  20.337
90357W        W94425  19.619  13.833  19.739
90358W        W94426  20.626  14.366  21.063
90359W        W94427  20.620  11.696  20.827
90360W        W94428  19.827  14.404  20.888
90361W        W94429  21.524  11.358  19.354
90362W        W94430  21.315  12.677  20.655
90363W        W94431  18.298  11.998  20.693
90364W        W94432  21.158  11.793  19.711
90365W        W94433  21.569  11.944  21.488
90366W        W94434  20.454  13.643  19.706
90367W        W94435  19.710  14.234  19.319
90368W        W94436  18.825  11.414  18.577
90369W        W94437  19.929  11.068  20.387
90370W        W94438  18.957  14.188  18.235
90371W        W94439  19.331  12.654  18.986
90372W        W94440  19.985  13.283  21.299
90373W        W94441  19.815  11.641  19.289
90374W        W94442  21.171  11.238  19.717
90375W        W94443  20.891  14.520  20.045
90376W        W94444  20.303  14.168  20.385
90377W        W94445  19.699  13.205  20.346
90378W        W94446  21.469  13.928  20.472
90379W        W94447  19.163  11.431  19.241
90380W        W94448  19.685  13.728  20.201
90381W        W94449  19.168  11.659  18.266
90382W        W94450  19.969  12.268  20.660
90383W        W94451  20.817  11.134  20.530
90384W        W94452  18.237  12.977  20.415
90385W        W94453  19.941  12.795  18.573
90386W        W94454  19.209  11.110  18.343
90387W        W94455  19.947  12.191  19.394
90388W        W94456  20.917  11.167  21.093
90389W        W94457  19.505  13.179  21.202
90390W        W94458  20.309  12.961  21.419
90391W        W94459  20.926  12.991  21.312
90392W        W94460  20.210  11.131  21.817
90393W        W94461  19.432  11.747  20.210
90394W        W94462  18.858  11.703  19.608
90395W        W94463  18.644  14.415  19.284
90396W        W94464  19.976  13.745  21.409
90397W        W94465  19.011  13.230  18.768
90398W        W94466  20.691  12.615  19.989
90399W        W94467  20.971  12.414  20.388
90400W        W94468  20.176  13.088  20.322
90401W        W94469  20.646  13.462  18.454
90402W        W94470  20.318  11.483  19.782
90403W        W94471  21.797  11.761  19.050
90404W        W94472  18.291  14.350  21.081
90405W        W94473  18.708  13.576  20.613
90406W        W94474  18.275  14.422  18.845
90407W        W94475  20.174  11.692  20.651
90408W        W94476  19.537  13.715  18.500
90409W        W94477  21.442  14.097  18.686
90410W        W94478  20.417  12.750  18.700
90411W        W94479  19.260  11.941  19.217
90412W        W94480  20.092  11.851  18.269
90413W        W94481  20.676  13.416  21.447
90414W        W94482  21.029  11.322  19.064
90415W        W94483  18.359  11.170  18.512
90416W        W94484  19.645  13.489  20.802
90417W        W94485  19.444  13.405  19.894
90418W        W94486  19.186  13.357  18.292
90419W        W94487  18.427  13.598  19.060
90420W        W94488  18.931  12.668  21.502
90421W        W94489  19.635  11.228  21.688
90422W        W94490  20.344  11.370  21.044
90423W        W94491  19.539  11.138  19.325
90424W        W94492  20.598  11.215  18.830
90425W        W94493  18.543  11.147  20.407
90426W        W94494  18.591  12.110  19.777
90427W        W94495  21.280  11.218  20.183
90428W        W94496  18.702  11.716  18.997
90429W        W94497  21.273  11.404  20.613
90430W        W94498  21.669  12.607  18.298
90431W        W94499  18.961  11.365  20.117
90432W        W94500  20.075  11.937  21.057
90433W        W94501  18.223  11.627  18.535
90434W        W94502  19.009  13.016  21.096
90435W        W94503  20.367  12.414  20.275
90436W        W94504  20.234  14.493  18.571
90437W        W94505  18.380  13.000  18.268
90438W        W94506  19.115  13.411  21.394
90439W        W94507  18.636  12.578  21.025
90440W        W94508  19.627  12.683  20.819
90441W        W94509  21.395  11.042  21.081
90442W        W94510  21.793  12.652  21.072
90443W        W94511  21.781  12.852  18.758
90444W        W94512  20.644  13.184  18.857
90445W        W94513  21.118  14.484  18.552
90446W        W94514  20.295  12.474  21.694
90447W        W94515  18.625  13.441  21.734
90448W        W94516  21.831  11.363  21.686
90449W        W94517  21.549  12.291  20.307
90450W        W94518  19.857  14.421  21.784
90451W        W94519  19.712  11.050  18.511
90452W        W94520  21.251  13.649  18.454
90453W        W94521  19.020  11.742  21.340
90454W        W94522  19.454  13.736  21.202
90455W        W94523  21.580  11.727  21.000
90456W        W94524  20.791  14.386  18.968
90457W        W94525  21.030  13.005  20.335
90458W        W94526  19.280  11.421  21.002
90459W        W94527  19.749  12.490  21.759
90460W        W94528  19.252  13.669  18.953
90461W        W94529  21.007  13.167  19.217
90462W        W94530  18.775  11.793  20.941
90463W        W94531  20.104  13.855  19.405
90464W        W94532  21.854  12.415  19.586
90465W        W94533  20.076  11.048  21.305
90466W        W94534  20.856  13.753  20.384
90467W        W94535  21.159  14.097  20.092
90468W        W94536  20.378  13.899  18.520
90469W        W94537  18.388  13.791  21.362
90470W        W94538  19.131  11.783  20.600
90471W        W94539  19.101  11.131  19.710
90472W        W94540  20.722  11.973  20.402
90473W        W94541  19.520  13.144  18.602
90474W        W94542  21.518  13.086  20.101
90475W        W94543  18.845  13.844  21.524
90476W        W94544  21.232  14.526  19.321
90477W        W94545  19.331  11.546  19.766
90478W        W94546  19.100  13.039  19.856
90479W        W94547  19.413  14.450  20.606
90480W        W94548  21.480  14.546  21.638
90481W        W94549  20.639  12.734  20.571
90482W        W94550  18.488  12.532  18.486
90483W        W94551  21.622  14.190  19.183
90484W        W94552  21.459  11.514  18.802
90485W        W94553  19.598  11.033  21.205
90486W        W94554  21.304  13.835  19.663
90487W        W94555  21.333  12.391  19.568
90488W        W94556  19.450  12.064  19.784
90489W        W94557  19.695  12.326  21.108
90490W        W94558  20.806  13.479  20.971
90491W        W94559  19.456  11.933  21.083
90492W        W94560  19.435  14.399  19.699
90493W        W94561  18.752  14.358  21.333
90494W        W94562  18.864  13.719  18.463
90495W        W94563  21.381  13.477  19.273
90496W        W94564  18.985  12.269  21.159
90497W        W94565  21.758  12.199  18.640
90498W        W94566  19.503  13.256  19.111
90499W        W94567  20.602  12.638  21.192
90500W        W94568  20.493  12.266  20.736
90501W        W94569  19.053  12.638  20.765
90502W        W94570  21.263  14.526  20.594
90503W        W94571  21.054  11.160  21.588
90504W        W94572  18.718  11.310  21.175
90505W        W94573  19.057  12.333  20.228
90506W        W94574  19.426  12.147  18.350
90507W        W94575  18.229  13.906  20.895
90508W        W94576  19.814  12.615  20.338
90509W        W94577  19.637  11.640  18.443
90510W        W94578  18.772  12.456  19.224
90511W        W94579  18.543  14.308  20.661
90512W        W94580  21.338  12.534  18.769
90513W        W94581  21.433  11.450  21.455
90514W        W94582  20.869  13.659  19.418
90515W        W94583  18.467  12.583  21.595
90516W        W94584  21.433  11.047  18.891
90517W        W94585  20.953  13.522  18.902
90518W        W94586  19.855  12.580  18.987
90519W        W94587  21.042  11.384  18.510
90520W        W94588  21.107  11.991  20.696
90521W        W94589  18.816  12.584  19.903
90522W        W94590  19.110  13.523  19.552
90523W        W94591  20.873  12.143  19.517
90524W        W94592  19.896  11.522  20.213
90525W        W94593  21.858  13.433  20.724
90526W        W94594  21.776  11.420  20.285
90527W        W94595  18.315  14.250  19.661
90528W        W94596  18.824  13.437  19.197
90529W        W94597  18.739  11.054  21.750
90530W        W94598  19.858  13.907  21.852
90531W        W94599  21.613  12.875  19.642
90532W        W94600  20.967  13.052  18.522
90533W        W94601  20.262  14.573  20.734
90534W        W94602  21.119  13.295  21.771
90535W        W94603  19.934  11.005  19.051
90536W        W94604  20.647  11.874  19.910
90537W        W94605  18.333  13.461  20.242
90538W        W94606  19.586  11.423  18.883
90539W        W94607  19.390  12.907  21.732
90540W        W94608  20.384  11.888  19.446
90541W        W94609  20.589  13.298  20.568
90542W        W94610  18.743  13.903  21.003
90543W        W94611  19.334  13.886  21.726
90544W        W94612  19.185  11.683  18.740
90545W        W94613  20.702  11.825  19.065
90546W        W94614  20.660  13.933  21.302
90547W        W94615  19.345  12.525  19.901
90548W        W94616  19.000  14.223  20.766
90549W        W94617  21.745  14.340  18.367
90550W        W94618  18.608  13.012  21.363
90551W        W94619  20.603  13.274  20.051
90552W        W94620  19.039  12.923  19.293
90553W        W94621  19.410  13.930  20.688
90554W        W94622  19.788  11.349  19.729
90555W        W94623  18.399  13.333  18.659
90556W        W94624  19.918  12.284  18.529
90557W        W94625  18.564  12.833  19.548
90558W        W94626  19.854  11.475  21.012
90559W        W94627  21.526  11.184  18.439
90560W        W94628  21.619  12.930  21.538
90561W        W94629  20.273  14.187  21.690
90562W        W94630  21.831  13.281  21.212
90563W        W94631  21.239  14.079  21.823
90564W        W94632  18.978  14.535  20.301
90565W        W94633  21.837  13.157  19.175
90566W        W94634  20.367  12.424  19.688
90567W        W94635  20.134  11.036  19.578
90568W        W94636  19.193  14.020  19.415
90569W        W94637  19.692  11.761  20.640
90570W        W94638  19.392  11.130  20.109
90571W        W94639  18.455  13.952  18.657
90572W        W94640  20.271  13.316  19.375
90573W        W94641  19.146  14.111  21.254
90574W        W94642  18.623  12.934  18.950
90575W        W94643  18.508  11.477  19.949
90576W        W94644  20.056  13.442  20.006
90577W        W94645  18.308  11.296  19.026
90578W        W94646  20.972  12.502  20.953
90579W        W94647  20.849  11.888  18.525
90580W        W94648  21.366  13.560  20.173
90581W        W94649  20.027  14.044  20.004
90582W        W94650  19.439  14.148  18.915
90583W        W94651  20.721  11.051  18.345
90584W        W94652  18.521  14.311  20.086
90585W        W94653  20.718  12.069  21.721
90586W        W94654  18.701  11.599  21.720
90587W        W94655  18.432  12.199  19.053
90588W        W94656  19.123  12.188  18.778
90589W        W94657  20.886  12.515  21.595
90590W        W94658  19.229  12.796  20.304
90591W        W94659  20.703  11.082  19.424
90592W        W94660  19.834  14.513  19.927
90593W        W94661  21.048  13.975  20.864
90594W        W94662  20.632  14.124  19.975
90595W        W94663  20.651  13.104  19.569
90596W        W94664  20.113  11.329  18.640
90597W        W94665  21.794  10.957  19.362
90598W        W94666  19.482  12.592  18.525
90599W        W94667  21.648  11.929  19.515
90600W        W94668  20.340  13.099  18.392
90601W        W94669  21.276  13.299  21.140
90602W        W94670  20.930  14.000  18.607
90603W        W94671  19.545  11.675  21.513
90604W        W94672  19.365  12.259  20.754
90605W        W94673  21.457  13.754  21.031
90606W        W94674  20.557  11.704  21.408
90607W        W94675  18.401  12.175  21.185
90608W        W94676  20.161  12.652  20.911
90609W        W94677  18.518  13.410  19.568
90610W        W94678  18.665  12.707  20.458
90611W        W94679  20.982  12.993  20.808
90612W        W94680  20.754  14.373  21.619
90613W        W94681  20.650  12.112  21.172
90614W        W94682  20.927  14.166  19.577
90615W        W94683  19.929  13.886  20.900
90616W        W94684  19.414  14.241  20.169
90617W        W94685  21.219  13.412  20.588
90618W        W94686  20.269  13.484  21.725
90619W        W94687  18.874  13.437  20.064
90620W        W94688  21.220  13.196  19.709
90621W        W94689  20.861  14.262  20.460
90622W        W94690  18.839  13.991  20.330
90623W        W94691  19.860  12.043  21.540
90624W        W94692  20.311  14.209  19.051
90625W        W94693  19.619  13.464  21.689
90626W        W94694  19.745  13.702  19.066
90627W        W94695  18.966  12.442  18.325
90628W        W94696  21.386  13.151  22.518
90629W        W94697  19.434  14.227  22.071
90630W        W94698  19.517  12.379  23.054
90631W        W94699  19.032  12.227  23.218
90632W        W94700  20.023  13.042  22.652
90633W        W94701  20.452  12.234  22.229
90634W        W94702  20.009  13.469  22.198
90635W        W94703  18.705  11.308  23.033
90636W        W94704  21.393  11.702  21.984
90637W        W94705  21.599  13.676  22.481
90638W        W94706  18.728  14.462  22.235
90639W        W94707  19.121  14.508  22.911
90640W        W94708  20.946  12.702  23.071
90641W        W94709  20.912  12.390  22.098
90642W        W94710  21.397  12.742  22.853
90643W        W94711  20.299  11.400  22.869
90644W        W94712  18.956  14.094  22.552
90645W        W94713  19.912  14.167  22.410
90646W        W94714  21.304  12.193  21.874
90647W        W94715  19.491  12.883  23.137
90648W        W94716  18.961  12.922  21.995
90649W        W94717  18.616  11.955  22.174
90650W        W94718  18.678  13.911  22.968
90651W        W94719  19.809  13.394  23.216
90652W        W94720  20.067  11.895  22.614
90653W        W94721  18.233  12.645  22.808
90654W        W94722  20.548  12.324  22.759
90655W        W94723  20.425  12.814  22.863
90656W        W94724  20.414  11.708  22.320
90657W        W94725  20.813  11.588  23.101
90658W        W94726  19.604  12.015  22.477
90659W        W94727  21.225  11.783  22.822
90660W        W94728  21.592  12.265  22.767
90661W        W94729  19.261  11.018  22.473
90662W        W94730  21.732  13.801  21.953
90663W        W94731  20.556  11.591  21.885
90664W        W94732  20.267  13.668  22.612
90665W        W94733  20.366  14.235  23.204
90666W        W94734  21.540  13.238  22.048
90667W        W94735  19.975  12.721  23.109
90668W        W94736  21.045  12.251  22.727
90669W        W94737  21.332  11.984  22.369
90670W        W94738  21.141  14.024  22.758
90671W        W94739  20.871  12.706  22.532
90672W        W94740  21.524  11.358  22.999
90673W        W94741  19.710  14.234  22.964
90674W        W94742  18.825  11.414  22.222
90675W        W94743  18.957  14.188  21.880
90676W        W94744  19.331  12.654  22.631
90677W        W94745  19.815  11.641  22.934
90678W        W94746  19.163  11.431  22.886
90679W        W94747  19.168  11.659  21.911
90680W        W94748  19.941  12.795  22.218
90681W        W94749  19.209  11.110  21.988
90682W        W94750  19.947  12.191  23.039
90683W        W94751  18.858  11.703  23.253
90684W        W94752  18.644  14.415  22.929
90685W        W94753  19.011  13.230  22.413
90686W        W94754  20.646  13.462  22.099
90687W        W94755  21.797  11.761  22.695
90688W        W94756  18.275  14.422  22.490
90689W        W94757  19.537  13.715  22.145
90690W        W94758  21.442  14.097  22.331
90691W        W94759  20.417  12.750  22.345
90692W        W94760  19.260  11.941  22.862
90693W        W94761  20.092  11.851  21.914
90694W        W94762  21.029  11.322  22.709
90695W        W94763  18.359  11.170  22.157
90696W        W94764  19.186  13.357  21.937
90697W        W94765  18.427  13.598  22.705
90698W        W94766  19.539  11.138  22.970
90699W        W94767  20.598  11.215  22.475
90700W        W94768  18.702  11.716  22.642
90701W        W94769  21.669  12.607  21.943
90702W        W94770  18.223  11.627  22.180
90703W        W94771  20.234  14.493  22.216
90704W        W94772  18.380  13.000  21.913
90705W        W94773  21.781  12.852  22.403
90706W        W94774  20.644  13.184  22.502
90707W        W94775  21.118  14.484  22.197
90708W        W94776  19.712  11.050  22.156
90709W        W94777  21.251  13.649  22.099
90710W        W94778  20.791  14.386  22.613
90711W        W94779  19.252  13.669  22.598
90712W        W94780  21.007  13.167  22.862
90713W        W94781  20.104  13.855  23.050
90714W        W94782  21.854  12.415  23.231
90715W        W94783  20.378  13.899  22.165
90716W        W94784  19.520  13.144  22.247
90717W        W94785  21.232  14.526  22.966
90718W        W94786  18.488  12.532  22.131
90719W        W94787  21.622  14.190  22.828
90720W        W94788  21.459  11.514  22.447
90721W        W94789  21.333  12.391  23.213
90722W        W94790  18.864  13.719  22.108
90723W        W94791  21.381  13.477  22.918
90724W        W94792  21.758  12.199  22.285
90725W        W94793  19.503  13.256  22.756
90726W        W94794  19.426  12.147  21.995
90727W        W94795  19.637  11.640  22.088
90728W        W94796  18.772  12.456  22.869
90729W        W94797  21.338  12.534  22.414
90730W        W94798  20.869  13.659  23.063
90731W        W94799  21.433  11.047  22.536
90732W        W94800  20.953  13.522  22.547
90733W        W94801  19.855  12.580  22.632
90734W        W94802  21.042  11.384  22.155
90735W        W94803  19.110  13.523  23.197
90736W        W94804  20.873  12.143  23.162
90737W        W94805  18.315  14.250  23.306
90738W        W94806  18.824  13.437  22.842
90739W        W94807  21.613  12.875  23.287
90740W        W94808  20.967  13.052  22.167
90741W        W94809  19.934  11.005  22.696
90742W        W94810  19.586  11.423  22.528
90743W        W94811  20.384  11.888  23.091
90744W        W94812  19.185  11.683  22.385
90745W        W94813  20.702  11.825  22.710
90746W        W94814  21.745  14.340  22.012
90747W        W94815  18.399  13.333  22.304
90748W        W94816  19.918  12.284  22.174
90749W        W94817  18.564  12.833  23.193
90750W        W94818  21.526  11.184  22.084
90751W        W94819  21.837  13.157  22.820
90752W        W94820  20.134  11.036  23.223
90753W        W94821  19.193  14.020  23.060
90754W        W94822  18.455  13.952  22.302
90755W        W94823  20.271  13.316  23.020
90756W        W94824  18.623  12.934  22.595
90757W        W94825  18.308  11.296  22.671
90758W        W94826  20.849  11.888  22.170
90759W        W94827  19.439  14.148  22.560
90760W        W94828  20.721  11.051  21.990
90761W        W94829  18.432  12.199  22.698
90762W        W94830  19.123  12.188  22.423
90763W        W94831  20.651  13.104  23.214
90764W        W94832  20.113  11.329  22.285
90765W        W94833  21.794  10.957  23.007
90766W        W94834  19.482  12.592  22.170
90767W        W94835  21.648  11.929  23.160
90768W        W94836  20.340  13.099  22.037
90769W        W94837  20.930  14.000  22.252
90770W        W94838  18.518  13.410  23.213
90771W        W94839  20.927  14.166  23.222
90772W        W94840  20.311  14.209  22.696
90773W        W94841  19.745  13.702  22.711
90774W        W94842  18.966  12.442  21.970
90775W        W94843  18.305  18.172   3.359
90776W        W94844  18.681  17.065   2.882
90777W        W94845  21.386  16.795   0.652
90778W        W94846  21.516  17.880   2.679
90779W        W94847  19.434  17.871   0.205
90780W        W94848  19.517  16.023   1.188
90781W        W94849  19.032  15.871   1.352
90782W        W94850  20.023  16.686   0.786
90783W        W94851  19.698  17.778   3.141
90784W        W94852  18.347  15.339   3.104
90785W        W94853  19.109  14.619   2.906
90786W        W94854  20.803  15.007   1.793
90787W        W94855  20.452  15.878   0.363
90788W        W94856  21.022  15.312   3.454
90789W        W94857  18.388  15.104   2.579
90790W        W94858  18.487  17.723   3.600
90791W        W94859  20.009  17.113   0.332
90792W        W94860  18.441  15.896   2.025
90793W        W94861  19.334  15.787   3.262
90794W        W94862  21.793  15.646   1.761
90795W        W94863  21.557  16.689   2.620
90796W        W94864  19.865  16.022   1.647
90797W        W94865  20.411  17.361   2.016
90798W        W94866  18.911  16.795   2.248
90799W        W94867  18.270  16.323   1.819
90800W        W94868  19.306  16.295   3.011
90801W        W94869  21.577  16.078   3.265
90802W        W94870  19.193  17.522   1.710
90803W        W94871  20.314  17.211   2.844
90804W        W94872  19.534  15.851   2.069
90805W        W94873  19.826  16.635   1.712
90806W        W94874  20.823  17.408   3.560
90807W        W94875  19.902  16.728   3.570
90808W        W94876  19.883  16.444   3.048
90809W        W94877  18.292  15.835   3.570
90810W        W94878  21.124  17.370   3.169
90811W        W94879  18.705  14.952   1.167
90812W        W94880  19.232  17.210   2.166
90813W        W94881  21.695  16.993   1.456
90814W        W94882  21.108  15.393   2.023
90815W        W94883  21.393  15.346   0.118
90816W        W94884  21.858  16.147   2.424
90817W        W94885  19.825  17.854   2.177
90818W        W94886  21.599  17.320   0.615
90819W        W94887  18.728  18.106   0.369
90820W        W94888  19.121  18.152   1.045
90821W        W94889  18.918  14.906   2.471
90822W        W94890  21.541  15.924   2.746
90823W        W94891  20.946  16.346   1.205
90824W        W94892  20.912  16.034   0.232
90825W        W94893  20.120  17.178   2.372
90826W        W94894  19.926  15.508   1.571
90827W        W94895  20.526  17.595   2.565
90828W        W94896  21.397  16.386   0.987
90829W        W94897  20.299  15.044   1.003
90830W        W94898  18.956  17.738   0.686
90831W        W94899  18.327  15.237   1.285
90832W        W94900  21.113  15.844   1.759
90833W        W94901  18.571  17.461   1.674
90834W        W94902  19.912  17.811   0.544
90835W        W94903  21.304  15.837   0.008
90836W        W94904  18.327  17.595   2.172
90837W        W94905  19.118  17.167   2.652
90838W        W94906  19.491  16.527   1.271
90839W        W94907  19.513  14.932   2.364
90840W        W94908  21.742  14.694   1.661
90841W        W94909  18.961  16.566   0.129
90842W        W94910  18.616  15.599   0.308
90843W        W94911  18.678  17.555   1.102
90844W        W94912  19.809  17.038   1.350
90845W        W94913  21.141  17.897   3.064
90846W        W94914  20.067  15.539   0.748
90847W        W94915  21.450  17.937   1.520
90848W        W94916  21.127  15.790   3.118
90849W        W94917  21.840  17.446   1.252
90850W        W94918  20.467  16.738   2.736
90851W        W94919  18.233  16.289   0.942
90852W        W94920  19.344  16.704   2.515
90853W        W94921  20.548  15.968   0.893
90854W        W94922  20.425  16.458   0.997
90855W        W94923  18.768  15.878   2.471
90856W        W94924  18.753  15.754   3.393
90857W        W94925  18.643  14.671   1.552
90858W        W94926  20.411  15.018   2.113
90859W        W94927  20.059  15.203   3.276
90860W        W94928  20.414  15.352   0.454
90861W        W94929  21.597  17.745   3.208
90862W        W94930  20.564  14.826   3.247
90863W        W94931  21.583  17.127   3.369
90864W        W94932  21.013  15.294   2.965
90865W        W94933  20.813  15.232   1.235
90866W        W94934  21.206  16.366   3.639
90867W        W94935  18.946  17.942   1.625
90868W        W94936  19.604  15.659   0.611
90869W        W94937  19.173  14.943   3.275
90870W        W94938  21.225  15.427   0.956
90871W        W94939  21.592  15.909   0.901
90872W        W94940  19.335  18.126   3.372
90873W        W94941  19.261  14.662   0.607
90874W        W94942  21.582  15.196   1.642
90875W        W94943  21.732  17.445   0.087
90876W        W94944  18.639  16.648   1.789
90877W        W94945  20.556  15.235   0.019
90878W        W94946  21.690  17.567   1.739
90879W        W94947  21.729  14.761   2.489
90880W        W94948  20.174  15.973   3.043
90881W        W94949  20.267  17.312   0.746
90882W        W94950  20.667  16.606   3.486
90883W        W94951  20.341  14.583   1.795
90884W        W94952  18.953  15.486   1.858
90885W        W94953  18.507  16.686   2.632
90886W        W94954  20.366  17.879   1.338
90887W        W94955  21.560  15.476   2.210
90888W        W94956  20.197  17.823   2.977
90889W        W94957  21.540  16.882   0.182
90890W        W94958  19.975  16.365   1.243
90891W        W94959  21.827  14.876   2.984
90892W        W94960  19.976  16.711   2.578
90893W        W94961  20.193  15.597   2.023
90894W        W94962  21.045  15.895   0.861
90895W        W94963  21.332  15.628   0.503
90896W        W94964  21.141  17.668   0.892
90897W        W94965  20.975  17.271   1.688
90898W        W94966  20.871  16.350   0.666
90899W        W94967  20.304  16.560   1.652
90900W        W94968  21.185  16.348   1.719
90901W        W94969  18.560  15.363   2.143
90902W        W94970  21.338  16.415   2.970
90903W        W94971  21.689  18.033   2.116
90904W        W94972  19.619  17.477   1.518
90905W        W94973  20.626  18.010   2.842
90906W        W94974  20.620  15.340   2.606
90907W        W94975  19.827  18.048   2.667
90908W        W94976  21.524  15.002   1.133
90909W        W94977  21.315  16.321   2.434
90910W        W94978  18.298  15.642   2.472
90911W        W94979  21.158  15.437   1.490
90912W        W94980  21.569  15.588   3.267
90913W        W94981  20.454  17.287   1.485
90914W        W94982  19.710  17.878   1.098
90915W        W94983  18.825  15.058   0.356
90916W        W94984  19.929  14.712   2.166
90917W        W94985  18.957  17.832   0.014
90918W        W94986  19.331  16.298   0.765
90919W        W94987  19.985  16.927   3.078
90920W        W94988  19.815  15.285   1.068
90921W        W94989  21.171  14.882   1.496
90922W        W94990  20.891  18.164   1.824
90923W        W94991  20.303  17.812   2.164
90924W        W94992  19.699  16.849   2.125
90925W        W94993  21.469  17.572   2.251
90926W        W94994  19.163  15.075   1.020
90927W        W94995  19.685  17.372   1.980
90928W        W94996  19.168  15.303   0.045
90929W        W94997  19.969  15.912   2.439
90930W        W94998  20.817  14.778   2.309
90931W        W94999  18.237  16.621   2.194
90932W        W95000  19.941  16.439   0.352
90933W        W95001  19.209  14.754   0.122
90934W        W95002  19.947  15.835   1.173
90935W        W95003  20.917  14.811   2.872
90936W        W95004  19.505  16.823   2.981
90937W        W95005  20.309  16.605   3.198
90938W        W95006  20.926  16.635   3.091
90939W        W95007  20.210  14.775   3.596
90940W        W95008  19.432  15.391   1.989
90941W        W95009  18.858  15.347   1.387
90942W        W95010  18.644  18.059   1.063
90943W        W95011  19.976  17.389   3.188
90944W        W95012  19.011  16.874   0.547
90945W        W95013  20.691  16.259   1.768
90946W        W95014  20.971  16.058   2.167
90947W        W95015  20.176  16.732   2.101
90948W        W95016  20.646  17.106   0.233
90949W        W95017  20.318  15.127   1.561
90950W        W95018  21.797  15.405   0.829
90951W        W95019  18.291  17.994   2.860
90952W        W95020  18.708  17.220   2.392
90953W        W95021  18.275  18.066   0.624
90954W        W95022  20.174  15.336   2.430
90955W        W95023  19.537  17.359   0.279
90956W        W95024  21.442  17.741   0.465
90957W        W95025  20.417  16.394   0.479
90958W        W95026  19.260  15.585   0.996
90959W        W95027  20.092  15.495   0.048
90960W        W95028  20.676  17.060   3.226
90961W        W95029  21.029  14.966   0.843
90962W        W95030  18.359  14.814   0.291
90963W        W95031  19.645  17.133   2.581
90964W        W95032  19.444  17.049   1.673
90965W        W95033  19.186  17.001   0.071
90966W        W95034  18.427  17.242   0.839
90967W        W95035  18.931  16.312   3.281
90968W        W95036  19.635  14.872   3.467
90969W        W95037  20.344  15.014   2.823
90970W        W95038  19.539  14.782   1.104
90971W        W95039  20.598  14.859   0.609
90972W        W95040  18.543  14.791   2.186
90973W        W95041  18.591  15.754   1.556
90974W        W95042  21.280  14.862   1.962
90975W        W95043  18.702  15.360   0.776
90976W        W95044  21.273  15.048   2.392
90977W        W95045  21.669  16.251   0.077
90978W        W95046  18.961  15.009   1.896
90979W        W95047  20.075  15.581   2.836
90980W        W95048  18.223  15.271   0.314
90981W        W95049  19.009  16.660   2.875
90982W        W95050  20.367  16.058   2.054
90983W        W95051  20.234  18.137   0.350
90984W        W95052  18.380  16.644   0.047
90985W        W95053  19.115  17.055   3.173
90986W        W95054  18.636  16.222   2.804
90987W        W95055  19.627  16.327   2.598
90988W        W95056  21.395  14.686   2.860
90989W        W95057  21.793  16.296   2.851
90990W        W95058  21.781  16.496   0.537
90991W        W95059  20.644  16.828   0.636
90992W        W95060  21.118  18.128   0.331
90993W        W95061  20.295  16.118   3.473
90994W        W95062  18.625  17.085   3.513
90995W        W95063  21.831  15.007   3.465
90996W        W95064  21.549  15.935   2.086
90997W        W95065  19.857  18.065   3.563
90998W        W95066  19.712  14.694   0.290
90999W        W95067  21.251  17.293   0.233
91000W        W95068  19.020  15.386   3.119
91001W        W95069  19.454  17.380   2.981
91002W        W95070  21.580  15.371   2.779
91003W        W95071  20.791  18.030   0.747
91004W        W95072  21.030  16.649   2.114
91005W        W95073  19.280  15.065   2.781
91006W        W95074  19.749  16.134   3.538
91007W        W95075  19.252  17.313   0.732
91008W        W95076  21.007  16.811   0.996
91009W        W95077  18.775  15.437   2.720
91010W        W95078  20.104  17.499   1.184
91011W        W95079  21.854  16.059   1.365
91012W        W95080  20.076  14.692   3.084
91013W        W95081  20.856  17.397   2.163
91014W        W95082  21.159  17.741   1.871
91015W        W95083  20.378  17.543   0.299
91016W        W95084  18.388  17.435   3.141
91017W        W95085  19.131  15.427   2.379
91018W        W95086  19.101  14.775   1.489
91019W        W95087  20.722  15.617   2.181
91020W        W95088  19.520  16.788   0.381
91021W        W95089  21.518  16.730   1.880
91022W        W95090  18.845  17.488   3.303
91023W        W95091  21.232  18.170   1.100
91024W        W95092  19.331  15.190   1.545
91025W        W95093  19.100  16.683   1.635
91026W        W95094  19.413  18.094   2.385
91027W        W95095  21.480  18.190   3.417
91028W        W95096  20.639  16.378   2.350
91029W        W95097  18.488  16.176   0.265
91030W        W95098  21.622  17.834   0.962
91031W        W95099  21.459  15.158   0.581
91032W        W95100  19.598  14.677   2.984
91033W        W95101  21.304  17.479   1.442
91034W        W95102  21.333  16.035   1.347
91035W        W95103  19.450  15.708   1.563
91036W        W95104  19.695  15.970   2.887
91037W        W95105  20.806  17.123   2.750
91038W        W95106  19.456  15.577   2.862
91039W        W95107  19.435  18.043   1.478
91040W        W95108  18.752  18.002   3.112
91041W        W95109  18.864  17.363   0.242
91042W        W95110  21.381  17.121   1.052
91043W        W95111  18.985  15.913   2.938
91044W        W95112  21.758  15.843   0.419
91045W        W95113  19.503  16.900   0.890
91046W        W95114  20.602  16.282   2.971
91047W        W95115  20.493  15.910   2.515
91048W        W95116  19.053  16.282   2.544
91049W        W95117  21.263  18.170   2.373
91050W        W95118  21.054  14.804   3.367
91051W        W95119  18.718  14.954   2.954
91052W        W95120  19.057  15.977   2.007
91053W        W95121  19.426  15.791   0.129
91054W        W95122  18.229  17.550   2.674
91055W        W95123  19.814  16.259   2.117
91056W        W95124  19.637  15.284   0.222
91057W        W95125  18.772  16.100   1.003
91058W        W95126  18.543  17.952   2.440
91059W        W95127  21.338  16.178   0.548
91060W        W95128  21.433  15.094   3.234
91061W        W95129  20.869  17.303   1.197
91062W        W95130  18.467  16.227   3.374
91063W        W95131  21.433  14.691   0.670
91064W        W95132  20.953  17.166   0.681
91065W        W95133  19.855  16.224   0.766
91066W        W95134  21.042  15.028   0.289
91067W        W95135  21.107  15.635   2.475
91068W        W95136  18.816  16.228   1.682
91069W        W95137  19.110  17.167   1.331
91070W        W95138  20.873  15.787   1.296
91071W        W95139  19.896  15.166   1.992
91072W        W95140  21.858  17.077   2.503
91073W        W95141  21.776  15.064   2.064
91074W        W95142  18.315  17.894   1.440
91075W        W95143  18.824  17.081   0.976
91076W        W95144  18.739  14.698   3.529
91077W        W95145  19.858  17.551   3.631
91078W        W95146  21.613  16.519   1.421
91079W        W95147  20.967  16.696   0.301
91080W        W95148  20.262  18.217   2.513
91081W        W95149  21.119  16.939   3.550
91082W        W95150  19.934  14.649   0.830
91083W        W95151  20.647  15.518   1.689
91084W        W95152  18.333  17.105   2.021
91085W        W95153  19.586  15.067   0.662
91086W        W95154  19.390  16.551   3.511
91087W        W95155  20.384  15.532   1.225
91088W        W95156  20.589  16.942   2.347
91089W        W95157  18.743  17.547   2.782
91090W        W95158  19.334  17.530   3.505
91091W        W95159  19.185  15.327   0.519
91092W        W95160  20.702  15.469   0.844
91093W        W95161  20.660  17.577   3.081
91094W        W95162  19.345  16.169   1.680
91095W        W95163  19.000  17.867   2.545
91096W        W95164  21.745  17.984   0.146
91097W        W95165  18.608  16.656   3.142
91098W        W95166  20.603  16.918   1.830
91099W        W95167  19.039  16.567   1.072
91100W        W95168  19.410  17.574   2.467
91101W        W95169  19.788  14.993   1.508
91102W        W95170  18.399  16.977   0.438
91103W        W95171  19.918  15.928   0.308
91104W        W95172  18.564  16.477   1.327
91105W        W95173  19.854  15.119   2.791
91106W        W95174  21.526  14.828   0.218
91107W        W95175  21.619  16.574   3.317
91108W        W95176  20.273  17.831   3.469
91109W        W95177  21.831  16.925   2.991
91110W        W95178  21.239  17.723   3.602
91111W        W95179  18.978  18.179   2.080
91112W        W95180  21.837  16.801   0.954
91113W        W95181  20.367  16.068   1.467
91114W        W95182  20.134  14.680   1.357
91115W        W95183  19.193  17.664   1.194
91116W        W95184  19.692  15.405   2.419
91117W        W95185  19.392  14.774   1.888
91118W        W95186  18.455  17.596   0.436
91119W        W95187  20.271  16.960   1.154
91120W        W95188  19.146  17.755   3.033
91121W        W95189  18.623  16.578   0.729
91122W        W95190  18.508  15.121   1.728
91123W        W95191  20.056  17.086   1.785
91124W        W95192  18.308  14.940   0.805
91125W        W95193  20.972  16.146   2.732
91126W        W95194  20.849  15.532   0.304
91127W        W95195  21.366  17.204   1.952
91128W        W95196  20.027  17.688   1.783
91129W        W95197  19.439  17.792   0.694
91130W        W95198  20.721  14.695   0.124
91131W        W95199  18.521  17.955   1.865
91132W        W95200  20.718  15.713   3.500
91133W        W95201  18.701  15.243   3.499
91134W        W95202  18.432  15.843   0.832
91135W        W95203  19.123  15.832   0.557
91136W        W95204  20.886  16.159   3.374
91137W        W95205  19.229  16.440   2.083
91138W        W95206  20.703  14.726   1.203
91139W        W95207  19.834  18.157   1.706
91140W        W95208  21.048  17.619   2.643
91141W        W95209  20.632  17.768   1.754
91142W        W95210  20.651  16.748   1.348
91143W        W95211  20.113  14.973   0.419
91144W        W95212  21.794  14.601   1.141
91145W        W95213  19.482  16.236   0.304
91146W        W95214  21.648  15.573   1.294
91147W        W95215  20.340  16.743   0.171
91148W        W95216  21.276  16.943   2.919
91149W        W95217  20.930  17.644   0.386
91150W        W95218  19.545  15.319   3.292
91151W        W95219  19.365  15.903   2.533
91152W        W95220  21.457  17.398   2.810
91153W        W95221  20.557  15.348   3.187
91154W        W95222  18.401  15.819   2.964
91155W        W95223  20.161  16.296   2.690
91156W        W95224  18.518  17.054   1.347
91157W        W95225  18.665  16.351   2.237
91158W        W95226  20.982  16.637   2.587
91159W        W95227  20.754  18.017   3.398
91160W        W95228  20.650  15.756   2.951
91161W        W95229  20.927  17.810   1.356
91162W        W95230  19.929  17.530   2.679
91163W        W95231  19.414  17.885   1.948
91164W        W95232  21.219  17.056   2.367
91165W        W95233  20.269  17.128   3.504
91166W        W95234  18.874  17.081   1.843
91167W        W95235  21.220  16.840   1.488
91168W        W95236  20.861  17.906   2.239
91169W        W95237  18.839  17.635   2.109
91170W        W95238  19.860  15.687   3.319
91171W        W95239  20.311  17.853   0.830
91172W        W95240  19.619  17.108   3.468
91173W        W95241  19.745  17.346   0.845
91174W        W95242  18.966  16.086   0.104
91175W        W95243  18.305  18.172   7.003
91176W        W95244  18.681  17.065   6.526
91177W        W95245  21.386  16.795   4.296
91178W        W95246  21.516  17.880   6.323
91179W        W95247  19.434  17.871   3.849
91180W        W95248  19.517  16.023   4.832
91181W        W95249  19.032  15.871   4.996
91182W        W95250  20.023  16.686   4.430
91183W        W95251  19.698  17.778   6.785
91184W        W95252  18.347  15.339   6.748
91185W        W95253  19.109  14.619   6.550
91186W        W95254  20.803  15.007   5.437
91187W        W95255  20.452  15.878   4.007
91188W        W95256  21.022  15.312   7.098
91189W        W95257  18.388  15.104   6.223
91190W        W95258  18.487  17.723   7.244
91191W        W95259  20.009  17.113   3.976
91192W        W95260  18.441  15.896   5.669
91193W        W95261  19.334  15.787   6.906
91194W        W95262  21.793  15.646   5.405
91195W        W95263  21.557  16.689   6.264
91196W        W95264  19.865  16.022   5.291
91197W        W95265  20.411  17.361   5.660
91198W        W95266  18.911  16.795   5.892
91199W        W95267  18.270  16.323   5.463
91200W        W95268  19.306  16.295   6.655
91201W        W95269  21.577  16.078   6.909
91202W        W95270  19.193  17.522   5.354
91203W        W95271  20.314  17.211   6.488
91204W        W95272  19.534  15.851   5.713
91205W        W95273  19.826  16.635   5.356
91206W        W95274  20.823  17.408   7.204
91207W        W95275  19.902  16.728   7.214
91208W        W95276  19.883  16.444   6.692
91209W        W95277  18.292  15.835   7.214
91210W        W95278  21.124  17.370   6.813
91211W        W95279  18.705  14.952   4.811
91212W        W95280  19.232  17.210   5.810
91213W        W95281  21.695  16.993   5.100
91214W        W95282  21.108  15.393   5.667
91215W        W95283  21.393  15.346   3.762
91216W        W95284  21.858  16.147   6.068
91217W        W95285  19.825  17.854   5.821
91218W        W95286  21.599  17.320   4.259
91219W        W95287  18.728  18.106   4.013
91220W        W95288  19.121  18.152   4.689
91221W        W95289  18.918  14.906   6.115
91222W        W95290  21.541  15.924   6.390
91223W        W95291  20.946  16.346   4.849
91224W        W95292  20.912  16.034   3.876
91225W        W95293  20.120  17.178   6.016
91226W        W95294  19.926  15.508   5.215
91227W        W95295  20.526  17.595   6.209
91228W        W95296  21.397  16.386   4.631
91229W        W95297  20.299  15.044   4.647
91230W        W95298  18.956  17.738   4.330
91231W        W95299  18.327  15.237   4.929
91232W        W95300  21.113  15.844   5.403
91233W        W95301  18.571  17.461   5.318
91234W        W95302  19.912  17.811   4.188
91235W        W95303  21.304  15.837   3.652
91236W        W95304  18.327  17.595   5.816
91237W        W95305  19.118  17.167   6.296
91238W        W95306  19.491  16.527   4.915
91239W        W95307  19.513  14.932   6.008
91240W        W95308  21.742  14.694   5.305
91241W        W95309  18.961  16.566   3.773
91242W        W95310  18.616  15.599   3.952
91243W        W95311  18.678  17.555   4.746
91244W        W95312  19.809  17.038   4.994
91245W        W95313  21.141  17.897   6.708
91246W        W95314  20.067  15.539   4.392
91247W        W95315  21.450  17.937   5.164
91248W        W95316  21.127  15.790   6.762
91249W        W95317  21.840  17.446   4.896
91250W        W95318  20.467  16.738   6.380
91251W        W95319  18.233  16.289   4.586
91252W        W95320  19.344  16.704   6.159
91253W        W95321  20.548  15.968   4.537
91254W        W95322  20.425  16.458   4.641
91255W        W95323  18.768  15.878   6.115
91256W        W95324  18.753  15.754   7.037
91257W        W95325  18.643  14.671   5.196
91258W        W95326  20.411  15.018   5.757
91259W        W95327  20.059  15.203   6.920
91260W        W95328  20.414  15.352   4.098
91261W        W95329  21.597  17.745   6.852
91262W        W95330  20.564  14.826   6.891
91263W        W95331  21.583  17.127   7.013
91264W        W95332  21.013  15.294   6.609
91265W        W95333  20.813  15.232   4.879
91266W        W95334  21.206  16.366   7.283
91267W        W95335  18.946  17.942   5.269
91268W        W95336  19.604  15.659   4.255
91269W        W95337  19.173  14.943   6.919
91270W        W95338  21.225  15.427   4.600
91271W        W95339  21.592  15.909   4.545
91272W        W95340  19.335  18.126   7.016
91273W        W95341  19.261  14.662   4.251
91274W        W95342  21.582  15.196   5.286
91275W        W95343  21.732  17.445   3.731
91276W        W95344  18.639  16.648   5.433
91277W        W95345  20.556  15.235   3.663
91278W        W95346  21.690  17.567   5.383
91279W        W95347  21.729  14.761   6.133
91280W        W95348  20.174  15.973   6.687
91281W        W95349  20.267  17.312   4.390
91282W        W95350  20.667  16.606   7.130
91283W        W95351  20.341  14.583   5.439
91284W        W95352  18.953  15.486   5.502
91285W        W95353  18.507  16.686   6.276
91286W        W95354  20.366  17.879   4.982
91287W        W95355  21.560  15.476   5.854
91288W        W95356  20.197  17.823   6.621
91289W        W95357  21.540  16.882   3.826
91290W        W95358  19.975  16.365   4.887
91291W        W95359  21.827  14.876   6.628
91292W        W95360  19.976  16.711   6.222
91293W        W95361  20.193  15.597   5.667
91294W        W95362  21.045  15.895   4.505
91295W        W95363  21.332  15.628   4.147
91296W        W95364  21.141  17.668   4.536
91297W        W95365  20.975  17.271   5.332
91298W        W95366  20.871  16.350   4.310
91299W        W95367  20.304  16.560   5.296
91300W        W95368  21.185  16.348   5.363
91301W        W95369  18.560  15.363   5.787
91302W        W95370  21.338  16.415   6.614
91303W        W95371  21.689  18.033   5.760
91304W        W95372  19.619  17.477   5.162
91305W        W95373  20.626  18.010   6.486
91306W        W95374  20.620  15.340   6.250
91307W        W95375  19.827  18.048   6.311
91308W        W95376  21.524  15.002   4.777
91309W        W95377  21.315  16.321   6.078
91310W        W95378  18.298  15.642   6.116
91311W        W95379  21.158  15.437   5.134
91312W        W95380  21.569  15.588   6.911
91313W        W95381  20.454  17.287   5.129
91314W        W95382  19.710  17.878   4.742
91315W        W95383  18.825  15.058   4.000
91316W        W95384  19.929  14.712   5.810
91317W        W95385  18.957  17.832   3.658
91318W        W95386  19.331  16.298   4.409
91319W        W95387  19.985  16.927   6.722
91320W        W95388  19.815  15.285   4.712
91321W        W95389  21.171  14.882   5.140
91322W        W95390  20.891  18.164   5.468
91323W        W95391  20.303  17.812   5.808
91324W        W95392  19.699  16.849   5.769
91325W        W95393  21.469  17.572   5.895
91326W        W95394  19.163  15.075   4.664
91327W        W95395  19.685  17.372   5.624
91328W        W95396  19.168  15.303   3.689
91329W        W95397  19.969  15.912   6.083
91330W        W95398  20.817  14.778   5.953
91331W        W95399  18.237  16.621   5.838
91332W        W95400  19.941  16.439   3.996
91333W        W95401  19.209  14.754   3.766
91334W        W95402  19.947  15.835   4.817
91335W        W95403  20.917  14.811   6.516
91336W        W95404  19.505  16.823   6.625
91337W        W95405  20.309  16.605   6.842
91338W        W95406  20.926  16.635   6.735
91339W        W95407  20.210  14.775   7.240
91340W        W95408  19.432  15.391   5.633
91341W        W95409  18.858  15.347   5.031
91342W        W95410  18.644  18.059   4.707
91343W        W95411  19.976  17.389   6.832
91344W        W95412  19.011  16.874   4.191
91345W        W95413  20.691  16.259   5.412
91346W        W95414  20.971  16.058   5.811
91347W        W95415  20.176  16.732   5.745
91348W        W95416  20.646  17.106   3.877
91349W        W95417  20.318  15.127   5.205
91350W        W95418  21.797  15.405   4.473
91351W        W95419  18.291  17.994   6.504
91352W        W95420  18.708  17.220   6.036
91353W        W95421  18.275  18.066   4.268
91354W        W95422  20.174  15.336   6.074
91355W        W95423  19.537  17.359   3.923
91356W        W95424  21.442  17.741   4.109
91357W        W95425  20.417  16.394   4.123
91358W        W95426  19.260  15.585   4.640
91359W        W95427  20.092  15.495   3.692
91360W        W95428  20.676  17.060   6.870
91361W        W95429  21.029  14.966   4.487
91362W        W95430  18.359  14.814   3.935
91363W        W95431  19.645  17.133   6.225
91364W        W95432  19.444  17.049   5.317
91365W        W95433  19.186  17.001   3.715
91366W        W95434  18.427  17.242   4.483
91367W        W95435  18.931  16.312   6.925
91368W        W95436  19.635  14.872   7.111
91369W        W95437  20.344  15.014   6.467
91370W        W95438  19.539  14.782   4.748
91371W        W95439  20.598  14.859   4.253
91372W        W95440  18.543  14.791   5.830
91373W        W95441  18.591  15.754   5.200
91374W        W95442  21.280  14.862   5.606
91375W        W95443  18.702  15.360   4.420
91376W        W95444  21.273  15.048   6.036
91377W        W95445  21.669  16.251   3.721
91378W        W95446  18.961  15.009   5.540
91379W        W95447  20.075  15.581   6.480
91380W        W95448  18.223  15.271   3.958
91381W        W95449  19.009  16.660   6.519
91382W        W95450  20.367  16.058   5.698
91383W        W95451  20.234  18.137   3.994
91384W        W95452  18.380  16.644   3.691
91385W        W95453  19.115  17.055   6.817
91386W        W95454  18.636  16.222   6.448
91387W        W95455  19.627  16.327   6.242
91388W        W95456  21.395  14.686   6.504
91389W        W95457  21.793  16.296   6.495
91390W        W95458  21.781  16.496   4.181
91391W        W95459  20.644  16.828   4.280
91392W        W95460  21.118  18.128   3.975
91393W        W95461  20.295  16.118   7.117
91394W        W95462  18.625  17.085   7.157
91395W        W95463  21.831  15.007   7.109
91396W        W95464  21.549  15.935   5.730
91397W        W95465  19.857  18.065   7.207
91398W        W95466  19.712  14.694   3.934
91399W        W95467  21.251  17.293   3.877
91400W        W95468  19.020  15.386   6.763
91401W        W95469  19.454  17.380   6.625
91402W        W95470  21.580  15.371   6.423
91403W        W95471  20.791  18.030   4.391
91404W        W95472  21.030  16.649   5.758
91405W        W95473  19.280  15.065   6.425
91406W        W95474  19.749  16.134   7.182
91407W        W95475  19.252  17.313   4.376
91408W        W95476  21.007  16.811   4.640
91409W        W95477  18.775  15.437   6.364
91410W        W95478  20.104  17.499   4.828
91411W        W95479  21.854  16.059   5.009
91412W        W95480  20.076  14.692   6.728
91413W        W95481  20.856  17.397   5.807
91414W        W95482  21.159  17.741   5.515
91415W        W95483  20.378  17.543   3.943
91416W        W95484  18.388  17.435   6.785
91417W        W95485  19.131  15.427   6.023
91418W        W95486  19.101  14.775   5.133
91419W        W95487  20.722  15.617   5.825
91420W        W95488  19.520  16.788   4.025
91421W        W95489  21.518  16.730   5.524
91422W        W95490  18.845  17.488   6.947
91423W        W95491  21.232  18.170   4.744
91424W        W95492  19.331  15.190   5.189
91425W        W95493  19.100  16.683   5.279
91426W        W95494  19.413  18.094   6.029
91427W        W95495  21.480  18.190   7.061
91428W        W95496  20.639  16.378   5.994
91429W        W95497  18.488  16.176   3.909
91430W        W95498  21.622  17.834   4.606
91431W        W95499  21.459  15.158   4.225
91432W        W95500  19.598  14.677   6.628
91433W        W95501  21.304  17.479   5.086
91434W        W95502  21.333  16.035   4.991
91435W        W95503  19.450  15.708   5.207
91436W        W95504  19.695  15.970   6.531
91437W        W95505  20.806  17.123   6.394
91438W        W95506  19.456  15.577   6.506
91439W        W95507  19.435  18.043   5.122
91440W        W95508  18.752  18.002   6.756
91441W        W95509  18.864  17.363   3.886
91442W        W95510  21.381  17.121   4.696
91443W        W95511  18.985  15.913   6.582
91444W        W95512  21.758  15.843   4.063
91445W        W95513  19.503  16.900   4.534
91446W        W95514  20.602  16.282   6.615
91447W        W95515  20.493  15.910   6.159
91448W        W95516  19.053  16.282   6.188
91449W        W95517  21.263  18.170   6.017
91450W        W95518  21.054  14.804   7.011
91451W        W95519  18.718  14.954   6.598
91452W        W95520  19.057  15.977   5.651
91453W        W95521  19.426  15.791   3.773
91454W        W95522  19.814  16.259   5.761
91455W        W95523  19.637  15.284   3.866
91456W        W95524  18.772  16.100   4.647
91457W        W95525  18.543  17.952   6.084
91458W        W95526  21.338  16.178   4.192
91459W        W95527  21.433  15.094   6.878
91460W        W95528  20.869  17.303   4.841
91461W        W95529  18.467  16.227   7.018
91462W        W95530  21.433  14.691   4.314
91463W        W95531  20.953  17.166   4.325
91464W        W95532  19.855  16.224   4.410
91465W        W95533  21.042  15.028   3.933
91466W        W95534  21.107  15.635   6.119
91467W        W95535  18.816  16.228   5.326
91468W        W95536  19.110  17.167   4.975
91469W        W95537  20.873  15.787   4.940
91470W        W95538  19.896  15.166   5.636
91471W        W95539  21.858  17.077   6.147
91472W        W95540  21.776  15.064   5.708
91473W        W95541  18.315  17.894   5.084
91474W        W95542  18.824  17.081   4.620
91475W        W95543  18.739  14.698   7.173
91476W        W95544  19.858  17.551   7.275
91477W        W95545  21.613  16.519   5.065
91478W        W95546  20.967  16.696   3.945
91479W        W95547  20.262  18.217   6.157
91480W        W95548  21.119  16.939   7.194
91481W        W95549  19.934  14.649   4.474
91482W        W95550  20.647  15.518   5.333
91483W        W95551  18.333  17.105   5.665
91484W        W95552  19.586  15.067   4.306
91485W        W95553  19.390  16.551   7.155
91486W        W95554  20.384  15.532   4.869
91487W        W95555  20.589  16.942   5.991
91488W        W95556  18.743  17.547   6.426
91489W        W95557  19.334  17.530   7.149
91490W        W95558  19.185  15.327   4.163
91491W        W95559  20.702  15.469   4.488
91492W        W95560  20.660  17.577   6.725
91493W        W95561  19.345  16.169   5.324
91494W        W95562  19.000  17.867   6.189
91495W        W95563  21.745  17.984   3.790
91496W        W95564  18.608  16.656   6.786
91497W        W95565  20.603  16.918   5.474
91498W        W95566  19.039  16.567   4.716
91499W        W95567  19.410  17.574   6.111
91500W        W95568  19.788  14.993   5.152
91501W        W95569  19.918  15.928   3.952
91502W        W95570  18.564  16.477   4.971
91503W        W95571  19.854  15.119   6.435
91504W        W95572  21.526  14.828   3.862
91505W        W95573  21.619  16.574   6.961
91506W        W95574  20.273  17.831   7.113
91507W        W95575  21.831  16.925   6.635
91508W        W95576  21.239  17.723   7.246
91509W        W95577  18.978  18.179   5.724
91510W        W95578  21.837  16.801   4.598
91511W        W95579  20.367  16.068   5.111
91512W        W95580  20.134  14.680   5.001
91513W        W95581  19.193  17.664   4.838
91514W        W95582  19.692  15.405   6.063
91515W        W95583  19.392  14.774   5.532
91516W        W95584  18.455  17.596   4.080
91517W        W95585  20.271  16.960   4.798
91518W        W95586  19.146  17.755   6.677
91519W        W95587  18.623  16.578   4.373
91520W        W95588  18.508  15.121   5.372
91521W        W95589  20.056  17.086   5.429
91522W        W95590  18.308  14.940   4.449
91523W        W95591  20.972  16.146   6.376
91524W        W95592  20.849  15.532   3.948
91525W        W95593  21.366  17.204   5.596
91526W        W95594  20.027  17.688   5.427
91527W        W95595  19.439  17.792   4.338
91528W        W95596  20.721  14.695   3.768
91529W        W95597  18.521  17.955   5.509
91530W        W95598  20.718  15.713   7.144
91531W        W95599  18.701  15.243   7.143
91532W        W95600  18.432  15.843   4.476
91533W        W95601  19.123  15.832   4.201
91534W        W95602  20.886  16.159   7.018
91535W        W95603  19.229  16.440   5.727
91536W        W95604  20.703  14.726   4.847
91537W        W95605  19.834  18.157   5.350
91538W        W95606  21.048  17.619   6.287
91539W        W95607  20.632  17.768   5.398
91540W        W95608  20.651  16.748   4.992
91541W        W95609  20.113  14.973   4.063
91542W        W95610  21.794  14.601   4.785
91543W        W95611  19.482  16.236   3.948
91544W        W95612  21.648  15.573   4.938
91545W        W95613  20.340  16.743   3.815
91546W        W95614  21.276  16.943   6.563
91547W        W95615  20.930  17.644   4.030
91548W        W95616  19.545  15.319   6.936
91549W        W95617  19.365  15.903   6.177
91550W        W95618  21.457  17.398   6.454
91551W        W95619  20.557  15.348   6.831
91552W        W95620  18.401  15.819   6.608
91553W        W95621  20.161  16.296   6.334
91554W        W95622  18.518  17.054   4.991
91555W        W95623  18.665  16.351   5.881
91556W        W95624  20.982  16.637   6.231
91557W        W95625  20.754  18.017   7.042
91558W        W95626  20.650  15.756   6.595
91559W        W95627  20.927  17.810   5.000
91560W        W95628  19.929  17.530   6.323
91561W        W95629  19.414  17.885   5.592
91562W        W95630  21.219  17.056   6.011
91563W        W95631  20.269  17.128   7.148
91564W        W95632  18.874  17.081   5.487
91565W        W95633  21.220  16.840   5.132
91566W        W95634  20.861  17.906   5.883
91567W        W95635  18.839  17.635   5.753
91568W        W95636  19.860  15.687   6.963
91569W        W95637  20.311  17.853   4.474
91570W        W95638  19.619  17.108   7.112
91571W        W95639  19.745  17.346   4.489
91572W        W95640  18.966  16.086   3.748
91573W        W95641  18.305  18.172  10.648
91574W        W95642  18.681  17.065  10.171
91575W        W95643  21.386  16.795   7.941
91576W        W95644  21.516  17.880   9.968
91577W        W95645  19.434  17.871   7.494
91578W        W95646  19.517  16.023   8.477
91579W        W95647  19.032  15.871   8.641
91580W        W95648  20.023  16.686   8.075
91581W        W95649  19.698  17.778  10.430
91582W        W95650  18.347  15.339  10.393
91583W        W95651  19.109  14.619  10.195
91584W        W95652  20.803  15.007   9.082
91585W        W95653  20.452  15.878   7.652
91586W        W95654  21.022  15.312  10.743
91587W        W95655  18.388  15.104   9.868
91588W        W95656  18.487  17.723  10.889
91589W        W95657  20.009  17.113   7.621
91590W        W95658  18.441  15.896   9.314
91591W        W95659  19.334  15.787  10.551
91592W        W95660  21.793  15.646   9.050
91593W        W95661  21.557  16.689   9.909
91594W        W95662  19.865  16.022   8.936
91595W        W95663  20.411  17.361   9.305
91596W        W95664  18.911  16.795   9.537
91597W        W95665  18.270  16.323   9.108
91598W        W95666  19.306  16.295  10.300
91599W        W95667  21.577  16.078  10.554
91600W        W95668  19.193  17.522   8.999
91601W        W95669  20.314  17.211  10.133
91602W        W95670  19.534  15.851   9.358
91603W        W95671  19.826  16.635   9.001
91604W        W95672  20.823  17.408  10.849
91605W        W95673  19.902  16.728  10.859
91606W        W95674  19.883  16.444  10.337
91607W        W95675  18.292  15.835  10.859
91608W        W95676  21.124  17.370  10.458
91609W        W95677  18.705  14.952   8.456
91610W        W95678  19.232  17.210   9.455
91611W        W95679  21.695  16.993   8.745
91612W        W95680  21.108  15.393   9.312
91613W        W95681  21.393  15.346   7.407
91614W        W95682  21.858  16.147   9.713
91615W        W95683  19.825  17.854   9.466
91616W        W95684  21.599  17.320   7.904
91617W        W95685  18.728  18.106   7.658
91618W        W95686  19.121  18.152   8.334
91619W        W95687  18.918  14.906   9.760
91620W        W95688  21.541  15.924  10.035
91621W        W95689  20.946  16.346   8.494
91622W        W95690  20.912  16.034   7.521
91623W        W95691  20.120  17.178   9.661
91624W        W95692  19.926  15.508   8.860
91625W        W95693  20.526  17.595   9.854
91626W        W95694  21.397  16.386   8.276
91627W        W95695  20.299  15.044   8.292
91628W        W95696  18.956  17.738   7.975
91629W        W95697  18.327  15.237   8.574
91630W        W95698  21.113  15.844   9.048
91631W        W95699  18.571  17.461   8.963
91632W        W95700  19.912  17.811   7.833
91633W        W95701  21.304  15.837   7.297
91634W        W95702  18.327  17.595   9.461
91635W        W95703  19.118  17.167   9.941
91636W        W95704  19.491  16.527   8.560
91637W        W95705  19.513  14.932   9.653
91638W        W95706  21.742  14.694   8.950
91639W        W95707  18.961  16.566   7.418
91640W        W95708  18.616  15.599   7.597
91641W        W95709  18.678  17.555   8.391
91642W        W95710  19.809  17.038   8.639
91643W        W95711  21.141  17.897  10.353
91644W        W95712  20.067  15.539   8.037
91645W        W95713  21.450  17.937   8.809
91646W        W95714  21.127  15.790  10.407
91647W        W95715  21.840  17.446   8.541
91648W        W95716  20.467  16.738  10.025
91649W        W95717  18.233  16.289   8.231
91650W        W95718  19.344  16.704   9.804
91651W        W95719  20.548  15.968   8.182
91652W        W95720  20.425  16.458   8.286
91653W        W95721  18.768  15.878   9.760
91654W        W95722  18.753  15.754  10.682
91655W        W95723  18.643  14.671   8.841
91656W        W95724  20.411  15.018   9.402
91657W        W95725  20.059  15.203  10.565
91658W        W95726  20.414  15.352   7.743
91659W        W95727  21.597  17.745  10.497
91660W        W95728  20.564  14.826  10.536
91661W        W95729  21.583  17.127  10.658
91662W        W95730  21.013  15.294  10.254
91663W        W95731  20.813  15.232   8.524
91664W        W95732  21.206  16.366  10.928
91665W        W95733  18.946  17.942   8.914
91666W        W95734  19.604  15.659   7.900
91667W        W95735  19.173  14.943  10.564
91668W        W95736  21.225  15.427   8.245
91669W        W95737  21.592  15.909   8.190
91670W        W95738  19.335  18.126  10.661
91671W        W95739  19.261  14.662   7.896
91672W        W95740  21.582  15.196   8.931
91673W        W95741  21.732  17.445   7.376
91674W        W95742  18.639  16.648   9.078
91675W        W95743  20.556  15.235   7.308
91676W        W95744  21.690  17.567   9.028
91677W        W95745  21.729  14.761   9.778
91678W        W95746  20.174  15.973  10.332
91679W        W95747  20.267  17.312   8.035
91680W        W95748  20.667  16.606  10.775
91681W        W95749  20.341  14.583   9.084
91682W        W95750  18.953  15.486   9.147
91683W        W95751  18.507  16.686   9.921
91684W        W95752  20.366  17.879   8.627
91685W        W95753  21.560  15.476   9.499
91686W        W95754  20.197  17.823  10.266
91687W        W95755  21.540  16.882   7.471
91688W        W95756  19.975  16.365   8.532
91689W        W95757  21.827  14.876  10.273
91690W        W95758  19.976  16.711   9.867
91691W        W95759  20.193  15.597   9.312
91692W        W95760  21.045  15.895   8.150
91693W        W95761  21.332  15.628   7.792
91694W        W95762  21.141  17.668   8.181
91695W        W95763  20.975  17.271   8.977
91696W        W95764  20.871  16.350   7.955
91697W        W95765  20.304  16.560   8.941
91698W        W95766  21.185  16.348   9.008
91699W        W95767  18.560  15.363   9.432
91700W        W95768  21.338  16.415  10.259
91701W        W95769  21.689  18.033   9.405
91702W        W95770  19.619  17.477   8.807
91703W        W95771  20.626  18.010  10.131
91704W        W95772  20.620  15.340   9.895
91705W        W95773  19.827  18.048   9.956
91706W        W95774  21.524  15.002   8.422
91707W        W95775  21.315  16.321   9.723
91708W        W95776  18.298  15.642   9.761
91709W        W95777  21.158  15.437   8.779
91710W        W95778  21.569  15.588  10.556
91711W        W95779  20.454  17.287   8.774
91712W        W95780  19.710  17.878   8.387
91713W        W95781  18.825  15.058   7.645
91714W        W95782  19.929  14.712   9.455
91715W        W95783  18.957  17.832   7.303
91716W        W95784  19.331  16.298   8.054
91717W        W95785  19.985  16.927  10.367
91718W        W95786  19.815  15.285   8.357
91719W        W95787  21.171  14.882   8.785
91720W        W95788  20.891  18.164   9.113
91721W        W95789  20.303  17.812   9.453
91722W        W95790  19.699  16.849   9.414
91723W        W95791  21.469  17.572   9.540
91724W        W95792  19.163  15.075   8.309
91725W        W95793  19.685  17.372   9.269
91726W        W95794  19.168  15.303   7.334
91727W        W95795  19.969  15.912   9.728
91728W        W95796  20.817  14.778   9.598
91729W        W95797  18.237  16.621   9.483
91730W        W95798  19.941  16.439   7.641
91731W        W95799  19.209  14.754   7.411
91732W        W95800  19.947  15.835   8.462
91733W        W95801  20.917  14.811  10.161
91734W        W95802  19.505  16.823  10.270
91735W        W95803  20.309  16.605  10.487
91736W        W95804  20.926  16.635  10.380
91737W        W95805  20.210  14.775  10.885
91738W        W95806  19.432  15.391   9.278
91739W        W95807  18.858  15.347   8.676
91740W        W95808  18.644  18.059   8.352
91741W        W95809  19.976  17.389  10.477
91742W        W95810  19.011  16.874   7.836
91743W        W95811  20.691  16.259   9.057
91744W        W95812  20.971  16.058   9.456
91745W        W95813  20.176  16.732   9.390
91746W        W95814  20.646  17.106   7.522
91747W        W95815  20.318  15.127   8.850
91748W        W95816  21.797  15.405   8.118
91749W        W95817  18.291  17.994  10.149
91750W        W95818  18.708  17.220   9.681
91751W        W95819  18.275  18.066   7.913
91752W        W95820  20.174  15.336   9.719
91753W        W95821  19.537  17.359   7.568
91754W        W95822  21.442  17.741   7.754
91755W        W95823  20.417  16.394   7.768
91756W        W95824  19.260  15.585   8.285
91757W        W95825  20.092  15.495   7.337
91758W        W95826  20.676  17.060  10.515
91759W        W95827  21.029  14.966   8.132
91760W        W95828  18.359  14.814   7.580
91761W        W95829  19.645  17.133   9.870
91762W        W95830  19.444  17.049   8.962
91763W        W95831  19.186  17.001   7.360
91764W        W95832  18.427  17.242   8.128
91765W        W95833  18.931  16.312  10.570
91766W        W95834  19.635  14.872  10.756
91767W        W95835  20.344  15.014  10.112
91768W        W95836  19.539  14.782   8.393
91769W        W95837  20.598  14.859   7.898
91770W        W95838  18.543  14.791   9.475
91771W        W95839  18.591  15.754   8.845
91772W        W95840  21.280  14.862   9.251
91773W        W95841  18.702  15.360   8.065
91774W        W95842  21.273  15.048   9.681
91775W        W95843  21.669  16.251   7.366
91776W        W95844  18.961  15.009   9.185
91777W        W95845  20.075  15.581  10.125
91778W        W95846  18.223  15.271   7.603
91779W        W95847  19.009  16.660  10.164
91780W        W95848  20.367  16.058   9.343
91781W        W95849  20.234  18.137   7.639
91782W        W95850  18.380  16.644   7.336
91783W        W95851  19.115  17.055  10.462
91784W        W95852  18.636  16.222  10.093
91785W        W95853  19.627  16.327   9.887
91786W        W95854  21.395  14.686  10.149
91787W        W95855  21.793  16.296  10.140
91788W        W95856  21.781  16.496   7.826
91789W        W95857  20.644  16.828   7.925
91790W        W95858  21.118  18.128   7.620
91791W        W95859  20.295  16.118  10.762
91792W        W95860  18.625  17.085  10.802
91793W        W95861  21.831  15.007  10.754
91794W        W95862  21.549  15.935   9.375
91795W        W95863  19.857  18.065  10.852
91796W        W95864  19.712  14.694   7.579
91797W        W95865  21.251  17.293   7.522
91798W        W95866  19.020  15.386  10.408
91799W        W95867  19.454  17.380  10.270
91800W        W95868  21.580  15.371  10.068
91801W        W95869  20.791  18.030   8.036
91802W        W95870  21.030  16.649   9.403
91803W        W95871  19.280  15.065  10.070
91804W        W95872  19.749  16.134  10.827
91805W        W95873  19.252  17.313   8.021
91806W        W95874  21.007  16.811   8.285
91807W        W95875  18.775  15.437  10.009
91808W        W95876  20.104  17.499   8.473
91809W        W95877  21.854  16.059   8.654
91810W        W95878  20.076  14.692  10.373
91811W        W95879  20.856  17.397   9.452
91812W        W95880  21.159  17.741   9.160
91813W        W95881  20.378  17.543   7.588
91814W        W95882  18.388  17.435  10.430
91815W        W95883  19.131  15.427   9.668
91816W        W95884  19.101  14.775   8.778
91817W        W95885  20.722  15.617   9.470
91818W        W95886  19.520  16.788   7.670
91819W        W95887  21.518  16.730   9.169
91820W        W95888  18.845  17.488  10.592
91821W        W95889  21.232  18.170   8.389
91822W        W95890  19.331  15.190   8.834
91823W        W95891  19.100  16.683   8.924
91824W        W95892  19.413  18.094   9.674
91825W        W95893  21.480  18.190  10.706
91826W        W95894  20.639  16.378   9.639
91827W        W95895  18.488  16.176   7.554
91828W        W95896  21.622  17.834   8.251
91829W        W95897  21.459  15.158   7.870
91830W        W95898  19.598  14.677  10.273
91831W        W95899  21.304  17.479   8.731
91832W        W95900  21.333  16.035   8.636
91833W        W95901  19.450  15.708   8.852
91834W        W95902  19.695  15.970  10.176
91835W        W95903  20.806  17.123  10.039
91836W        W95904  19.456  15.577  10.151
91837W        W95905  19.435  18.043   8.767
91838W        W95906  18.752  18.002  10.401
91839W        W95907  18.864  17.363   7.531
91840W        W95908  21.381  17.121   8.341
91841W        W95909  18.985  15.913  10.227
91842W        W95910  21.758  15.843   7.708
91843W        W95911  19.503  16.900   8.179
91844W        W95912  20.602  16.282  10.260
91845W        W95913  20.493  15.910   9.804
91846W        W95914  19.053  16.282   9.833
91847W        W95915  21.263  18.170   9.662
91848W        W95916  21.054  14.804  10.656
91849W        W95917  18.718  14.954  10.243
91850W        W95918  19.057  15.977   9.296
91851W        W95919  19.426  15.791   7.418
91852W        W95920  18.229  17.550   9.963
91853W        W95921  19.814  16.259   9.406
91854W        W95922  19.637  15.284   7.511
91855W        W95923  18.772  16.100   8.292
91856W        W95924  18.543  17.952   9.729
91857W        W95925  21.338  16.178   7.837
91858W        W95926  21.433  15.094  10.523
91859W        W95927  20.869  17.303   8.486
91860W        W95928  18.467  16.227  10.663
91861W        W95929  21.433  14.691   7.959
91862W        W95930  20.953  17.166   7.970
91863W        W95931  19.855  16.224   8.055
91864W        W95932  21.042  15.028   7.578
91865W        W95933  21.107  15.635   9.764
91866W        W95934  18.816  16.228   8.971
91867W        W95935  19.110  17.167   8.620
91868W        W95936  20.873  15.787   8.585
91869W        W95937  19.896  15.166   9.281
91870W        W95938  21.858  17.077   9.792
91871W        W95939  21.776  15.064   9.353
91872W        W95940  18.315  17.894   8.729
91873W        W95941  18.824  17.081   8.265
91874W        W95942  18.739  14.698  10.818
91875W        W95943  19.858  17.551  10.920
91876W        W95944  21.613  16.519   8.710
91877W        W95945  20.967  16.696   7.590
91878W        W95946  20.262  18.217   9.802
91879W        W95947  21.119  16.939  10.839
91880W        W95948  19.934  14.649   8.119
91881W        W95949  20.647  15.518   8.978
91882W        W95950  18.333  17.105   9.310
91883W        W95951  19.586  15.067   7.951
91884W        W95952  19.390  16.551  10.800
91885W        W95953  20.384  15.532   8.514
91886W        W95954  20.589  16.942   9.636
91887W        W95955  18.743  17.547  10.071
91888W        W95956  19.334  17.530  10.794
91889W        W95957  19.185  15.327   7.808
91890W        W95958  20.702  15.469   8.133
91891W        W95959  20.660  17.577  10.370
91892W        W95960  19.345  16.169   8.969
91893W        W95961  19.000  17.867   9.834
91894W        W95962  21.745  17.984   7.435
91895W        W95963  18.608  16.656  10.431
91896W        W95964  20.603  16.918   9.119
91897W        W95965  19.039  16.567   8.361
91898W        W95966  19.410  17.574   9.756
91899W        W95967  19.788  14.993   8.797
91900W        W95968  18.399  16.977   7.727
91901W        W95969  19.918  15.928   7.597
91902W        W95970  18.564  16.477   8.616
91903W        W95971  19.854  15.119  10.080
91904W        W95972  21.526  14.828   7.507
91905W        W95973  21.619  16.574  10.606
91906W        W95974  20.273  17.831  10.758
91907W        W95975  21.831  16.925  10.280
91908W        W95976  21.239  17.723  10.891
91909W        W95977  18.978  18.179   9.369
91910W        W95978  21.837  16.801   8.243
91911W        W95979  20.367  16.068   8.756
91912W        W95980  20.134  14.680   8.646
91913W        W95981  19.193  17.664   8.483
91914W        W95982  19.692  15.405   9.708
91915W        W95983  19.392  14.774   9.177
91916W        W95984  18.455  17.596   7.725
91917W        W95985  20.271  16.960   8.443
91918W        W95986  19.146  17.755  10.322
91919W        W95987  18.623  16.578   8.018
91920W        W95988  18.508  15.121   9.017
91921W        W95989  20.056  17.086   9.074
91922W        W95990  18.308  14.940   8.094
91923W        W95991  20.972  16.146  10.021
91924W        W95992  20.849  15.532   7.593
91925W        W95993  21.366  17.204   9.241
91926W        W95994  20.027  17.688   9.072
91927W        W95995  19.439  17.792   7.983
91928W        W95996  20.721  14.695   7.413
91929W        W95997  18.521  17.955   9.154
91930W        W95998  20.718  15.713  10.789
91931W        W95999  18.701  15.243  10.788
91932W        W96000  18.432  15.843   8.121
91933W        W96001  19.123  15.832   7.846
91934W        W96002  20.886  16.159  10.663
91935W        W96003  19.229  16.440   9.372
91936W        W96004  20.703  14.726   8.492
91937W        W96005  19.834  18.157   8.995
91938W        W96006  21.048  17.619   9.932
91939W        W96007  20.632  17.768   9.043
91940W        W96008  20.651  16.748   8.637
91941W        W96009  20.113  14.973   7.708
91942W        W96010  21.794  14.601   8.430
91943W        W96011  19.482  16.236   7.593
91944W        W96012  21.648  15.573   8.583
91945W        W96013  20.340  16.743   7.460
91946W        W96014  21.276  16.943  10.208
91947W        W96015  20.930  17.644   7.675
91948W        W96016  19.545  15.319  10.581
91949W        W96017  19.365  15.903   9.822
91950W        W96018  21.457  17.398  10.099
91951W        W96019  20.557  15.348  10.476
91952W        W96020  18.401  15.819  10.253
91953W        W96021  20.161  16.296   9.979
91954W        W96022  18.518  17.054   8.636
91955W        W96023  18.665  16.351   9.526
91956W        W96024  20.982  16.637   9.876
91957W        W96025  20.754  18.017  10.687
91958W        W96026  20.650  15.756  10.240
91959W        W96027  20.927  17.810   8.645
91960W        W96028  19.929  17.530   9.968
91961W        W96029  19.414  17.885   9.237
91962W        W96030  21.219  17.056   9.656
91963W        W96031  20.269  17.128  10.793
91964W        W96032  18.874  17.081   9.132
91965W        W96033  21.220  16.840   8.777
91966W        W96034  20.861  17.906   9.528
91967W        W96035  18.839  17.635   9.398
91968W        W96036  19.860  15.687  10.608
91969W        W96037  20.311  17.853   8.119
91970W        W96038  19.619  17.108  10.757
91971W        W96039  19.745  17.346   8.134
91972W        W96040  18.966  16.086   7.393
91973W        W96041  18.305  18.172  14.292
91974W        W96042  18.681  17.065  13.815
91975W        W96043  21.386  16.795  11.585
91976W        W96044  21.516  17.880  13.612
91977W        W96045  19.434  17.871  11.138
91978W        W96046  19.517  16.023  12.121
91979W        W96047  19.032  15.871  12.285
91980W        W96048  20.023  16.686  11.719
91981W        W96049  19.698  17.778  14.074
91982W        W96050  18.347  15.339  14.037
91983W        W96051  19.109  14.619  13.839
91984W        W96052  20.803  15.007  12.726
91985W        W96053  20.452  15.878  11.296
91986W        W96054  21.022  15.312  14.387
91987W        W96055  18.388  15.104  13.512
91988W        W96056  18.487  17.723  14.533
91989W        W96057  20.009  17.113  11.265
91990W        W96058  18.441  15.896  12.958
91991W        W96059  19.334  15.787  14.195
91992W        W96060  21.793  15.646  12.694
91993W        W96061  21.557  16.689  13.553
91994W        W96062  19.865  16.022  12.580
91995W        W96063  20.411  17.361  12.949
91996W        W96064  18.911  16.795  13.181
91997W        W96065  18.270  16.323  12.752
91998W        W96066  19.306  16.295  13.944
91999W        W96067  21.577  16.078  14.198
92000W        W96068  19.193  17.522  12.643
92001W        W96069  20.314  17.211  13.777
92002W        W96070  19.534  15.851  13.002
92003W        W96071  19.826  16.635  12.645
92004W        W96072  20.823  17.408  14.493
92005W        W96073  19.902  16.728  14.503
92006W        W96074  19.883  16.444  13.981
92007W        W96075  18.292  15.835  14.503
92008W        W96076  21.124  17.370  14.102
92009W        W96077  18.705  14.952  12.100
92010W        W96078  19.232  17.210  13.099
92011W        W96079  21.695  16.993  12.389
92012W        W96080  21.108  15.393  12.956
92013W        W96081  21.393  15.346  11.051
92014W        W96082  21.858  16.147  13.357
92015W        W96083  19.825  17.854  13.110
92016W        W96084  21.599  17.320  11.548
92017W        W96085  18.728  18.106  11.302
92018W        W96086  19.121  18.152  11.978
92019W        W96087  18.918  14.906  13.404
92020W        W96088  21.541  15.924  13.679
92021W        W96089  20.946  16.346  12.138
92022W        W96090  20.912  16.034  11.165
92023W        W96091  20.120  17.178  13.305
92024W        W96092  19.926  15.508  12.504
92025W        W96093  20.526  17.595  13.498
92026W        W96094  21.397  16.386  11.920
92027W        W96095  20.299  15.044  11.936
92028W        W96096  18.956  17.738  11.619
92029W        W96097  18.327  15.237  12.218
92030W        W96098  21.113  15.844  12.692
92031W        W96099  18.571  17.461  12.607
92032W        W96100  19.912  17.811  11.477
92033W        W96101  21.304  15.837  10.941
92034W        W96102  18.327  17.595  13.105
92035W        W96103  19.118  17.167  13.585
92036W        W96104  19.491  16.527  12.204
92037W        W96105  19.513  14.932  13.297
92038W        W96106  21.742  14.694  12.594
92039W        W96107  18.961  16.566  11.062
92040W        W96108  18.616  15.599  11.241
92041W        W96109  18.678  17.555  12.035
92042W        W96110  19.809  17.038  12.283
92043W        W96111  21.141  17.897  13.997
92044W        W96112  20.067  15.539  11.681
92045W        W96113  21.450  17.937  12.453
92046W        W96114  21.127  15.790  14.051
92047W        W96115  21.840  17.446  12.185
92048W        W96116  20.467  16.738  13.669
92049W        W96117  18.233  16.289  11.875
92050W        W96118  19.344  16.704  13.448
92051W        W96119  20.548  15.968  11.826
92052W        W96120  20.425  16.458  11.930
92053W        W96121  18.768  15.878  13.404
92054W        W96122  18.753  15.754  14.326
92055W        W96123  18.643  14.671  12.485
92056W        W96124  20.411  15.018  13.046
92057W        W96125  20.059  15.203  14.209
92058W        W96126  20.414  15.352  11.387
92059W        W96127  21.597  17.745  14.141
92060W        W96128  20.564  14.826  14.180
92061W        W96129  21.583  17.127  14.302
92062W        W96130  21.013  15.294  13.898
92063W        W96131  20.813  15.232  12.168
92064W        W96132  21.206  16.366  14.572
92065W        W96133  18.946  17.942  12.558
92066W        W96134  19.604  15.659  11.544
92067W        W96135  19.173  14.943  14.208
92068W        W96136  21.225  15.427  11.889
92069W        W96137  21.592  15.909  11.834
92070W        W96138  19.335  18.126  14.305
92071W        W96139  19.261  14.662  11.540
92072W        W96140  21.582  15.196  12.575
92073W        W96141  21.732  17.445  11.020
92074W        W96142  18.639  16.648  12.722
92075W        W96143  20.556  15.235  10.952
92076W        W96144  21.690  17.567  12.672
92077W        W96145  21.729  14.761  13.422
92078W        W96146  20.174  15.973  13.976
92079W        W96147  20.267  17.312  11.679
92080W        W96148  20.667  16.606  14.419
92081W        W96149  20.341  14.583  12.728
92082W        W96150  18.953  15.486  12.791
92083W        W96151  18.507  16.686  13.565
92084W        W96152  20.366  17.879  12.271
92085W        W96153  21.560  15.476  13.143
92086W        W96154  20.197  17.823  13.910
92087W        W96155  21.540  16.882  11.115
92088W        W96156  19.975  16.365  12.176
92089W        W96157  21.827  14.876  13.917
92090W        W96158  19.976  16.711  13.511
92091W        W96159  20.193  15.597  12.956
92092W        W96160  21.045  15.895  11.794
92093W        W96161  21.332  15.628  11.436
92094W        W96162  21.141  17.668  11.825
92095W        W96163  20.975  17.271  12.621
92096W        W96164  20.871  16.350  11.599
92097W        W96165  20.304  16.560  12.585
92098W        W96166  21.185  16.348  12.652
92099W        W96167  18.560  15.363  13.076
92100W        W96168  21.338  16.415  13.903
92101W        W96169  21.689  18.033  13.049
92102W        W96170  19.619  17.477  12.451
92103W        W96171  20.626  18.010  13.775
92104W        W96172  20.620  15.340  13.539
92105W        W96173  19.827  18.048  13.600
92106W        W96174  21.524  15.002  12.066
92107W        W96175  21.315  16.321  13.367
92108W        W96176  18.298  15.642  13.405
92109W        W96177  21.158  15.437  12.423
92110W        W96178  21.569  15.588  14.200
92111W        W96179  20.454  17.287  12.418
92112W        W96180  19.710  17.878  12.031
92113W        W96181  18.825  15.058  11.289
92114W        W96182  19.929  14.712  13.099
92115W        W96183  18.957  17.832  10.947
92116W        W96184  19.331  16.298  11.698
92117W        W96185  19.985  16.927  14.011
92118W        W96186  19.815  15.285  12.001
92119W        W96187  21.171  14.882  12.429
92120W        W96188  20.891  18.164  12.757
92121W        W96189  20.303  17.812  13.097
92122W        W96190  19.699  16.849  13.058
92123W        W96191  21.469  17.572  13.184
92124W        W96192  19.163  15.075  11.953
92125W        W96193  19.685  17.372  12.913
92126W        W96194  19.168  15.303  10.978
92127W        W96195  19.969  15.912  13.372
92128W        W96196  20.817  14.778  13.242
92129W        W96197  18.237  16.621  13.127
92130W        W96198  19.941  16.439  11.285
92131W        W96199  19.209  14.754  11.055
92132W        W96200  19.947  15.835  12.106
92133W        W96201  20.917  14.811  13.805
92134W        W96202  19.505  16.823  13.914
92135W        W96203  20.309  16.605  14.131
92136W        W96204  20.926  16.635  14.024
92137W        W96205  20.210  14.775  14.529
92138W        W96206  19.432  15.391  12.922
92139W        W96207  18.858  15.347  12.320
92140W        W96208  18.644  18.059  11.996
92141W        W96209  19.976  17.389  14.121
92142W        W96210  19.011  16.874  11.480
92143W        W96211  20.691  16.259  12.701
92144W        W96212  20.971  16.058  13.100
92145W        W96213  20.176  16.732  13.034
92146W        W96214  20.646  17.106  11.166
92147W        W96215  20.318  15.127  12.494
92148W        W96216  21.797  15.405  11.762
92149W        W96217  18.291  17.994  13.793
92150W        W96218  18.708  17.220  13.325
92151W        W96219  18.275  18.066  11.557
92152W        W96220  20.174  15.336  13.363
92153W        W96221  19.537  17.359  11.212
92154W        W96222  21.442  17.741  11.398
92155W        W96223  20.417  16.394  11.412
92156W        W96224  19.260  15.585  11.929
92157W        W96225  20.092  15.495  10.981
92158W        W96226  20.676  17.060  14.159
92159W        W96227  21.029  14.966  11.776
92160W        W96228  18.359  14.814  11.224
92161W        W96229  19.645  17.133  13.514
92162W        W96230  19.444  17.049  12.606
92163W        W96231  19.186  17.001  11.004
92164W        W96232  18.427  17.242  11.772
92165W        W96233  18.931  16.312  14.214
92166W        W96234  19.635  14.872  14.400
92167W        W96235  20.344  15.014  13.756
92168W        W96236  19.539  14.782  12.037
92169W        W96237  20.598  14.859  11.542
92170W        W96238  18.543  14.791  13.119
92171W        W96239  18.591  15.754  12.489
92172W        W96240  21.280  14.862  12.895
92173W        W96241  18.702  15.360  11.709
92174W        W96242  21.273  15.048  13.325
92175W        W96243  21.669  16.251  11.010
92176W        W96244  18.961  15.009  12.829
92177W        W96245  20.075  15.581  13.769
92178W        W96246  18.223  15.271  11.247
92179W        W96247  19.009  16.660  13.808
92180W        W96248  20.367  16.058  12.987
92181W        W96249  20.234  18.137  11.283
92182W        W96250  18.380  16.644  10.980
92183W        W96251  19.115  17.055  14.106
92184W        W96252  18.636  16.222  13.737
92185W        W96253  19.627  16.327  13.531
92186W        W96254  21.395  14.686  13.793
92187W        W96255  21.793  16.296  13.784
92188W        W96256  21.781  16.496  11.470
92189W        W96257  20.644  16.828  11.569
92190W        W96258  21.118  18.128  11.264
92191W        W96259  20.295  16.118  14.406
92192W        W96260  18.625  17.085  14.446
92193W        W96261  21.831  15.007  14.398
92194W        W96262  21.549  15.935  13.019
92195W        W96263  19.857  18.065  14.496
92196W        W96264  19.712  14.694  11.223
92197W        W96265  21.251  17.293  11.166
92198W        W96266  19.020  15.386  14.052
92199W        W96267  19.454  17.380  13.914
92200W        W96268  21.580  15.371  13.712
92201W        W96269  20.791  18.030  11.680
92202W        W96270  21.030  16.649  13.047
92203W        W96271  19.280  15.065  13.714
92204W        W96272  19.749  16.134  14.471
92205W        W96273  19.252  17.313  11.665
92206W        W96274  21.007  16.811  11.929
92207W        W96275  18.775  15.437  13.653
92208W        W96276  20.104  17.499  12.117
92209W        W96277  21.854  16.059  12.298
92210W        W96278  20.076  14.692  14.017
92211W        W96279  20.856  17.397  13.096
92212W        W96280  21.159  17.741  12.804
92213W        W96281  20.378  17.543  11.232
92214W        W96282  18.388  17.435  14.074
92215W        W96283  19.131  15.427  13.312
92216W        W96284  19.101  14.775  12.422
92217W        W96285  20.722  15.617  13.114
92218W        W96286  19.520  16.788  11.314
92219W        W96287  21.518  16.730  12.813
92220W        W96288  18.845  17.488  14.236
92221W        W96289  21.232  18.170  12.033
92222W        W96290  19.331  15.190  12.478
92223W        W96291  19.100  16.683  12.568
92224W        W96292  19.413  18.094  13.318
92225W        W96293  21.480  18.190  14.350
92226W        W96294  20.639  16.378  13.283
92227W        W96295  18.488  16.176  11.198
92228W        W96296  21.622  17.834  11.895
92229W        W96297  21.459  15.158  11.514
92230W        W96298  19.598  14.677  13.917
92231W        W96299  21.304  17.479  12.375
92232W        W96300  21.333  16.035  12.280
92233W        W96301  19.450  15.708  12.496
92234W        W96302  19.695  15.970  13.820
92235W        W96303  20.806  17.123  13.683
92236W        W96304  19.456  15.577  13.795
92237W        W96305  19.435  18.043  12.411
92238W        W96306  18.752  18.002  14.045
92239W        W96307  18.864  17.363  11.175
92240W        W96308  21.381  17.121  11.985
92241W        W96309  18.985  15.913  13.871
92242W        W96310  21.758  15.843  11.352
92243W        W96311  19.503  16.900  11.823
92244W        W96312  20.602  16.282  13.904
92245W        W96313  20.493  15.910  13.448
92246W        W96314  19.053  16.282  13.477
92247W        W96315  21.263  18.170  13.306
92248W        W96316  21.054  14.804  14.300
92249W        W96317  18.718  14.954  13.887
92250W        W96318  19.057  15.977  12.940
92251W        W96319  19.426  15.791  11.062
92252W        W96320  18.229  17.550  13.607
92253W        W96321  19.814  16.259  13.050
92254W        W96322  19.637  15.284  11.155
92255W        W96323  18.772  16.100  11.936
92256W        W96324  18.543  17.952  13.373
92257W        W96325  21.338  16.178  11.481
92258W        W96326  21.433  15.094  14.167
92259W        W96327  20.869  17.303  12.130
92260W        W96328  18.467  16.227  14.307
92261W        W96329  21.433  14.691  11.603
92262W        W96330  20.953  17.166  11.614
92263W        W96331  19.855  16.224  11.699
92264W        W96332  21.042  15.028  11.222
92265W        W96333  21.107  15.635  13.408
92266W        W96334  18.816  16.228  12.615
92267W        W96335  19.110  17.167  12.264
92268W        W96336  20.873  15.787  12.229
92269W        W96337  19.896  15.166  12.925
92270W        W96338  21.858  17.077  13.436
92271W        W96339  21.776  15.064  12.997
92272W        W96340  18.315  17.894  12.373
92273W        W96341  18.824  17.081  11.909
92274W        W96342  18.739  14.698  14.462
92275W        W96343  19.858  17.551  14.564
92276W        W96344  21.613  16.519  12.354
92277W        W96345  20.967  16.696  11.234
92278W        W96346  20.262  18.217  13.446
92279W        W96347  21.119  16.939  14.483
92280W        W96348  19.934  14.649  11.763
92281W        W96349  20.647  15.518  12.622
92282W        W96350  18.333  17.105  12.954
92283W        W96351  19.586  15.067  11.595
92284W        W96352  19.390  16.551  14.444
92285W        W96353  20.384  15.532  12.158
92286W        W96354  20.589  16.942  13.280
92287W        W96355  18.743  17.547  13.715
92288W        W96356  19.334  17.530  14.438
92289W        W96357  19.185  15.327  11.452
92290W        W96358  20.702  15.469  11.777
92291W        W96359  20.660  17.577  14.014
92292W        W96360  19.345  16.169  12.613
92293W        W96361  19.000  17.867  13.478
92294W        W96362  21.745  17.984  11.079
92295W        W96363  18.608  16.656  14.075
92296W        W96364  20.603  16.918  12.763
92297W        W96365  19.039  16.567  12.005
92298W        W96366  19.410  17.574  13.400
92299W        W96367  19.788  14.993  12.441
92300W        W96368  18.399  16.977  11.371
92301W        W96369  19.918  15.928  11.241
92302W        W96370  18.564  16.477  12.260
92303W        W96371  19.854  15.119  13.724
92304W        W96372  21.526  14.828  11.151
92305W        W96373  21.619  16.574  14.250
92306W        W96374  20.273  17.831  14.402
92307W        W96375  21.831  16.925  13.924
92308W        W96376  21.239  17.723  14.535
92309W        W96377  18.978  18.179  13.013
92310W        W96378  21.837  16.801  11.887
92311W        W96379  20.367  16.068  12.400
92312W        W96380  20.134  14.680  12.290
92313W        W96381  19.193  17.664  12.127
92314W        W96382  19.692  15.405  13.352
92315W        W96383  19.392  14.774  12.821
92316W        W96384  18.455  17.596  11.369
92317W        W96385  20.271  16.960  12.087
92318W        W96386  19.146  17.755  13.966
92319W        W96387  18.623  16.578  11.662
92320W        W96388  18.508  15.121  12.661
92321W        W96389  20.056  17.086  12.718
92322W        W96390  18.308  14.940  11.738
92323W        W96391  20.972  16.146  13.665
92324W        W96392  20.849  15.532  11.237
92325W        W96393  21.366  17.204  12.885
92326W        W96394  20.027  17.688  12.716
92327W        W96395  19.439  17.792  11.627
92328W        W96396  20.721  14.695  11.057
92329W        W96397  18.521  17.955  12.798
92330W        W96398  20.718  15.713  14.433
92331W        W96399  18.701  15.243  14.432
92332W        W96400  18.432  15.843  11.765
92333W        W96401  19.123  15.832  11.490
92334W        W96402  20.886  16.159  14.307
92335W        W96403  19.229  16.440  13.016
92336W        W96404  20.703  14.726  12.136
92337W        W96405  19.834  18.157  12.639
92338W        W96406  21.048  17.619  13.576
92339W        W96407  20.632  17.768  12.687
92340W        W96408  20.651  16.748  12.281
92341W        W96409  20.113  14.973  11.352
92342W        W96410  21.794  14.601  12.074
92343W        W96411  19.482  16.236  11.237
92344W        W96412  21.648  15.573  12.227
92345W        W96413  20.340  16.743  11.104
92346W        W96414  21.276  16.943  13.852
92347W        W96415  20.930  17.644  11.319
92348W        W96416  19.545  15.319  14.225
92349W        W96417  19.365  15.903  13.466
92350W        W96418  21.457  17.398  13.743
92351W        W96419  20.557  15.348  14.120
92352W        W96420  18.401  15.819  13.897
92353W        W96421  20.161  16.296  13.623
92354W        W96422  18.518  17.054  12.280
92355W        W96423  18.665  16.351  13.170
92356W        W96424  20.982  16.637  13.520
92357W        W96425  20.754  18.017  14.331
92358W        W96426  20.650  15.756  13.884
92359W        W96427  20.927  17.810  12.289
92360W        W96428  19.929  17.530  13.612
92361W        W96429  19.414  17.885  12.881
92362W        W96430  21.219  17.056  13.300
92363W        W96431  20.269  17.128  14.437
92364W        W96432  18.874  17.081  12.776
92365W        W96433  21.220  16.840  12.421
92366W        W96434  20.861  17.906  13.172
92367W        W96435  18.839  17.635  13.042
92368W        W96436  19.860  15.687  14.252
92369W        W96437  20.311  17.853  11.763
92370W        W96438  19.619  17.108  14.401
92371W        W96439  19.745  17.346  11.778
92372W        W96440  18.966  16.086  11.037
92373W        W96441  18.305  18.172  17.936
92374W        W96442  18.681  17.065  17.459
92375W        W96443  21.386  16.795  15.229
92376W        W96444  21.516  17.880  17.256
92377W        W96445  19.434  17.871  14.782
92378W        W96446  19.517  16.023  15.765
92379W        W96447  19.032  15.871  15.929
92380W        W96448  20.023  16.686  15.363
92381W        W96449  19.698  17.778  17.718
92382W        W96450  18.347  15.339  17.681
92383W        W96451  19.109  14.619  17.483
92384W        W96452  20.803  15.007  16.370
92385W        W96453  20.452  15.878  14.940
92386W        W96454  21.022  15.312  18.031
92387W        W96455  18.388  15.104  17.156
92388W        W96456  18.487  17.723  18.177
92389W        W96457  20.009  17.113  14.909
92390W        W96458  18.441  15.896  16.602
92391W        W96459  19.334  15.787  17.839
92392W        W96460  21.793  15.646  16.338
92393W        W96461  21.557  16.689  17.197
92394W        W96462  19.865  16.022  16.224
92395W        W96463  20.411  17.361  16.593
92396W        W96464  18.911  16.795  16.825
92397W        W96465  18.270  16.323  16.396
92398W        W96466  19.306  16.295  17.588
92399W        W96467  21.577  16.078  17.842
92400W        W96468  19.193  17.522  16.287
92401W        W96469  20.314  17.211  17.421
92402W        W96470  19.534  15.851  16.646
92403W        W96471  19.826  16.635  16.289
92404W        W96472  20.823  17.408  18.137
92405W        W96473  19.902  16.728  18.147
92406W        W96474  19.883  16.444  17.625
92407W        W96475  18.292  15.835  18.147
92408W        W96476  21.124  17.370  17.746
92409W        W96477  18.705  14.952  15.744
92410W        W96478  19.232  17.210  16.743
92411W        W96479  21.695  16.993  16.033
92412W        W96480  21.108  15.393  16.600
92413W        W96481  21.393  15.346  14.695
92414W        W96482  21.858  16.147  17.001
92415W        W96483  19.825  17.854  16.754
92416W        W96484  21.599  17.320  15.192
92417W        W96485  18.728  18.106  14.946
92418W        W96486  19.121  18.152  15.622
92419W        W96487  18.918  14.906  17.048
92420W        W96488  21.541  15.924  17.323
92421W        W96489  20.946  16.346  15.782
92422W        W96490  20.912  16.034  14.809
92423W        W96491  20.120  17.178  16.949
92424W        W96492  19.926  15.508  16.148
92425W        W96493  20.526  17.595  17.142
92426W        W96494  21.397  16.386  15.564
92427W        W96495  20.299  15.044  15.580
92428W        W96496  18.956  17.738  15.263
92429W        W96497  18.327  15.237  15.862
92430W        W96498  21.113  15.844  16.336
92431W        W96499  18.571  17.461  16.251
92432W        W96500  19.912  17.811  15.121
92433W        W96501  21.304  15.837  14.585
92434W        W96502  18.327  17.595  16.749
92435W        W96503  19.118  17.167  17.229
92436W        W96504  19.491  16.527  15.848
92437W        W96505  19.513  14.932  16.941
92438W        W96506  21.742  14.694  16.238
92439W        W96507  18.961  16.566  14.706
92440W        W96508  18.616  15.599  14.885
92441W        W96509  18.678  17.555  15.679
92442W        W96510  19.809  17.038  15.927
92443W        W96511  21.141  17.897  17.641
92444W        W96512  20.067  15.539  15.325
92445W        W96513  21.450  17.937  16.097
92446W        W96514  21.127  15.790  17.695
92447W        W96515  21.840  17.446  15.829
92448W        W96516  20.467  16.738  17.313
92449W        W96517  18.233  16.289  15.519
92450W        W96518  19.344  16.704  17.092
92451W        W96519  20.548  15.968  15.470
92452W        W96520  20.425  16.458  15.574
92453W        W96521  18.768  15.878  17.048
92454W        W96522  18.753  15.754  17.970
92455W        W96523  18.643  14.671  16.129
92456W        W96524  20.411  15.018  16.690
92457W        W96525  20.059  15.203  17.853
92458W        W96526  20.414  15.352  15.031
92459W        W96527  21.597  17.745  17.785
92460W        W96528  20.564  14.826  17.824
92461W        W96529  21.583  17.127  17.946
92462W        W96530  21.013  15.294  17.542
92463W        W96531  20.813  15.232  15.812
92464W        W96532  21.206  16.366  18.216
92465W        W96533  18.946  17.942  16.202
92466W        W96534  19.604  15.659  15.188
92467W        W96535  19.173  14.943  17.852
92468W        W96536  21.225  15.427  15.533
92469W        W96537  21.592  15.909  15.478
92470W        W96538  19.335  18.126  17.949
92471W        W96539  19.261  14.662  15.184
92472W        W96540  21.582  15.196  16.219
92473W        W96541  21.732  17.445  14.664
92474W        W96542  18.639  16.648  16.366
92475W        W96543  20.556  15.235  14.596
92476W        W96544  21.690  17.567  16.316
92477W        W96545  21.729  14.761  17.066
92478W        W96546  20.174  15.973  17.620
92479W        W96547  20.267  17.312  15.323
92480W        W96548  20.667  16.606  18.063
92481W        W96549  20.341  14.583  16.372
92482W        W96550  18.953  15.486  16.435
92483W        W96551  18.507  16.686  17.209
92484W        W96552  20.366  17.879  15.915
92485W        W96553  21.560  15.476  16.787
92486W        W96554  20.197  17.823  17.554
92487W        W96555  21.540  16.882  14.759
92488W        W96556  19.975  16.365  15.820
92489W        W96557  21.827  14.876  17.561
92490W        W96558  19.976  16.711  17.155
92491W        W96559  20.193  15.597  16.600
92492W        W96560  21.045  15.895  15.438
92493W        W96561  21.332  15.628  15.080
92494W        W96562  21.141  17.668  15.469
92495W        W96563  20.975  17.271  16.265
92496W        W96564  20.871  16.350  15.243
92497W        W96565  20.304  16.560  16.229
92498W        W96566  21.185  16.348  16.296
92499W        W96567  18.560  15.363  16.720
92500W        W96568  21.338  16.415  17.547
92501W        W96569  21.689  18.033  16.693
92502W        W96570  19.619  17.477  16.095
92503W        W96571  20.626  18.010  17.419
92504W        W96572  20.620  15.340  17.183
92505W        W96573  19.827  18.048  17.244
92506W        W96574  21.524  15.002  15.710
92507W        W96575  21.315  16.321  17.011
92508W        W96576  18.298  15.642  17.049
92509W        W96577  21.158  15.437  16.067
92510W        W96578  21.569  15.588  17.844
92511W        W96579  20.454  17.287  16.062
92512W        W96580  19.710  17.878  15.675
92513W        W96581  18.825  15.058  14.933
92514W        W96582  19.929  14.712  16.743
92515W        W96583  18.957  17.832  14.591
92516W        W96584  19.331  16.298  15.342
92517W        W96585  19.985  16.927  17.655
92518W        W96586  19.815  15.285  15.645
92519W        W96587  21.171  14.882  16.073
92520W        W96588  20.891  18.164  16.401
92521W        W96589  20.303  17.812  16.741
92522W        W96590  19.699  16.849  16.702
92523W        W96591  21.469  17.572  16.828
92524W        W96592  19.163  15.075  15.597
92525W        W96593  19.685  17.372  16.557
92526W        W96594  19.168  15.303  14.622
92527W        W96595  19.969  15.912  17.016
92528W        W96596  20.817  14.778  16.886
92529W        W96597  18.237  16.621  16.771
92530W        W96598  19.941  16.439  14.929
92531W        W96599  19.209  14.754  14.699
92532W        W96600  19.947  15.835  15.750
92533W        W96601  20.917  14.811  17.449
92534W        W96602  19.505  16.823  17.558
92535W        W96603  20.309  16.605  17.775
92536W        W96604  20.926  16.635  17.668
92537W        W96605  20.210  14.775  18.173
92538W        W96606  19.432  15.391  16.566
92539W        W96607  18.858  15.347  15.964
92540W        W96608  18.644  18.059  15.640
92541W        W96609  19.976  17.389  17.765
92542W        W96610  19.011  16.874  15.124
92543W        W96611  20.691  16.259  16.345
92544W        W96612  20.971  16.058  16.744
92545W        W96613  20.176  16.732  16.678
92546W        W96614  20.646  17.106  14.810
92547W        W96615  20.318  15.127  16.138
92548W        W96616  21.797  15.405  15.406
92549W        W96617  18.291  17.994  17.437
92550W        W96618  18.708  17.220  16.969
92551W        W96619  18.275  18.066  15.201
92552W        W96620  20.174  15.336  17.007
92553W        W96621  19.537  17.359  14.856
92554W        W96622  21.442  17.741  15.042
92555W        W96623  20.417  16.394  15.056
92556W        W96624  19.260  15.585  15.573
92557W        W96625  20.092  15.495  14.625
92558W        W96626  20.676  17.060  17.803
92559W        W96627  21.029  14.966  15.420
92560W        W96628  18.359  14.814  14.868
92561W        W96629  19.645  17.133  17.158
92562W        W96630  19.444  17.049  16.250
92563W        W96631  19.186  17.001  14.648
92564W        W96632  18.427  17.242  15.416
92565W        W96633  18.931  16.312  17.858
92566W        W96634  19.635  14.872  18.044
92567W        W96635  20.344  15.014  17.400
92568W        W96636  19.539  14.782  15.681
92569W        W96637  20.598  14.859  15.186
92570W        W96638  18.543  14.791  16.763
92571W        W96639  18.591  15.754  16.133
92572W        W96640  21.280  14.862  16.539
92573W        W96641  18.702  15.360  15.353
92574W        W96642  21.273  15.048  16.969
92575W        W96643  21.669  16.251  14.654
92576W        W96644  18.961  15.009  16.473
92577W        W96645  20.075  15.581  17.413
92578W        W96646  18.223  15.271  14.891
92579W        W96647  19.009  16.660  17.452
92580W        W96648  20.367  16.058  16.631
92581W        W96649  20.234  18.137  14.927
92582W        W96650  18.380  16.644  14.624
92583W        W96651  19.115  17.055  17.750
92584W        W96652  18.636  16.222  17.381
92585W        W96653  19.627  16.327  17.175
92586W        W96654  21.395  14.686  17.437
92587W        W96655  21.793  16.296  17.428
92588W        W96656  21.781  16.496  15.114
92589W        W96657  20.644  16.828  15.213
92590W        W96658  21.118  18.128  14.908
92591W        W96659  20.295  16.118  18.050
92592W        W96660  18.625  17.085  18.090
92593W        W96661  21.831  15.007  18.042
92594W        W96662  21.549  15.935  16.663
92595W        W96663  19.857  18.065  18.140
92596W        W96664  19.712  14.694  14.867
92597W        W96665  21.251  17.293  14.810
92598W        W96666  19.020  15.386  17.696
92599W        W96667  19.454  17.380  17.558
92600W        W96668  21.580  15.371  17.356
92601W        W96669  20.791  18.030  15.324
92602W        W96670  21.030  16.649  16.691
92603W        W96671  19.280  15.065  17.358
92604W        W96672  19.749  16.134  18.115
92605W        W96673  19.252  17.313  15.309
92606W        W96674  21.007  16.811  15.573
92607W        W96675  18.775  15.437  17.297
92608W        W96676  20.104  17.499  15.761
92609W        W96677  21.854  16.059  15.942
92610W        W96678  20.076  14.692  17.661
92611W        W96679  20.856  17.397  16.740
92612W        W96680  21.159  17.741  16.448
92613W        W96681  20.378  17.543  14.876
92614W        W96682  18.388  17.435  17.718
92615W        W96683  19.131  15.427  16.956
92616W        W96684  19.101  14.775  16.066
92617W        W96685  20.722  15.617  16.758
92618W        W96686  19.520  16.788  14.958
92619W        W96687  21.518  16.730  16.457
92620W        W96688  18.845  17.488  17.880
92621W        W96689  21.232  18.170  15.677
92622W        W96690  19.331  15.190  16.122
92623W        W96691  19.100  16.683  16.212
92624W        W96692  19.413  18.094  16.962
92625W        W96693  21.480  18.190  17.994
92626W        W96694  20.639  16.378  16.927
92627W        W96695  18.488  16.176  14.842
92628W        W96696  21.622  17.834  15.539
92629W        W96697  21.459  15.158  15.158
92630W        W96698  19.598  14.677  17.561
92631W        W96699  21.304  17.479  16.019
92632W        W96700  21.333  16.035  15.924
92633W        W96701  19.450  15.708  16.140
92634W        W96702  19.695  15.970  17.464
92635W        W96703  20.806  17.123  17.327
92636W        W96704  19.456  15.577  17.439
92637W        W96705  19.435  18.043  16.055
92638W        W96706  18.752  18.002  17.689
92639W        W96707  18.864  17.363  14.819
92640W        W96708  21.381  17.121  15.629
92641W        W96709  18.985  15.913  17.515
92642W        W96710  21.758  15.843  14.996
92643W        W96711  19.503  16.900  15.467
92644W        W96712  20.602  16.282  17.548
92645W        W96713  20.493  15.910  17.092
92646W        W96714  19.053  16.282  17.121
92647W        W96715  21.263  18.170  16.950
92648W        W96716  21.054  14.804  17.944
92649W        W96717  18.718  14.954  17.531
92650W        W96718  19.057  15.977  16.584
92651W        W96719  19.426  15.791  14.706
92652W        W96720  18.229  17.550  17.251
92653W        W96721  19.814  16.259  16.694
92654W        W96722  19.637  15.284  14.799
92655W        W96723  18.772  16.100  15.580
92656W        W96724  18.543  17.952  17.017
92657W        W96725  21.338  16.178  15.125
92658W        W96726  21.433  15.094  17.811
92659W        W96727  20.869  17.303  15.774
92660W        W96728  18.467  16.227  17.951
92661W        W96729  21.433  14.691  15.247
92662W        W96730  20.953  17.166  15.258
92663W        W96731  19.855  16.224  15.343
92664W        W96732  21.042  15.028  14.866
92665W        W96733  21.107  15.635  17.052
92666W        W96734  18.816  16.228  16.259
92667W        W96735  19.110  17.167  15.908
92668W        W96736  20.873  15.787  15.873
92669W        W96737  19.896  15.166  16.569
92670W        W96738  21.858  17.077  17.080
92671W        W96739  21.776  15.064  16.641
92672W        W96740  18.315  17.894  16.017
92673W        W96741  18.824  17.081  15.553
92674W        W96742  18.739  14.698  18.106
92675W        W96743  19.858  17.551  18.208
92676W        W96744  21.613  16.519  15.998
92677W        W96745  20.967  16.696  14.878
92678W        W96746  20.262  18.217  17.090
92679W        W96747  21.119  16.939  18.127
92680W        W96748  19.934  14.649  15.407
92681W        W96749  20.647  15.518  16.266
92682W        W96750  18.333  17.105  16.598
92683W        W96751  19.586  15.067  15.239
92684W        W96752  19.390  16.551  18.088
92685W        W96753  20.384  15.532  15.802
92686W        W96754  20.589  16.942  16.924
92687W        W96755  18.743  17.547  17.359
92688W        W96756  19.334  17.530  18.082
92689W        W96757  19.185  15.327  15.096
92690W        W96758  20.702  15.469  15.421
92691W        W96759  20.660  17.577  17.658
92692W        W96760  19.345  16.169  16.257
92693W        W96761  19.000  17.867  17.122
92694W        W96762  21.745  17.984  14.723
92695W        W96763  18.608  16.656  17.719
92696W        W96764  20.603  16.918  16.407
92697W        W96765  19.039  16.567  15.649
92698W        W96766  19.410  17.574  17.044
92699W        W96767  19.788  14.993  16.085
92700W        W96768  18.399  16.977  15.015
92701W        W96769  19.918  15.928  14.885
92702W        W96770  18.564  16.477  15.904
92703W        W96771  19.854  15.119  17.368
92704W        W96772  21.526  14.828  14.795
92705W        W96773  21.619  16.574  17.894
92706W        W96774  20.273  17.831  18.046
92707W        W96775  21.831  16.925  17.568
92708W        W96776  21.239  17.723  18.179
92709W        W96777  18.978  18.179  16.657
92710W        W96778  21.837  16.801  15.531
92711W        W96779  20.367  16.068  16.044
92712W        W96780  20.134  14.680  15.934
92713W        W96781  19.193  17.664  15.771
92714W        W96782  19.692  15.405  16.996
92715W        W96783  19.392  14.774  16.465
92716W        W96784  18.455  17.596  15.013
92717W        W96785  20.271  16.960  15.731
92718W        W96786  19.146  17.755  17.610
92719W        W96787  18.623  16.578  15.306
92720W        W96788  18.508  15.121  16.305
92721W        W96789  20.056  17.086  16.362
92722W        W96790  18.308  14.940  15.382
92723W        W96791  20.972  16.146  17.309
92724W        W96792  20.849  15.532  14.881
92725W        W96793  21.366  17.204  16.529
92726W        W96794  20.027  17.688  16.360
92727W        W96795  19.439  17.792  15.271
92728W        W96796  20.721  14.695  14.701
92729W        W96797  18.521  17.955  16.442
92730W        W96798  20.718  15.713  18.077
92731W        W96799  18.701  15.243  18.076
92732W        W96800  18.432  15.843  15.409
92733W        W96801  19.123  15.832  15.134
92734W        W96802  20.886  16.159  17.951
92735W        W96803  19.229  16.440  16.660
92736W        W96804  20.703  14.726  15.780
92737W        W96805  19.834  18.157  16.283
92738W        W96806  21.048  17.619  17.220
92739W        W96807  20.632  17.768  16.331
92740W        W96808  20.651  16.748  15.925
92741W        W96809  20.113  14.973  14.996
92742W        W96810  21.794  14.601  15.718
92743W        W96811  19.482  16.236  14.881
92744W        W96812  21.648  15.573  15.871
92745W        W96813  20.340  16.743  14.748
92746W        W96814  21.276  16.943  17.496
92747W        W96815  20.930  17.644  14.963
92748W        W96816  19.545  15.319  17.869
92749W        W96817  19.365  15.903  17.110
92750W        W96818  21.457  17.398  17.387
92751W        W96819  20.557  15.348  17.764
92752W        W96820  18.401  15.819  17.541
92753W        W96821  20.161  16.296  17.267
92754W        W96822  18.518  17.054  15.924
92755W        W96823  18.665  16.351  16.814
92756W        W96824  20.982  16.637  17.164
92757W        W96825  20.754  18.017  17.975
92758W        W96826  20.650  15.756  17.528
92759W        W96827  20.927  17.810  15.933
92760W        W96828  19.929  17.530  17.256
92761W        W96829  19.414  17.885  16.525
92762W        W96830  21.219  17.056  16.944
92763W        W96831  20.269  17.128  18.081
92764W        W96832  18.874  17.081  16.420
92765W        W96833  21.220  16.840  16.065
92766W        W96834  20.861  17.906  16.816
92767W        W96835  18.839  17.635  16.686
92768W        W96836  19.860  15.687  17.896
92769W        W96837  20.311  17.853  15.407
92770W        W96838  19.619  17.108  18.045
92771W        W96839  19.745  17.346  15.422
92772W        W96840  18.966  16.086  14.681
92773W        W96841  18.305  18.172  21.580
92774W        W96842  18.681  17.065  21.103
92775W        W96843  21.386  16.795  18.873
92776W        W96844  21.516  17.880  20.900
92777W        W96845  19.434  17.871  18.426
92778W        W96846  19.517  16.023  19.409
92779W        W96847  19.032  15.871  19.573
92780W        W96848  20.023  16.686  19.007
92781W        W96849  19.698  17.778  21.362
92782W        W96850  18.347  15.339  21.325
92783W        W96851  19.109  14.619  21.127
92784W        W96852  20.803  15.007  20.014
92785W        W96853  20.452  15.878  18.584
92786W        W96854  21.022  15.312  21.675
92787W        W96855  18.388  15.104  20.800
92788W        W96856  18.487  17.723  21.821
92789W        W96857  20.009  17.113  18.553
92790W        W96858  18.441  15.896  20.246
92791W        W96859  19.334  15.787  21.483
92792W        W96860  21.793  15.646  19.982
92793W        W96861  21.557  16.689  20.841
92794W        W96862  19.865  16.022  19.868
92795W        W96863  20.411  17.361  20.237
92796W        W96864  18.911  16.795  20.469
92797W        W96865  18.270  16.323  20.040
92798W        W96866  19.306  16.295  21.232
92799W        W96867  21.577  16.078  21.486
92800W        W96868  19.193  17.522  19.931
92801W        W96869  20.314  17.211  21.065
92802W        W96870  19.534  15.851  20.290
92803W        W96871  19.826  16.635  19.933
92804W        W96872  20.823  17.408  21.781
92805W        W96873  19.902  16.728  21.791
92806W        W96874  19.883  16.444  21.269
92807W        W96875  18.292  15.835  21.791
92808W        W96876  21.124  17.370  21.390
92809W        W96877  18.705  14.952  19.388
92810W        W96878  19.232  17.210  20.387
92811W        W96879  21.695  16.993  19.677
92812W        W96880  21.108  15.393  20.244
92813W        W96881  21.393  15.346  18.339
92814W        W96882  21.858  16.147  20.645
92815W        W96883  19.825  17.854  20.398
92816W        W96884  21.599  17.320  18.836
92817W        W96885  18.728  18.106  18.590
92818W        W96886  19.121  18.152  19.266
92819W        W96887  18.918  14.906  20.692
92820W        W96888  21.541  15.924  20.967
92821W        W96889  20.946  16.346  19.426
92822W        W96890  20.912  16.034  18.453
92823W        W96891  20.120  17.178  20.593
92824W        W96892  19.926  15.508  19.792
92825W        W96893  20.526  17.595  20.786
92826W        W96894  21.397  16.386  19.208
92827W        W96895  20.299  15.044  19.224
92828W        W96896  18.956  17.738  18.907
92829W        W96897  18.327  15.237  19.506
92830W        W96898  21.113  15.844  19.980
92831W        W96899  18.571  17.461  19.895
92832W        W96900  19.912  17.811  18.765
92833W        W96901  21.304  15.837  18.229
92834W        W96902  18.327  17.595  20.393
92835W        W96903  19.118  17.167  20.873
92836W        W96904  19.491  16.527  19.492
92837W        W96905  19.513  14.932  20.585
92838W        W96906  21.742  14.694  19.882
92839W        W96907  18.961  16.566  18.350
92840W        W96908  18.616  15.599  18.529
92841W        W96909  18.678  17.555  19.323
92842W        W96910  19.809  17.038  19.571
92843W        W96911  21.141  17.897  21.285
92844W        W96912  20.067  15.539  18.969
92845W        W96913  21.450  17.937  19.741
92846W        W96914  21.127  15.790  21.339
92847W        W96915  21.840  17.446  19.473
92848W        W96916  20.467  16.738  20.957
92849W        W96917  18.233  16.289  19.163
92850W        W96918  19.344  16.704  20.736
92851W        W96919  20.548  15.968  19.114
92852W        W96920  20.425  16.458  19.218
92853W        W96921  18.768  15.878  20.692
92854W        W96922  18.753  15.754  21.614
92855W        W96923  18.643  14.671  19.773
92856W        W96924  20.411  15.018  20.334
92857W        W96925  20.059  15.203  21.497
92858W        W96926  20.414  15.352  18.675
92859W        W96927  21.597  17.745  21.429
92860W        W96928  20.564  14.826  21.468
92861W        W96929  21.583  17.127  21.590
92862W        W96930  21.013  15.294  21.186
92863W        W96931  20.813  15.232  19.456
92864W        W96932  21.206  16.366  21.860
92865W        W96933  18.946  17.942  19.846
92866W        W96934  19.604  15.659  18.832
92867W        W96935  19.173  14.943  21.496
92868W        W96936  21.225  15.427  19.177
92869W        W96937  21.592  15.909  19.122
92870W        W96938  19.335  18.126  21.593
92871W        W96939  19.261  14.662  18.828
92872W        W96940  21.582  15.196  19.863
92873W        W96941  21.732  17.445  18.308
92874W        W96942  18.639  16.648  20.010
92875W        W96943  20.556  15.235  18.240
92876W        W96944  21.690  17.567  19.960
92877W        W96945  21.729  14.761  20.710
92878W        W96946  20.174  15.973  21.264
92879W        W96947  20.267  17.312  18.967
92880W        W96948  20.667  16.606  21.707
92881W        W96949  20.341  14.583  20.016
92882W        W96950  18.953  15.486  20.079
92883W        W96951  18.507  16.686  20.853
92884W        W96952  20.366  17.879  19.559
92885W        W96953  21.560  15.476  20.431
92886W        W96954  20.197  17.823  21.198
92887W        W96955  21.540  16.882  18.403
92888W        W96956  19.975  16.365  19.464
92889W        W96957  21.827  14.876  21.205
92890W        W96958  19.976  16.711  20.799
92891W        W96959  20.193  15.597  20.244
92892W        W96960  21.045  15.895  19.082
92893W        W96961  21.332  15.628  18.724
92894W        W96962  21.141  17.668  19.113
92895W        W96963  20.975  17.271  19.909
92896W        W96964  20.871  16.350  18.887
92897W        W96965  20.304  16.560  19.873
92898W        W96966  21.185  16.348  19.940
92899W        W96967  18.560  15.363  20.364
92900W        W96968  21.338  16.415  21.191
92901W        W96969  21.689  18.033  20.337
92902W        W96970  19.619  17.477  19.739
92903W        W96971  20.626  18.010  21.063
92904W        W96972  20.620  15.340  20.827
92905W        W96973  19.827  18.048  20.888
92906W        W96974  21.524  15.002  19.354
92907W        W96975  21.315  16.321  20.655
92908W        W96976  18.298  15.642  20.693
92909W        W96977  21.158  15.437  19.711
92910W        W96978  21.569  15.588  21.488
92911W        W96979  20.454  17.287  19.706
92912W        W96980  19.710  17.878  19.319
92913W        W96981  18.825  15.058  18.577
92914W        W96982  19.929  14.712  20.387
92915W        W96983  18.957  17.832  18.235
92916W        W96984  19.331  16.298  18.986
92917W        W96985  19.985  16.927  21.299
92918W        W96986  19.815  15.285  19.289
92919W        W96987  21.171  14.882  19.717
92920W        W96988  20.891  18.164  20.045
92921W        W96989  20.303  17.812  20.385
92922W        W96990  19.699  16.849  20.346
92923W        W96991  21.469  17.572  20.472
92924W        W96992  19.163  15.075  19.241
92925W        W96993  19.685  17.372  20.201
92926W        W96994  19.168  15.303  18.266
92927W        W96995  19.969  15.912  20.660
92928W        W96996  20.817  14.778  20.530
92929W        W96997  18.237  16.621  20.415
92930W        W96998  19.941  16.439  18.573
92931W        W96999  19.209  14.754  18.343
92932W        W97000  19.947  15.835  19.394
92933W        W97001  20.917  14.811  21.093
92934W        W97002  19.505  16.823  21.202
92935W        W97003  20.309  16.605  21.419
92936W        W97004  20.926  16.635  21.312
92937W        W97005  20.210  14.775  21.817
92938W        W97006  19.432  15.391  20.210
92939W        W97007  18.858  15.347  19.608
92940W        W97008  18.644  18.059  19.284
92941W        W97009  19.976  17.389  21.409
92942W        W97010  19.011  16.874  18.768
92943W        W97011  20.691  16.259  19.989
92944W        W97012  20.971  16.058  20.388
92945W        W97013  20.176  16.732  20.322
92946W        W97014  20.646  17.106  18.454
92947W        W97015  20.318  15.127  19.782
92948W        W97016  21.797  15.405  19.050
92949W        W97017  18.291  17.994  21.081
92950W        W97018  18.708  17.220  20.613
92951W        W97019  18.275  18.066  18.845
92952W        W97020  20.174  15.336  20.651
92953W        W97021  19.537  17.359  18.500
92954W        W97022  21.442  17.741  18.686
92955W        W97023  20.417  16.394  18.700
92956W        W97024  19.260  15.585  19.217
92957W        W97025  20.092  15.495  18.269
92958W        W97026  20.676  17.060  21.447
92959W        W97027  21.029  14.966  19.064
92960W        W97028  18.359  14.814  18.512
92961W        W97029  19.645  17.133  20.802
92962W        W97030  19.444  17.049  19.894
92963W        W97031  19.186  17.001  18.292
92964W        W97032  18.427  17.242  19.060
92965W        W97033  18.931  16.312  21.502
92966W        W97034  19.635  14.872  21.688
92967W        W97035  20.344  15.014  21.044
92968W        W97036  19.539  14.782  19.325
92969W        W97037  20.598  14.859  18.830
92970W        W97038  18.543  14.791  20.407
92971W        W97039  18.591  15.754  19.777
92972W        W97040  21.280  14.862  20.183
92973W        W97041  18.702  15.360  18.997
92974W        W97042  21.273  15.048  20.613
92975W        W97043  21.669  16.251  18.298
92976W        W97044  18.961  15.009  20.117
92977W        W97045  20.075  15.581  21.057
92978W        W97046  18.223  15.271  18.535
92979W        W97047  19.009  16.660  21.096
92980W        W97048  20.367  16.058  20.275
92981W        W97049  20.234  18.137  18.571
92982W        W97050  18.380  16.644  18.268
92983W        W97051  19.115  17.055  21.394
92984W        W97052  18.636  16.222  21.025
92985W        W97053  19.627  16.327  20.819
92986W        W97054  21.395  14.686  21.081
92987W        W97055  21.793  16.296  21.072
92988W        W97056  21.781  16.496  18.758
92989W        W97057  20.644  16.828  18.857
92990W        W97058  21.118  18.128  18.552
92991W        W97059  20.295  16.118  21.694
92992W        W97060  18.625  17.085  21.734
92993W        W97061  21.831  15.007  21.686
92994W        W97062  21.549  15.935  20.307
92995W        W97063  19.857  18.065  21.784
92996W        W97064  19.712  14.694  18.511
92997W        W97065  21.251  17.293  18.454
92998W        W97066  19.020  15.386  21.340
92999W        W97067  19.454  17.380  21.202
93000W        W97068  21.580  15.371  21.000
93001W        W97069  20.791  18.030  18.968
93002W        W97070  21.030  16.649  20.335
93003W        W97071  19.280  15.065  21.002
93004W        W97072  19.749  16.134  21.759
93005W        W97073  19.252  17.313  18.953
93006W        W97074  21.007  16.811  19.217
93007W        W97075  18.775  15.437  20.941
93008W        W97076  20.104  17.499  19.405
93009W        W97077  21.854  16.059  19.586
93010W        W97078  20.076  14.692  21.305
93011W        W97079  20.856  17.397  20.384
93012W        W97080  21.159  17.741  20.092
93013W        W97081  20.378  17.543  18.520
93014W        W97082  18.388  17.435  21.362
93015W        W97083  19.131  15.427  20.600
93016W        W97084  19.101  14.775  19.710
93017W        W97085  20.722  15.617  20.402
93018W        W97086  19.520  16.788  18.602
93019W        W97087  21.518  16.730  20.101
93020W        W97088  18.845  17.488  21.524
93021W        W97089  21.232  18.170  19.321
93022W        W97090  19.331  15.190  19.766
93023W        W97091  19.100  16.683  19.856
93024W        W97092  19.413  18.094  20.606
93025W        W97093  21.480  18.190  21.638
93026W        W97094  20.639  16.378  20.571
93027W        W97095  18.488  16.176  18.486
93028W        W97096  21.622  17.834  19.183
93029W        W97097  21.459  15.158  18.802
93030W        W97098  19.598  14.677  21.205
93031W        W97099  21.304  17.479  19.663
93032W        W97100  21.333  16.035  19.568
93033W        W97101  19.450  15.708  19.784
93034W        W97102  19.695  15.970  21.108
93035W        W97103  20.806  17.123  20.971
93036W        W97104  19.456  15.577  21.083
93037W        W97105  19.435  18.043  19.699
93038W        W97106  18.752  18.002  21.333
93039W        W97107  18.864  17.363  18.463
93040W        W97108  21.381  17.121  19.273
93041W        W97109  18.985  15.913  21.159
93042W        W97110  21.758  15.843  18.640
93043W        W97111  19.503  16.900  19.111
93044W        W97112  20.602  16.282  21.192
93045W        W97113  20.493  15.910  20.736
93046W        W97114  19.053  16.282  20.765
93047W        W97115  21.263  18.170  20.594
93048W        W97116  21.054  14.804  21.588
93049W        W97117  18.718  14.954  21.175
93050W        W97118  19.057  15.977  20.228
93051W        W97119  19.426  15.791  18.350
93052W        W97120  18.229  17.550  20.895
93053W        W97121  19.814  16.259  20.338
93054W        W97122  19.637  15.284  18.443
93055W        W97123  18.772  16.100  19.224
93056W        W97124  18.543  17.952  20.661
93057W        W97125  21.338  16.178  18.769
93058W        W97126  21.433  15.094  21.455
93059W        W97127  20.869  17.303  19.418
93060W        W97128  18.467  16.227  21.595
93061W        W97129  21.433  14.691  18.891
93062W        W97130  20.953  17.166  18.902
93063W        W97131  19.855  16.224  18.987
93064W        W97132  21.042  15.028  18.510
93065W        W97133  21.107  15.635  20.696
93066W        W97134  18.816  16.228  19.903
93067W        W97135  19.110  17.167  19.552
93068W        W97136  20.873  15.787  19.517
93069W        W97137  19.896  15.166  20.213
93070W        W97138  21.858  17.077  20.724
93071W        W97139  21.776  15.064  20.285
93072W        W97140  18.315  17.894  19.661
93073W        W97141  18.824  17.081  19.197
93074W        W97142  18.739  14.698  21.750
93075W        W97143  19.858  17.551  21.852
93076W        W97144  21.613  16.519  19.642
93077W        W97145  20.967  16.696  18.522
93078W        W97146  20.262  18.217  20.734
93079W        W97147  21.119  16.939  21.771
93080W        W97148  19.934  14.649  19.051
93081W        W97149  20.647  15.518  19.910
93082W        W97150  18.333  17.105  20.242
93083W        W97151  19.586  15.067  18.883
93084W        W97152  19.390  16.551  21.732
93085W        W97153  20.384  15.532  19.446
93086W        W97154  20.589  16.942  20.568
93087W        W97155  18.743  17.547  21.003
93088W        W97156  19.334  17.530  21.726
93089W        W97157  19.185  15.327  18.740
93090W        W97158  20.702  15.469  19.065
93091W        W97159  20.660  17.577  21.302
93092W        W97160  19.345  16.169  19.901
93093W        W97161  19.000  17.867  20.766
93094W        W97162  21.745  17.984  18.367
93095W        W97163  18.608  16.656  21.363
93096W        W97164  20.603  16.918  20.051
93097W        W97165  19.039  16.567  19.293
93098W        W97166  19.410  17.574  20.688
93099W        W97167  19.788  14.993  19.729
93100W        W97168  18.399  16.977  18.659
93101W        W97169  19.918  15.928  18.529
93102W        W97170  18.564  16.477  19.548
93103W        W97171  19.854  15.119  21.012
93104W        W97172  21.526  14.828  18.439
93105W        W97173  21.619  16.574  21.538
93106W        W97174  20.273  17.831  21.690
93107W        W97175  21.831  16.925  21.212
93108W        W97176  21.239  17.723  21.823
93109W        W97177  18.978  18.179  20.301
93110W        W97178  21.837  16.801  19.175
93111W        W97179  20.367  16.068  19.688
93112W        W97180  20.134  14.680  19.578
93113W        W97181  19.193  17.664  19.415
93114W        W97182  19.692  15.405  20.640
93115W        W97183  19.392  14.774  20.109
93116W        W97184  18.455  17.596  18.657
93117W        W97185  20.271  16.960  19.375
93118W        W97186  19.146  17.755  21.254
93119W        W97187  18.623  16.578  18.950
93120W        W97188  18.508  15.121  19.949
93121W        W97189  20.056  17.086  20.006
93122W        W97190  18.308  14.940  19.026
93123W        W97191  20.972  16.146  20.953
93124W        W97192  20.849  15.532  18.525
93125W        W97193  21.366  17.204  20.173
93126W        W97194  20.027  17.688  20.004
93127W        W97195  19.439  17.792  18.915
93128W        W97196  20.721  14.695  18.345
93129W        W97197  18.521  17.955  20.086
93130W        W97198  20.718  15.713  21.721
93131W        W97199  18.701  15.243  21.720
93132W        W97200  18.432  15.843  19.053
93133W        W97201  19.123  15.832  18.778
93134W        W97202  20.886  16.159  21.595
93135W        W97203  19.229  16.440  20.304
93136W        W97204  20.703  14.726  19.424
93137W        W97205  19.834  18.157  19.927
93138W        W97206  21.048  17.619  20.864
93139W        W97207  20.632  17.768  19.975
93140W        W97208  20.651  16.748  19.569
93141W        W97209  20.113  14.973  18.640
93142W        W97210  21.794  14.601  19.362
93143W        W97211  19.482  16.236  18.525
93144W        W97212  21.648  15.573  19.515
93145W        W97213  20.340  16.743  18.392
93146W        W97214  21.276  16.943  21.140
93147W        W97215  20.930  17.644  18.607
93148W        W97216  19.545  15.319  21.513
93149W        W97217  19.365  15.903  20.754
93150W        W97218  21.457  17.398  21.031
93151W        W97219  20.557  15.348  21.408
93152W        W97220  18.401  15.819  21.185
93153W        W97221  20.161  16.296  20.911
93154W        W97222  18.518  17.054  19.568
93155W        W97223  18.665  16.351  20.458
93156W        W97224  20.982  16.637  20.808
93157W        W97225  20.754  18.017  21.619
93158W        W97226  20.650  15.756  21.172
93159W        W97227  20.927  17.810  19.577
93160W        W97228  19.929  17.530  20.900
93161W        W97229  19.414  17.885  20.169
93162W        W97230  21.219  17.056  20.588
93163W        W97231  20.269  17.128  21.725
93164W        W97232  18.874  17.081  20.064
93165W        W97233  21.220  16.840  19.709
93166W        W97234  20.861  17.906  20.460
93167W        W97235  18.839  17.635  20.330
93168W        W97236  19.860  15.687  21.540
93169W        W97237  20.311  17.853  19.051
93170W        W97238  19.619  17.108  21.689
93171W        W97239  19.745  17.346  19.066
93172W        W97240  18.966  16.086  18.325
93173W        W97241  21.386  16.795  22.518
93174W        W97242  19.434  17.871  22.071
93175W        W97243  19.517  16.023  23.054
93176W        W97244  19.032  15.871  23.218
93177W        W97245  20.023  16.686  22.652
93178W        W97246  20.452  15.878  22.229
93179W        W97247  20.009  17.113  22.198
93180W        W97248  18.705  14.952  23.033
93181W        W97249  21.393  15.346  21.984
93182W        W97250  21.599  17.320  22.481
93183W        W97251  18.728  18.106  22.235
93184W        W97252  19.121  18.152  22.911
93185W        W97253  20.946  16.346  23.071
93186W        W97254  20.912  16.034  22.098
93187W        W97255  21.397  16.386  22.853
93188W        W97256  20.299  15.044  22.869
93189W        W97257  18.956  17.738  22.552
93190W        W97258  19.912  17.811  22.410
93191W        W97259  21.304  15.837  21.874
93192W        W97260  19.491  16.527  23.137
93193W        W97261  18.961  16.566  21.995
93194W        W97262  18.616  15.599  22.174
93195W        W97263  18.678  17.555  22.968
93196W        W97264  19.809  17.038  23.216
93197W        W97265  20.067  15.539  22.614
93198W        W97266  18.233  16.289  22.808
93199W        W97267  20.548  15.968  22.759
93200W        W97268  20.425  16.458  22.863
93201W        W97269  20.414  15.352  22.320
93202W        W97270  20.813  15.232  23.101
93203W        W97271  19.604  15.659  22.477
93204W        W97272  21.225  15.427  22.822
93205W        W97273  21.592  15.909  22.767
93206W        W97274  19.261  14.662  22.473
93207W        W97275  21.732  17.445  21.953
93208W        W97276  20.556  15.235  21.885
93209W        W97277  20.267  17.312  22.612
93210W        W97278  20.366  17.879  23.204
93211W        W97279  21.540  16.882  22.048
93212W        W97280  19.975  16.365  23.109
93213W        W97281  21.045  15.895  22.727
93214W        W97282  21.332  15.628  22.369
93215W        W97283  21.141  17.668  22.758
93216W        W97284  20.871  16.350  22.532
93217W        W97285  21.524  15.002  22.999
93218W        W97286  19.710  17.878  22.964
93219W        W97287  18.825  15.058  22.222
93220W        W97288  18.957  17.832  21.880
93221W        W97289  19.331  16.298  22.631
93222W        W97290  19.815  15.285  22.934
93223W        W97291  19.163  15.075  22.886
93224W        W97292  19.168  15.303  21.911
93225W        W97293  19.941  16.439  22.218
93226W        W97294  19.209  14.754  21.988
93227W        W97295  19.947  15.835  23.039
93228W        W97296  18.858  15.347  23.253
93229W        W97297  18.644  18.059  22.929
93230W        W97298  19.011  16.874  22.413
93231W        W97299  20.646  17.106  22.099
93232W        W97300  21.797  15.405  22.695
93233W        W97301  18.275  18.066  22.490
93234W        W97302  19.537  17.359  22.145
93235W        W97303  21.442  17.741  22.331
93236W        W97304  20.417  16.394  22.345
93237W        W97305  19.260  15.585  22.862
93238W        W97306  20.092  15.495  21.914
93239W        W97307  21.029  14.966  22.709
93240W        W97308  18.359  14.814  22.157
93241W        W97309  19.186  17.001  21.937
93242W        W97310  18.427  17.242  22.705
93243W        W97311  19.539  14.782  22.970
93244W        W97312  20.598  14.859  22.475
93245W        W97313  18.702  15.360  22.642
93246W        W97314  21.669  16.251  21.943
93247W        W97315  18.223  15.271  22.180
93248W        W97316  20.234  18.137  22.216
93249W        W97317  18.380  16.644  21.913
93250W        W97318  21.781  16.496  22.403
93251W        W97319  20.644  16.828  22.502
93252W        W97320  21.118  18.128  22.197
93253W        W97321  19.712  14.694  22.156
93254W        W97322  21.251  17.293  22.099
93255W        W97323  20.791  18.030  22.613
93256W        W97324  19.252  17.313  22.598
93257W        W97325  21.007  16.811  22.862
93258W        W97326  20.104  17.499  23.050
93259W        W97327  21.854  16.059  23.231
93260W        W97328  20.378  17.543  22.165
93261W        W97329  19.520  16.788  22.247
93262W        W97330  21.232  18.170  22.966
93263W        W97331  18.488  16.176  22.131
93264W        W97332  21.622  17.834  22.828
93265W        W97333  21.459  15.158  22.447
93266W        W97334  21.333  16.035  23.213
93267W        W97335  18.864  17.363  22.108
93268W        W97336  21.381  17.121  22.918
93269W        W97337  21.758  15.843  22.285
93270W        W97338  19.503  16.900  22.756
93271W        W97339  19.426  15.791  21.995
93272W        W97340  19.637  15.284  22.088
93273W        W97341  18.772  16.100  22.869
93274W        W97342  21.338  16.178  22.414
93275W        W97343  20.869  17.303  23.063
93276W        W97344  21.433  14.691  22.536
93277W        W97345  20.953  17.166  22.547
93278W        W97346  19.855  16.224  22.632
93279W        W97347  21.042  15.028  22.155
93280W        W97348  19.110  17.167  23.197
93281W        W97349  20.873  15.787  23.162
93282W        W97350  18.315  17.894  23.306
93283W        W97351  18.824  17.081  22.842
93284W        W97352  21.613  16.519  23.287
93285W        W97353  20.967  16.696  22.167
93286W        W97354  19.934  14.649  22.696
93287W        W97355  19.586  15.067  22.528
93288W        W97356  20.384  15.532  23.091
93289W        W97357  19.185  15.327  22.385
93290W        W97358  20.702  15.469  22.710
93291W        W97359  21.745  17.984  22.012
93292W        W97360  18.399  16.977  22.304
93293W        W97361  19.918  15.928  22.174
93294W        W97362  18.564  16.477  23.193
93295W        W97363  21.526  14.828  22.084
93296W        W97364  21.837  16.801  22.820
93297W        W97365  20.134  14.680  23.223
93298W        W97366  19.193  17.664  23.060
93299W        W97367  18.455  17.596  22.302
93300W        W97368  20.271  16.960  23.020
93301W        W97369  18.623  16.578  22.595
93302W        W97370  18.308  14.940  22.671
93303W        W97371  20.849  15.532  22.170
93304W        W97372  19.439  17.792  22.560
93305W        W97373  20.721  14.695  21.990
93306W        W97374  18.432  15.843  22.698
93307W        W97375  19.123  15.832  22.423
93308W        W97376  20.651  16.748  23.214
93309W        W97377  20.113  14.973  22.285
93310W        W97378  21.794  14.601  23.007
93311W        W97379  19.482  16.236  22.170
93312W        W97380  21.648  15.573  23.160
93313W        W97381  20.340  16.743  22.037
93314W        W97382  20.930  17.644  22.252
93315W        W97383  18.518  17.054  23.213
93316W        W97384  20.927  17.810  23.222
93317W        W97385  20.311  17.853  22.696
93318W        W97386  19.745  17.346  22.711
93319W        W97387  18.966  16.086  21.970
93320W        W97388  18.305  21.816   3.359
93321W        W97389  18.681  20.709   2.882
93322W        W97390  21.386  20.439   0.652
93323W        W97391  21.516  21.524   2.679
93324W        W97392  19.434  21.515   0.205
93325W        W97393  19.517  19.667   1.188
93326W        W97394  19.032  19.515   1.352
93327W        W97395  20.023  20.330   0.786
93328W        W97396  19.698  21.422   3.141
93329W        W97397  18.347  18.983   3.104
93330W        W97398  19.109  18.263   2.906
93331W        W97399  20.803  18.651   1.793
93332W        W97400  20.452  19.522   0.363
93333W        W97401  21.022  18.956   3.454
93334W        W97402  18.388  18.748   2.579
93335W        W97403  18.487  21.367   3.600
93336W        W97404  20.009  20.757   0.332
93337W        W97405  18.441  19.540   2.025
93338W        W97406  19.334  19.431   3.262
93339W        W97407  21.793  19.290   1.761
93340W        W97408  21.557  20.333   2.620
93341W        W97409  19.865  19.666   1.647
93342W        W97410  20.411  21.005   2.016
93343W        W97411  18.911  20.439   2.248
93344W        W97412  18.270  19.967   1.819
93345W        W97413  19.306  19.939   3.011
93346W        W97414  21.577  19.722   3.265
93347W        W97415  19.193  21.166   1.710
93348W        W97416  20.314  20.855   2.844
93349W        W97417  19.534  19.495   2.069
93350W        W97418  19.826  20.279   1.712
93351W        W97419  20.823  21.052   3.560
93352W        W97420  19.902  20.372   3.570
93353W        W97421  19.883  20.088   3.048
93354W        W97422  18.292  19.479   3.570
93355W        W97423  21.124  21.014   3.169
93356W        W97424  18.705  18.596   1.167
93357W        W97425  19.232  20.854   2.166
93358W        W97426  21.695  20.637   1.456
93359W        W97427  21.108  19.037   2.023
93360W        W97428  21.393  18.990   0.118
93361W        W97429  21.858  19.791   2.424
93362W        W97430  19.825  21.498   2.177
93363W        W97431  21.599  20.964   0.615
93364W        W97432  18.728  21.750   0.369
93365W        W97433  19.121  21.796   1.045
93366W        W97434  18.918  18.550   2.471
93367W        W97435  21.541  19.568   2.746
93368W        W97436  20.946  19.990   1.205
93369W        W97437  20.912  19.678   0.232
93370W        W97438  20.120  20.822   2.372
93371W        W97439  19.926  19.152   1.571
93372W        W97440  20.526  21.239   2.565
93373W        W97441  21.397  20.030   0.987
93374W        W97442  20.299  18.688   1.003
93375W        W97443  18.956  21.382   0.686
93376W        W97444  18.327  18.881   1.285
93377W        W97445  21.113  19.488   1.759
93378W        W97446  18.571  21.105   1.674
93379W        W97447  19.912  21.455   0.544
93380W        W97448  21.304  19.481   0.008
93381W        W97449  18.327  21.239   2.172
93382W        W97450  19.118  20.811   2.652
93383W        W97451  19.491  20.171   1.271
93384W        W97452  19.513  18.576   2.364
93385W        W97453  21.742  18.338   1.661
93386W        W97454  18.961  20.210   0.129
93387W        W97455  18.616  19.243   0.308
93388W        W97456  18.678  21.199   1.102
93389W        W97457  19.809  20.682   1.350
93390W        W97458  21.141  21.541   3.064
93391W        W97459  20.067  19.183   0.748
93392W        W97460  21.450  21.581   1.520
93393W        W97461  21.127  19.434   3.118
93394W        W97462  21.840  21.090   1.252
93395W        W97463  20.467  20.382   2.736
93396W        W97464  18.233  19.933   0.942
93397W        W97465  19.344  20.348   2.515
93398W        W97466  20.548  19.612   0.893
93399W        W97467  20.425  20.102   0.997
93400W        W97468  18.768  19.522   2.471
93401W        W97469  18.753  19.398   3.393
93402W        W97470  18.643  18.315   1.552
93403W        W97471  20.411  18.662   2.113
93404W        W97472  20.059  18.847   3.276
93405W        W97473  20.414  18.996   0.454
93406W        W97474  21.597  21.389   3.208
93407W        W97475  20.564  18.470   3.247
93408W        W97476  21.583  20.771   3.369
93409W        W97477  21.013  18.938   2.965
93410W        W97478  20.813  18.876   1.235
93411W        W97479  21.206  20.010   3.639
93412W        W97480  18.946  21.586   1.625
93413W        W97481  19.604  19.303   0.611
93414W        W97482  19.173  18.587   3.275
93415W        W97483  21.225  19.071   0.956
93416W        W97484  21.592  19.553   0.901
93417W        W97485  19.335  21.770   3.372
93418W        W97486  19.261  18.306   0.607
93419W        W97487  21.582  18.840   1.642
93420W        W97488  21.732  21.089   0.087
93421W        W97489  18.639  20.292   1.789
93422W        W97490  20.556  18.879   0.019
93423W        W97491  21.690  21.211   1.739
93424W        W97492  21.729  18.405   2.489
93425W        W97493  20.174  19.617   3.043
93426W        W97494  20.267  20.956   0.746
93427W        W97495  20.667  20.250   3.486
93428W        W97496  20.341  18.227   1.795
93429W        W97497  18.953  19.130   1.858
93430W        W97498  18.507  20.330   2.632
93431W        W97499  20.366  21.523   1.338
93432W        W97500  21.560  19.120   2.210
93433W        W97501  20.197  21.467   2.977
93434W        W97502  21.540  20.526   0.182
93435W        W97503  19.975  20.009   1.243
93436W        W97504  21.827  18.520   2.984
93437W        W97505  19.976  20.355   2.578
93438W        W97506  20.193  19.241   2.023
93439W        W97507  21.045  19.539   0.861
93440W        W97508  21.332  19.272   0.503
93441W        W97509  21.141  21.312   0.892
93442W        W97510  20.975  20.915   1.688
93443W        W97511  20.871  19.994   0.666
93444W        W97512  20.304  20.204   1.652
93445W        W97513  21.185  19.992   1.719
93446W        W97514  18.560  19.007   2.143
93447W        W97515  21.338  20.059   2.970
93448W        W97516  21.689  21.677   2.116
93449W        W97517  19.619  21.121   1.518
93450W        W97518  20.626  21.654   2.842
93451W        W97519  20.620  18.984   2.606
93452W        W97520  19.827  21.692   2.667
93453W        W97521  21.524  18.646   1.133
93454W        W97522  21.315  19.965   2.434
93455W        W97523  18.298  19.286   2.472
93456W        W97524  21.158  19.081   1.490
93457W        W97525  21.569  19.232   3.267
93458W        W97526  20.454  20.931   1.485
93459W        W97527  19.710  21.522   1.098
93460W        W97528  18.825  18.702   0.356
93461W        W97529  19.929  18.356   2.166
93462W        W97530  18.957  21.476   0.014
93463W        W97531  19.331  19.942   0.765
93464W        W97532  19.985  20.571   3.078
93465W        W97533  19.815  18.929   1.068
93466W        W97534  21.171  18.526   1.496
93467W        W97535  20.891  21.808   1.824
93468W        W97536  20.303  21.456   2.164
93469W        W97537  19.699  20.493   2.125
93470W        W97538  21.469  21.216   2.251
93471W        W97539  19.163  18.719   1.020
93472W        W97540  19.685  21.016   1.980
93473W        W97541  19.168  18.947   0.045
93474W        W97542  19.969  19.556   2.439
93475W        W97543  20.817  18.422   2.309
93476W        W97544  18.237  20.265   2.194
93477W        W97545  19.941  20.083   0.352
93478W        W97546  19.209  18.398   0.122
93479W        W97547  19.947  19.479   1.173
93480W        W97548  20.917  18.455   2.872
93481W        W97549  19.505  20.467   2.981
93482W        W97550  20.309  20.249   3.198
93483W        W97551  20.926  20.279   3.091
93484W        W97552  20.210  18.419   3.596
93485W        W97553  19.432  19.035   1.989
93486W        W97554  18.858  18.991   1.387
93487W        W97555  18.644  21.703   1.063
93488W        W97556  19.976  21.033   3.188
93489W        W97557  19.011  20.518   0.547
93490W        W97558  20.691  19.903   1.768
93491W        W97559  20.971  19.702   2.167
93492W        W97560  20.176  20.376   2.101
93493W        W97561  20.646  20.750   0.233
93494W        W97562  20.318  18.771   1.561
93495W        W97563  21.797  19.049   0.829
93496W        W97564  18.291  21.638   2.860
93497W        W97565  18.708  20.864   2.392
93498W        W97566  18.275  21.710   0.624
93499W        W97567  20.174  18.980   2.430
93500W        W97568  19.537  21.003   0.279
93501W        W97569  21.442  21.385   0.465
93502W        W97570  20.417  20.038   0.479
93503W        W97571  19.260  19.229   0.996
93504W        W97572  20.092  19.139   0.048
93505W        W97573  20.676  20.704   3.226
93506W        W97574  21.029  18.610   0.843
93507W        W97575  18.359  18.458   0.291
93508W        W97576  19.645  20.777   2.581
93509W        W97577  19.444  20.693   1.673
93510W        W97578  19.186  20.645   0.071
93511W        W97579  18.427  20.886   0.839
93512W        W97580  18.931  19.956   3.281
93513W        W97581  19.635  18.516   3.467
93514W        W97582  20.344  18.658   2.823
93515W        W97583  19.539  18.426   1.104
93516W        W97584  20.598  18.503   0.609
93517W        W97585  18.543  18.435   2.186
93518W        W97586  18.591  19.398   1.556
93519W        W97587  21.280  18.506   1.962
93520W        W97588  18.702  19.004   0.776
93521W        W97589  21.273  18.692   2.392
93522W        W97590  21.669  19.895   0.077
93523W        W97591  18.961  18.653   1.896
93524W        W97592  20.075  19.225   2.836
93525W        W97593  18.223  18.915   0.314
93526W        W97594  19.009  20.304   2.875
93527W        W97595  20.367  19.702   2.054
93528W        W97596  20.234  21.781   0.350
93529W        W97597  18.380  20.288   0.047
93530W        W97598  19.115  20.699   3.173
93531W        W97599  18.636  19.866   2.804
93532W        W97600  19.627  19.971   2.598
93533W        W97601  21.395  18.330   2.860
93534W        W97602  21.793  19.940   2.851
93535W        W97603  21.781  20.140   0.537
93536W        W97604  20.644  20.472   0.636
93537W        W97605  21.118  21.772   0.331
93538W        W97606  20.295  19.762   3.473
93539W        W97607  18.625  20.729   3.513
93540W        W97608  21.831  18.651   3.465
93541W        W97609  21.549  19.579   2.086
93542W        W97610  19.857  21.709   3.563
93543W        W97611  19.712  18.338   0.290
93544W        W97612  21.251  20.937   0.233
93545W        W97613  19.020  19.030   3.119
93546W        W97614  19.454  21.024   2.981
93547W        W97615  21.580  19.015   2.779
93548W        W97616  20.791  21.674   0.747
93549W        W97617  21.030  20.293   2.114
93550W        W97618  19.280  18.709   2.781
93551W        W97619  19.749  19.778   3.538
93552W        W97620  19.252  20.957   0.732
93553W        W97621  21.007  20.455   0.996
93554W        W97622  18.775  19.081   2.720
93555W        W97623  20.104  21.143   1.184
93556W        W97624  21.854  19.703   1.365
93557W        W97625  20.076  18.336   3.084
93558W        W97626  20.856  21.041   2.163
93559W        W97627  21.159  21.385   1.871
93560W        W97628  20.378  21.187   0.299
93561W        W97629  18.388  21.079   3.141
93562W        W97630  19.131  19.071   2.379
93563W        W97631  19.101  18.419   1.489
93564W        W97632  20.722  19.261   2.181
93565W        W97633  19.520  20.432   0.381
93566W        W97634  21.518  20.374   1.880
93567W        W97635  18.845  21.132   3.303
93568W        W97636  21.232  21.814   1.100
93569W        W97637  19.331  18.834   1.545
93570W        W97638  19.100  20.327   1.635
93571W        W97639  19.413  21.738   2.385
93572W        W97640  21.480  21.834   3.417
93573W        W97641  20.639  20.022   2.350
93574W        W97642  18.488  19.820   0.265
93575W        W97643  21.622  21.478   0.962
93576W        W97644  21.459  18.802   0.581
93577W        W97645  19.598  18.321   2.984
93578W        W97646  21.304  21.123   1.442
93579W        W97647  21.333  19.679   1.347
93580W        W97648  19.450  19.352   1.563
93581W        W97649  19.695  19.614   2.887
93582W        W97650  20.806  20.767   2.750
93583W        W97651  19.456  19.221   2.862
93584W        W97652  19.435  21.687   1.478
93585W        W97653  18.752  21.646   3.112
93586W        W97654  18.864  21.007   0.242
93587W        W97655  21.381  20.765   1.052
93588W        W97656  18.985  19.557   2.938
93589W        W97657  21.758  19.487   0.419
93590W        W97658  19.503  20.544   0.890
93591W        W97659  20.602  19.926   2.971
93592W        W97660  20.493  19.554   2.515
93593W        W97661  19.053  19.926   2.544
93594W        W97662  21.263  21.814   2.373
93595W        W97663  21.054  18.448   3.367
93596W        W97664  18.718  18.598   2.954
93597W        W97665  19.057  19.621   2.007
93598W        W97666  19.426  19.435   0.129
93599W        W97667  18.229  21.194   2.674
93600W        W97668  19.814  19.903   2.117
93601W        W97669  19.637  18.928   0.222
93602W        W97670  18.772  19.744   1.003
93603W        W97671  18.543  21.596   2.440
93604W        W97672  21.338  19.822   0.548
93605W        W97673  21.433  18.738   3.234
93606W        W97674  20.869  20.947   1.197
93607W        W97675  18.467  19.871   3.374
93608W        W97676  21.433  18.335   0.670
93609W        W97677  20.953  20.810   0.681
93610W        W97678  19.855  19.868   0.766
93611W        W97679  21.042  18.672   0.289
93612W        W97680  21.107  19.279   2.475
93613W        W97681  18.816  19.872   1.682
93614W        W97682  19.110  20.811   1.331
93615W        W97683  20.873  19.431   1.296
93616W        W97684  19.896  18.810   1.992
93617W        W97685  21.858  20.721   2.503
93618W        W97686  21.776  18.708   2.064
93619W        W97687  18.315  21.538   1.440
93620W        W97688  18.824  20.725   0.976
93621W        W97689  18.739  18.342   3.529
93622W        W97690  19.858  21.195   3.631
93623W        W97691  21.613  20.163   1.421
93624W        W97692  20.967  20.340   0.301
93625W        W97693  20.262  21.861   2.513
93626W        W97694  21.119  20.583   3.550
93627W        W97695  19.934  18.293   0.830
93628W        W97696  20.647  19.162   1.689
93629W        W97697  18.333  20.749   2.021
93630W        W97698  19.586  18.711   0.662
93631W        W97699  19.390  20.195   3.511
93632W        W97700  20.384  19.176   1.225
93633W        W97701  20.589  20.586   2.347
93634W        W97702  18.743  21.191   2.782
93635W        W97703  19.334  21.174   3.505
93636W        W97704  19.185  18.971   0.519
93637W        W97705  20.702  19.113   0.844
93638W        W97706  20.660  21.221   3.081
93639W        W97707  19.345  19.813   1.680
93640W        W97708  19.000  21.511   2.545
93641W        W97709  21.745  21.628   0.146
93642W        W97710  18.608  20.300   3.142
93643W        W97711  20.603  20.562   1.830
93644W        W97712  19.039  20.211   1.072
93645W        W97713  19.410  21.218   2.467
93646W        W97714  19.788  18.637   1.508
93647W        W97715  18.399  20.621   0.438
93648W        W97716  19.918  19.572   0.308
93649W        W97717  18.564  20.121   1.327
93650W        W97718  19.854  18.763   2.791
93651W        W97719  21.526  18.472   0.218
93652W        W97720  21.619  20.218   3.317
93653W        W97721  20.273  21.475   3.469
93654W        W97722  21.831  20.569   2.991
93655W        W97723  21.239  21.367   3.602
93656W        W97724  18.978  21.823   2.080
93657W        W97725  21.837  20.445   0.954
93658W        W97726  20.367  19.712   1.467
93659W        W97727  20.134  18.324   1.357
93660W        W97728  19.193  21.308   1.194
93661W        W97729  19.692  19.049   2.419
93662W        W97730  19.392  18.418   1.888
93663W        W97731  18.455  21.240   0.436
93664W        W97732  20.271  20.604   1.154
93665W        W97733  19.146  21.399   3.033
93666W        W97734  18.623  20.222   0.729
93667W        W97735  18.508  18.765   1.728
93668W        W97736  20.056  20.730   1.785
93669W        W97737  18.308  18.584   0.805
93670W        W97738  20.972  19.790   2.732
93671W        W97739  20.849  19.176   0.304
93672W        W97740  21.366  20.848   1.952
93673W        W97741  20.027  21.332   1.783
93674W        W97742  19.439  21.436   0.694
93675W        W97743  20.721  18.339   0.124
93676W        W97744  18.521  21.599   1.865
93677W        W97745  20.718  19.357   3.500
93678W        W97746  18.701  18.887   3.499
93679W        W97747  18.432  19.487   0.832
93680W        W97748  19.123  19.476   0.557
93681W        W97749  20.886  19.803   3.374
93682W        W97750  19.229  20.084   2.083
93683W        W97751  20.703  18.370   1.203
93684W        W97752  19.834  21.801   1.706
93685W        W97753  21.048  21.263   2.643
93686W        W97754  20.632  21.412   1.754
93687W        W97755  20.651  20.392   1.348
93688W        W97756  20.113  18.617   0.419
93689W        W97757  21.794  18.245   1.141
93690W        W97758  19.482  19.880   0.304
93691W        W97759  21.648  19.217   1.294
93692W        W97760  20.340  20.387   0.171
93693W        W97761  21.276  20.587   2.919
93694W        W97762  20.930  21.288   0.386
93695W        W97763  19.545  18.963   3.292
93696W        W97764  19.365  19.547   2.533
93697W        W97765  21.457  21.042   2.810
93698W        W97766  20.557  18.992   3.187
93699W        W97767  18.401  19.463   2.964
93700W        W97768  20.161  19.940   2.690
93701W        W97769  18.518  20.698   1.347
93702W        W97770  18.665  19.995   2.237
93703W        W97771  20.982  20.281   2.587
93704W        W97772  20.754  21.661   3.398
93705W        W97773  20.650  19.400   2.951
93706W        W97774  20.927  21.454   1.356
93707W        W97775  19.929  21.174   2.679
93708W        W97776  19.414  21.529   1.948
93709W        W97777  21.219  20.700   2.367
93710W        W97778  20.269  20.772   3.504
93711W        W97779  18.874  20.725   1.843
93712W        W97780  21.220  20.484   1.488
93713W        W97781  20.861  21.550   2.239
93714W        W97782  18.839  21.279   2.109
93715W        W97783  19.860  19.331   3.319
93716W        W97784  20.311  21.497   0.830
93717W        W97785  19.619  20.752   3.468
93718W        W97786  19.745  20.990   0.845
93719W        W97787  18.966  19.730   0.104
93720W        W97788  18.305  21.816   7.003
93721W        W97789  18.681  20.709   6.526
93722W        W97790  21.386  20.439   4.296
93723W        W97791  21.516  21.524   6.323
93724W        W97792  19.434  21.515   3.849
93725W        W97793  19.517  19.667   4.832
93726W        W97794  19.032  19.515   4.996
93727W        W97795  20.023  20.330   4.430
93728W        W97796  19.698  21.422   6.785
93729W        W97797  18.347  18.983   6.748
93730W        W97798  19.109  18.263   6.550
93731W        W97799  20.803  18.651   5.437
93732W        W97800  20.452  19.522   4.007
93733W        W97801  21.022  18.956   7.098
93734W        W97802  18.388  18.748   6.223
93735W        W97803  18.487  21.367   7.244
93736W        W97804  20.009  20.757   3.976
93737W        W97805  18.441  19.540   5.669
93738W        W97806  19.334  19.431   6.906
93739W        W97807  21.793  19.290   5.405
93740W        W97808  21.557  20.333   6.264
93741W        W97809  19.865  19.666   5.291
93742W        W97810  20.411  21.005   5.660
93743W        W97811  18.911  20.439   5.892
93744W        W97812  18.270  19.967   5.463
93745W        W97813  19.306  19.939   6.655
93746W        W97814  21.577  19.722   6.909
93747W        W97815  19.193  21.166   5.354
93748W        W97816  20.314  20.855   6.488
93749W        W97817  19.534  19.495   5.713
93750W        W97818  19.826  20.279   5.356
93751W        W97819  20.823  21.052   7.204
93752W        W97820  19.902  20.372   7.214
93753W        W97821  19.883  20.088   6.692
93754W        W97822  18.292  19.479   7.214
93755W        W97823  21.124  21.014   6.813
93756W        W97824  18.705  18.596   4.811
93757W        W97825  19.232  20.854   5.810
93758W        W97826  21.695  20.637   5.100
93759W        W97827  21.108  19.037   5.667
93760W        W97828  21.393  18.990   3.762
93761W        W97829  21.858  19.791   6.068
93762W        W97830  19.825  21.498   5.821
93763W        W97831  21.599  20.964   4.259
93764W        W97832  18.728  21.750   4.013
93765W        W97833  19.121  21.796   4.689
93766W        W97834  18.918  18.550   6.115
93767W        W97835  21.541  19.568   6.390
93768W        W97836  20.946  19.990   4.849
93769W        W97837  20.912  19.678   3.876
93770W        W97838  20.120  20.822   6.016
93771W        W97839  19.926  19.152   5.215
93772W        W97840  20.526  21.239   6.209
93773W        W97841  21.397  20.030   4.631
93774W        W97842  20.299  18.688   4.647
93775W        W97843  18.956  21.382   4.330
93776W        W97844  18.327  18.881   4.929
93777W        W97845  21.113  19.488   5.403
93778W        W97846  18.571  21.105   5.318
93779W        W97847  19.912  21.455   4.188
93780W        W97848  21.304  19.481   3.652
93781W        W97849  18.327  21.239   5.816
93782W        W97850  19.118  20.811   6.296
93783W        W97851  19.491  20.171   4.915
93784W        W97852  19.513  18.576   6.008
93785W        W97853  21.742  18.338   5.305
93786W        W97854  18.961  20.210   3.773
93787W        W97855  18.616  19.243   3.952
93788W        W97856  18.678  21.199   4.746
93789W        W97857  19.809  20.682   4.994
93790W        W97858  21.141  21.541   6.708
93791W        W97859  20.067  19.183   4.392
93792W        W97860  21.450  21.581   5.164
93793W        W97861  21.127  19.434   6.762
93794W        W97862  21.840  21.090   4.896
93795W        W97863  20.467  20.382   6.380
93796W        W97864  18.233  19.933   4.586
93797W        W97865  19.344  20.348   6.159
93798W        W97866  20.548  19.612   4.537
93799W        W97867  20.425  20.102   4.641
93800W        W97868  18.753  19.398   7.037
93801W        W97869  18.643  18.315   5.196
93802W        W97870  20.411  18.662   5.757
93803W        W97871  20.059  18.847   6.920
93804W        W97872  20.414  18.996   4.098
93805W        W97873  21.597  21.389   6.852
93806W        W97874  20.564  18.470   6.891
93807W        W97875  21.583  20.771   7.013
93808W        W97876  21.013  18.938   6.609
93809W        W97877  20.813  18.876   4.879
93810W        W97878  21.206  20.010   7.283
93811W        W97879  18.946  21.586   5.269
93812W        W97880  19.604  19.303   4.255
93813W        W97881  19.173  18.587   6.919
93814W        W97882  21.225  19.071   4.600
93815W        W97883  21.592  19.553   4.545
93816W        W97884  19.335  21.770   7.016
93817W        W97885  19.261  18.306   4.251
93818W        W97886  21.582  18.840   5.286
93819W        W97887  21.732  21.089   3.731
93820W        W97888  18.639  20.292   5.433
93821W        W97889  20.556  18.879   3.663
93822W        W97890  21.690  21.211   5.383
93823W        W97891  21.729  18.405   6.133
93824W        W97892  20.174  19.617   6.687
93825W        W97893  20.267  20.956   4.390
93826W        W97894  20.667  20.250   7.130
93827W        W97895  20.341  18.227   5.439
93828W        W97896  18.953  19.130   5.502
93829W        W97897  18.507  20.330   6.276
93830W        W97898  20.366  21.523   4.982
93831W        W97899  21.560  19.120   5.854
93832W        W97900  20.197  21.467   6.621
93833W        W97901  21.540  20.526   3.826
93834W        W97902  19.975  20.009   4.887
93835W        W97903  21.827  18.520   6.628
93836W        W97904  19.976  20.355   6.222
93837W        W97905  20.193  19.241   5.667
93838W        W97906  21.045  19.539   4.505
93839W        W97907  21.332  19.272   4.147
93840W        W97908  21.141  21.312   4.536
93841W        W97909  20.975  20.915   5.332
93842W        W97910  20.871  19.994   4.310
93843W        W97911  20.304  20.204   5.296
93844W        W97912  21.185  19.992   5.363
93845W        W97913  18.560  19.007   5.787
93846W        W97914  21.338  20.059   6.614
93847W        W97915  21.689  21.677   5.760
93848W        W97916  19.619  21.121   5.162
93849W        W97917  20.626  21.654   6.486
93850W        W97918  20.620  18.984   6.250
93851W        W97919  19.827  21.692   6.311
93852W        W97920  21.524  18.646   4.777
93853W        W97921  21.315  19.965   6.078
93854W        W97922  18.298  19.286   6.116
93855W        W97923  21.158  19.081   5.134
93856W        W97924  21.569  19.232   6.911
93857W        W97925  20.454  20.931   5.129
93858W        W97926  19.710  21.522   4.742
93859W        W97927  18.825  18.702   4.000
93860W        W97928  19.929  18.356   5.810
93861W        W97929  18.957  21.476   3.658
93862W        W97930  19.331  19.942   4.409
93863W        W97931  19.985  20.571   6.722
93864W        W97932  19.815  18.929   4.712
93865W        W97933  21.171  18.526   5.140
93866W        W97934  20.891  21.808   5.468
93867W        W97935  20.303  21.456   5.808
93868W        W97936  19.699  20.493   5.769
93869W        W97937  21.469  21.216   5.895
93870W        W97938  19.163  18.719   4.664
93871W        W97939  19.685  21.016   5.624
93872W        W97940  19.168  18.947   3.689
93873W        W97941  19.969  19.556   6.083
93874W        W97942  20.817  18.422   5.953
93875W        W97943  18.237  20.265   5.838
93876W        W97944  19.941  20.083   3.996
93877W        W97945  19.209  18.398   3.766
93878W        W97946  19.947  19.479   4.817
93879W        W97947  20.917  18.455   6.516
93880W        W97948  19.505  20.467   6.625
93881W        W97949  20.309  20.249   6.842
93882W        W97950  20.926  20.279   6.735
93883W        W97951  20.210  18.419   7.240
93884W        W97952  19.432  19.035   5.633
93885W        W97953  18.858  18.991   5.031
93886W        W97954  18.644  21.703   4.707
93887W        W97955  19.976  21.033   6.832
93888W        W97956  19.011  20.518   4.191
93889W        W97957  20.691  19.903   5.412
93890W        W97958  20.971  19.702   5.811
93891W        W97959  20.176  20.376   5.745
93892W        W97960  20.646  20.750   3.877
93893W        W97961  20.318  18.771   5.205
93894W        W97962  21.797  19.049   4.473
93895W        W97963  18.291  21.638   6.504
93896W        W97964  18.708  20.864   6.036
93897W        W97965  18.275  21.710   4.268
93898W        W97966  20.174  18.980   6.074
93899W        W97967  19.537  21.003   3.923
93900W        W97968  21.442  21.385   4.109
93901W        W97969  20.417  20.038   4.123
93902W        W97970  19.260  19.229   4.640
93903W        W97971  20.092  19.139   3.692
93904W        W97972  20.676  20.704   6.870
93905W        W97973  21.029  18.610   4.487
93906W        W97974  18.359  18.458   3.935
93907W        W97975  19.645  20.777   6.225
93908W        W97976  19.444  20.693   5.317
93909W        W97977  19.186  20.645   3.715
93910W        W97978  18.427  20.886   4.483
93911W        W97979  18.931  19.956   6.925
93912W        W97980  19.635  18.516   7.111
93913W        W97981  20.344  18.658   6.467
93914W        W97982  19.539  18.426   4.748
93915W        W97983  20.598  18.503   4.253
93916W        W97984  18.543  18.435   5.830
93917W        W97985  18.591  19.398   5.200
93918W        W97986  21.280  18.506   5.606
93919W        W97987  18.702  19.004   4.420
93920W        W97988  21.273  18.692   6.036
93921W        W97989  21.669  19.895   3.721
93922W        W97990  18.961  18.653   5.540
93923W        W97991  20.075  19.225   6.480
93924W        W97992  18.223  18.915   3.958
93925W        W97993  19.009  20.304   6.519
93926W        W97994  20.367  19.702   5.698
93927W        W97995  20.234  21.781   3.994
93928W        W97996  18.380  20.288   3.691
93929W        W97997  19.115  20.699   6.817
93930W        W97998  19.627  19.971   6.242
93931W        W97999  21.395  18.330   6.504
93932W        W98000  21.793  19.940   6.495
93933W        W98001  21.781  20.140   4.181
93934W        W98002  20.644  20.472   4.280
93935W        W98003  21.118  21.772   3.975
93936W        W98004  20.295  19.762   7.117
93937W        W98005  18.625  20.729   7.157
93938W        W98006  21.831  18.651   7.109
93939W        W98007  21.549  19.579   5.730
93940W        W98008  19.857  21.709   7.207
93941W        W98009  19.712  18.338   3.934
93942W        W98010  21.251  20.937   3.877
93943W        W98011  19.020  19.030   6.763
93944W        W98012  19.454  21.024   6.625
93945W        W98013  21.580  19.015   6.423
93946W        W98014  20.791  21.674   4.391
93947W        W98015  21.030  20.293   5.758
93948W        W98016  19.280  18.709   6.425
93949W        W98017  19.749  19.778   7.182
93950W        W98018  19.252  20.957   4.376
93951W        W98019  21.007  20.455   4.640
93952W        W98020  20.104  21.143   4.828
93953W        W98021  21.854  19.703   5.009
93954W        W98022  20.076  18.336   6.728
93955W        W98023  20.856  21.041   5.807
93956W        W98024  21.159  21.385   5.515
93957W        W98025  20.378  21.187   3.943
93958W        W98026  18.388  21.079   6.785
93959W        W98027  19.131  19.071   6.023
93960W        W98028  19.101  18.419   5.133
93961W        W98029  20.722  19.261   5.825
93962W        W98030  19.520  20.432   4.025
93963W        W98031  21.518  20.374   5.524
93964W        W98032  18.845  21.132   6.947
93965W        W98033  21.232  21.814   4.744
93966W        W98034  19.331  18.834   5.189
93967W        W98035  19.100  20.327   5.279
93968W        W98036  19.413  21.738   6.029
93969W        W98037  21.480  21.834   7.061
93970W        W98038  20.639  20.022   5.994
93971W        W98039  18.488  19.820   3.909
93972W        W98040  21.622  21.478   4.606
93973W        W98041  21.459  18.802   4.225
93974W        W98042  19.598  18.321   6.628
93975W        W98043  21.304  21.123   5.086
93976W        W98044  21.333  19.679   4.991
93977W        W98045  19.450  19.352   5.207
93978W        W98046  20.806  20.767   6.394
93979W        W98047  19.456  19.221   6.506
93980W        W98048  19.435  21.687   5.122
93981W        W98049  18.752  21.646   6.756
93982W        W98050  18.864  21.007   3.886
93983W        W98051  21.381  20.765   4.696
93984W        W98052  21.758  19.487   4.063
93985W        W98053  19.503  20.544   4.534
93986W        W98054  20.602  19.926   6.615
93987W        W98055  20.493  19.554   6.159
93988W        W98056  19.053  19.926   6.188
93989W        W98057  21.263  21.814   6.017
93990W        W98058  21.054  18.448   7.011
93991W        W98059  18.718  18.598   6.598
93992W        W98060  19.057  19.621   5.651
93993W        W98061  19.426  19.435   3.773
93994W        W98062  18.229  21.194   6.318
93995W        W98063  19.814  19.903   5.761
93996W        W98064  19.637  18.928   3.866
93997W        W98065  18.772  19.744   4.647
93998W        W98066  18.543  21.596   6.084
93999W        W98067  21.338  19.822   4.192
94000W        W98068  21.433  18.738   6.878
94001W        W98069  20.869  20.947   4.841
94002W        W98070  18.467  19.871   7.018
94003W        W98071  21.433  18.335   4.314
94004W        W98072  20.953  20.810   4.325
94005W        W98073  19.855  19.868   4.410
94006W        W98074  21.042  18.672   3.933
94007W        W98075  21.107  19.279   6.119
94008W        W98076  18.816  19.872   5.326
94009W        W98077  19.110  20.811   4.975
94010W        W98078  20.873  19.431   4.940
94011W        W98079  19.896  18.810   5.636
94012W        W98080  21.858  20.721   6.147
94013W        W98081  21.776  18.708   5.708
94014W        W98082  18.315  21.538   5.084
94015W        W98083  18.824  20.725   4.620
94016W        W98084  18.739  18.342   7.173
94017W        W98085  19.858  21.195   7.275
94018W        W98086  21.613  20.163   5.065
94019W        W98087  20.967  20.340   3.945
94020W        W98088  20.262  21.861   6.157
94021W        W98089  21.119  20.583   7.194
94022W        W98090  19.934  18.293   4.474
94023W        W98091  20.647  19.162   5.333
94024W        W98092  18.333  20.749   5.665
94025W        W98093  19.586  18.711   4.306
94026W        W98094  19.390  20.195   7.155
94027W        W98095  20.384  19.176   4.869
94028W        W98096  20.589  20.586   5.991
94029W        W98097  18.743  21.191   6.426
94030W        W98098  19.334  21.174   7.149
94031W        W98099  19.185  18.971   4.163
94032W        W98100  20.702  19.113   4.488
94033W        W98101  20.660  21.221   6.725
94034W        W98102  19.345  19.813   5.324
94035W        W98103  19.000  21.511   6.189
94036W        W98104  21.745  21.628   3.790
94037W        W98105  18.608  20.300   6.786
94038W        W98106  20.603  20.562   5.474
94039W        W98107  19.039  20.211   4.716
94040W        W98108  19.410  21.218   6.111
94041W        W98109  19.788  18.637   5.152
94042W        W98110  18.399  20.621   4.082
94043W        W98111  19.918  19.572   3.952
94044W        W98112  18.564  20.121   4.971
94045W        W98113  19.854  18.763   6.435
94046W        W98114  21.526  18.472   3.862
94047W        W98115  21.619  20.218   6.961
94048W        W98116  20.273  21.475   7.113
94049W        W98117  21.831  20.569   6.635
94050W        W98118  21.239  21.367   7.246
94051W        W98119  18.978  21.823   5.724
94052W        W98120  21.837  20.445   4.598
94053W        W98121  20.367  19.712   5.111
94054W        W98122  20.134  18.324   5.001
94055W        W98123  19.193  21.308   4.838
94056W        W98124  19.692  19.049   6.063
94057W        W98125  19.392  18.418   5.532
94058W        W98126  18.455  21.240   4.080
94059W        W98127  20.271  20.604   4.798
94060W        W98128  19.146  21.399   6.677
94061W        W98129  18.623  20.222   4.373
94062W        W98130  18.508  18.765   5.372
94063W        W98131  20.056  20.730   5.429
94064W        W98132  18.308  18.584   4.449
94065W        W98133  20.972  19.790   6.376
94066W        W98134  20.849  19.176   3.948
94067W        W98135  21.366  20.848   5.596
94068W        W98136  20.027  21.332   5.427
94069W        W98137  19.439  21.436   4.338
94070W        W98138  20.721  18.339   3.768
94071W        W98139  18.521  21.599   5.509
94072W        W98140  20.718  19.357   7.144
94073W        W98141  18.701  18.887   7.143
94074W        W98142  18.432  19.487   4.476
94075W        W98143  19.123  19.476   4.201
94076W        W98144  20.886  19.803   7.018
94077W        W98145  19.229  20.084   5.727
94078W        W98146  20.703  18.370   4.847
94079W        W98147  19.834  21.801   5.350
94080W        W98148  21.048  21.263   6.287
94081W        W98149  20.632  21.412   5.398
94082W        W98150  20.651  20.392   4.992
94083W        W98151  20.113  18.617   4.063
94084W        W98152  21.794  18.245   4.785
94085W        W98153  19.482  19.880   3.948
94086W        W98154  21.648  19.217   4.938
94087W        W98155  20.340  20.387   3.815
94088W        W98156  21.276  20.587   6.563
94089W        W98157  20.930  21.288   4.030
94090W        W98158  19.545  18.963   6.936
94091W        W98159  19.365  19.547   6.177
94092W        W98160  21.457  21.042   6.454
94093W        W98161  20.557  18.992   6.831
94094W        W98162  18.401  19.463   6.608
94095W        W98163  20.161  19.940   6.334
94096W        W98164  18.518  20.698   4.991
94097W        W98165  18.665  19.995   5.881
94098W        W98166  20.982  20.281   6.231
94099W        W98167  20.754  21.661   7.042
94100W        W98168  20.650  19.400   6.595
94101W        W98169  20.927  21.454   5.000
94102W        W98170  19.929  21.174   6.323
94103W        W98171  19.414  21.529   5.592
94104W        W98172  21.219  20.700   6.011
94105W        W98173  20.269  20.772   7.148
94106W        W98174  18.874  20.725   5.487
94107W        W98175  21.220  20.484   5.132
94108W        W98176  20.861  21.550   5.883
94109W        W98177  18.839  21.279   5.753
94110W        W98178  19.860  19.331   6.963
94111W        W98179  20.311  21.497   4.474
94112W        W98180  19.619  20.752   7.112
94113W        W98181  19.745  20.990   4.489
94114W        W98182  18.966  19.730   3.748
94115W        W98183  18.305  21.816  10.648
94116W        W98184  18.681  20.709  10.171
94117W        W98185  21.386  20.439   7.941
94118W        W98186  21.516  21.524   9.968
94119W        W98187  19.434  21.515   7.494
94120W        W98188  19.517  19.667   8.477
94121W        W98189  19.032  19.515   8.641
94122W        W98190  20.023  20.330   8.075
94123W        W98191  19.698  21.422  10.430
94124W        W98192  18.347  18.983  10.393
94125W        W98193  19.109  18.263  10.195
94126W        W98194  20.803  18.651   9.082
94127W        W98195  20.452  19.522   7.652
94128W        W98196  21.022  18.956  10.743
94129W        W98197  18.388  18.748   9.868
94130W        W98198  18.487  21.367  10.889
94131W        W98199  20.009  20.757   7.621
94132W        W98200  18.441  19.540   9.314
94133W        W98201  19.334  19.431  10.551
94134W        W98202  21.793  19.290   9.050
94135W        W98203  21.557  20.333   9.909
94136W        W98204  19.865  19.666   8.936
94137W        W98205  20.411  21.005   9.305
94138W        W98206  18.911  20.439   9.537
94139W        W98207  18.270  19.967   9.108
94140W        W98208  19.306  19.939  10.300
94141W        W98209  21.577  19.722  10.554
94142W        W98210  19.193  21.166   8.999
94143W        W98211  20.314  20.855  10.133
94144W        W98212  19.534  19.495   9.358
94145W        W98213  19.826  20.279   9.001
94146W        W98214  20.823  21.052  10.849
94147W        W98215  19.902  20.372  10.859
94148W        W98216  19.883  20.088  10.337
94149W        W98217  18.292  19.479  10.859
94150W        W98218  21.124  21.014  10.458
94151W        W98219  18.705  18.596   8.456
94152W        W98220  19.232  20.854   9.455
94153W        W98221  21.695  20.637   8.745
94154W        W98222  21.108  19.037   9.312
94155W        W98223  21.393  18.990   7.407
94156W        W98224  21.858  19.791   9.713
94157W        W98225  19.825  21.498   9.466
94158W        W98226  21.599  20.964   7.904
94159W        W98227  18.728  21.750   7.658
94160W        W98228  19.121  21.796   8.334
94161W        W98229  18.918  18.550   9.760
94162W        W98230  21.541  19.568  10.035
94163W        W98231  20.946  19.990   8.494
94164W        W98232  20.912  19.678   7.521
94165W        W98233  20.120  20.822   9.661
94166W        W98234  19.926  19.152   8.860
94167W        W98235  20.526  21.239   9.854
94168W        W98236  21.397  20.030   8.276
94169W        W98237  20.299  18.688   8.292
94170W        W98238  18.956  21.382   7.975
94171W        W98239  18.327  18.881   8.574
94172W        W98240  21.113  19.488   9.048
94173W        W98241  18.571  21.105   8.963
94174W        W98242  19.912  21.455   7.833
94175W        W98243  21.304  19.481   7.297
94176W        W98244  18.327  21.239   9.461
94177W        W98245  19.118  20.811   9.941
94178W        W98246  19.491  20.171   8.560
94179W        W98247  19.513  18.576   9.653
94180W        W98248  21.742  18.338   8.950
94181W        W98249  18.961  20.210   7.418
94182W        W98250  18.616  19.243   7.597
94183W        W98251  18.678  21.199   8.391
94184W        W98252  19.809  20.682   8.639
94185W        W98253  21.141  21.541  10.353
94186W        W98254  20.067  19.183   8.037
94187W        W98255  21.450  21.581   8.809
94188W        W98256  21.127  19.434  10.407
94189W        W98257  21.840  21.090   8.541
94190W        W98258  20.467  20.382  10.025
94191W        W98259  18.233  19.933   8.231
94192W        W98260  19.344  20.348   9.804
94193W        W98261  20.548  19.612   8.182
94194W        W98262  20.425  20.102   8.286
94195W        W98263  18.768  19.522   9.760
94196W        W98264  18.753  19.398  10.682
94197W        W98265  18.643  18.315   8.841
94198W        W98266  20.411  18.662   9.402
94199W        W98267  20.059  18.847  10.565
94200W        W98268  20.414  18.996   7.743
94201W        W98269  21.597  21.389  10.497
94202W        W98270  20.564  18.470  10.536
94203W        W98271  21.583  20.771  10.658
94204W        W98272  21.013  18.938  10.254
94205W        W98273  20.813  18.876   8.524
94206W        W98274  21.206  20.010  10.928
94207W        W98275  18.946  21.586   8.914
94208W        W98276  19.604  19.303   7.900
94209W        W98277  19.173  18.587  10.564
94210W        W98278  21.225  19.071   8.245
94211W        W98279  21.592  19.553   8.190
94212W        W98280  19.335  21.770  10.661
94213W        W98281  19.261  18.306   7.896
94214W        W98282  21.582  18.840   8.931
94215W        W98283  21.732  21.089   7.376
94216W        W98284  18.639  20.292   9.078
94217W        W98285  20.556  18.879   7.308
94218W        W98286  21.690  21.211   9.028
94219W        W98287  21.729  18.405   9.778
94220W        W98288  20.174  19.617  10.332
94221W        W98289  20.267  20.956   8.035
94222W        W98290  20.667  20.250  10.775
94223W        W98291  20.341  18.227   9.084
94224W        W98292  18.953  19.130   9.147
94225W        W98293  18.507  20.330   9.921
94226W        W98294  20.366  21.523   8.627
94227W        W98295  21.560  19.120   9.499
94228W        W98296  20.197  21.467  10.266
94229W        W98297  21.540  20.526   7.471
94230W        W98298  19.975  20.009   8.532
94231W        W98299  21.827  18.520  10.273
94232W        W98300  19.976  20.355   9.867
94233W        W98301  20.193  19.241   9.312
94234W        W98302  21.045  19.539   8.150
94235W        W98303  21.332  19.272   7.792
94236W        W98304  21.141  21.312   8.181
94237W        W98305  20.975  20.915   8.977
94238W        W98306  20.871  19.994   7.955
94239W        W98307  20.304  20.204   8.941
94240W        W98308  21.185  19.992   9.008
94241W        W98309  18.560  19.007   9.432
94242W        W98310  21.338  20.059  10.259
94243W        W98311  21.689  21.677   9.405
94244W        W98312  19.619  21.121   8.807
94245W        W98313  20.626  21.654  10.131
94246W        W98314  20.620  18.984   9.895
94247W        W98315  19.827  21.692   9.956
94248W        W98316  21.524  18.646   8.422
94249W        W98317  21.315  19.965   9.723
94250W        W98318  18.298  19.286   9.761
94251W        W98319  21.158  19.081   8.779
94252W        W98320  21.569  19.232  10.556
94253W        W98321  20.454  20.931   8.774
94254W        W98322  19.710  21.522   8.387
94255W        W98323  18.825  18.702   7.645
94256W        W98324  19.929  18.356   9.455
94257W        W98325  18.957  21.476   7.303
94258W        W98326  19.331  19.942   8.054
94259W        W98327  19.985  20.571  10.367
94260W        W98328  19.815  18.929   8.357
94261W        W98329  21.171  18.526   8.785
94262W        W98330  20.891  21.808   9.113
94263W        W98331  20.303  21.456   9.453
94264W        W98332  19.699  20.493   9.414
94265W        W98333  21.469  21.216   9.540
94266W        W98334  19.163  18.719   8.309
94267W        W98335  19.685  21.016   9.269
94268W        W98336  19.168  18.947   7.334
94269W        W98337  19.969  19.556   9.728
94270W        W98338  20.817  18.422   9.598
94271W        W98339  18.237  20.265   9.483
94272W        W98340  19.941  20.083   7.641
94273W        W98341  19.209  18.398   7.411
94274W        W98342  19.947  19.479   8.462
94275W        W98343  20.917  18.455  10.161
94276W        W98344  19.505  20.467  10.270
94277W        W98345  20.309  20.249  10.487
94278W        W98346  20.926  20.279  10.380
94279W        W98347  20.210  18.419  10.885
94280W        W98348  19.432  19.035   9.278
94281W        W98349  18.858  18.991   8.676
94282W        W98350  18.644  21.703   8.352
94283W        W98351  19.976  21.033  10.477
94284W        W98352  19.011  20.518   7.836
94285W        W98353  20.691  19.903   9.057
94286W        W98354  20.971  19.702   9.456
94287W        W98355  20.176  20.376   9.390
94288W        W98356  20.646  20.750   7.522
94289W        W98357  20.318  18.771   8.850
94290W        W98358  21.797  19.049   8.118
94291W        W98359  18.291  21.638  10.149
94292W        W98360  18.708  20.864   9.681
94293W        W98361  18.275  21.710   7.913
94294W        W98362  20.174  18.980   9.719
94295W        W98363  19.537  21.003   7.568
94296W        W98364  21.442  21.385   7.754
94297W        W98365  20.417  20.038   7.768
94298W        W98366  19.260  19.229   8.285
94299W        W98367  20.092  19.139   7.337
94300W        W98368  20.676  20.704  10.515
94301W        W98369  21.029  18.610   8.132
94302W        W98370  18.359  18.458   7.580
94303W        W98371  19.645  20.777   9.870
94304W        W98372  19.444  20.693   8.962
94305W        W98373  19.186  20.645   7.360
94306W        W98374  18.427  20.886   8.128
94307W        W98375  18.931  19.956  10.570
94308W        W98376  19.635  18.516  10.756
94309W        W98377  20.344  18.658  10.112
94310W        W98378  19.539  18.426   8.393
94311W        W98379  20.598  18.503   7.898
94312W        W98380  18.543  18.435   9.475
94313W        W98381  18.591  19.398   8.845
94314W        W98382  21.280  18.506   9.251
94315W        W98383  18.702  19.004   8.065
94316W        W98384  21.273  18.692   9.681
94317W        W98385  21.669  19.895   7.366
94318W        W98386  18.961  18.653   9.185
94319W        W98387  20.075  19.225  10.125
94320W        W98388  18.223  18.915   7.603
94321W        W98389  19.009  20.304  10.164
94322W        W98390  20.367  19.702   9.343
94323W        W98391  20.234  21.781   7.639
94324W        W98392  18.380  20.288   7.336
94325W        W98393  19.115  20.699  10.462
94326W        W98394  18.636  19.866  10.093
94327W        W98395  19.627  19.971   9.887
94328W        W98396  21.395  18.330  10.149
94329W        W98397  21.793  19.940  10.140
94330W        W98398  21.781  20.140   7.826
94331W        W98399  20.644  20.472   7.925
94332W        W98400  21.118  21.772   7.620
94333W        W98401  20.295  19.762  10.762
94334W        W98402  18.625  20.729  10.802
94335W        W98403  21.831  18.651  10.754
94336W        W98404  21.549  19.579   9.375
94337W        W98405  19.857  21.709  10.852
94338W        W98406  19.712  18.338   7.579
94339W        W98407  21.251  20.937   7.522
94340W        W98408  19.020  19.030  10.408
94341W        W98409  19.454  21.024  10.270
94342W        W98410  21.580  19.015  10.068
94343W        W98411  20.791  21.674   8.036
94344W        W98412  21.030  20.293   9.403
94345W        W98413  19.280  18.709  10.070
94346W        W98414  19.749  19.778  10.827
94347W        W98415  19.252  20.957   8.021
94348W        W98416  21.007  20.455   8.285
94349W        W98417  18.775  19.081  10.009
94350W        W98418  20.104  21.143   8.473
94351W        W98419  21.854  19.703   8.654
94352W        W98420  20.076  18.336  10.373
94353W        W98421  20.856  21.041   9.452
94354W        W98422  21.159  21.385   9.160
94355W        W98423  20.378  21.187   7.588
94356W        W98424  18.388  21.079  10.430
94357W        W98425  19.131  19.071   9.668
94358W        W98426  19.101  18.419   8.778
94359W        W98427  20.722  19.261   9.470
94360W        W98428  19.520  20.432   7.670
94361W        W98429  21.518  20.374   9.169
94362W        W98430  18.845  21.132  10.592
94363W        W98431  21.232  21.814   8.389
94364W        W98432  19.331  18.834   8.834
94365W        W98433  19.100  20.327   8.924
94366W        W98434  19.413  21.738   9.674
94367W        W98435  21.480  21.834  10.706
94368W        W98436  20.639  20.022   9.639
94369W        W98437  18.488  19.820   7.554
94370W        W98438  21.622  21.478   8.251
94371W        W98439  21.459  18.802   7.870
94372W        W98440  19.598  18.321  10.273
94373W        W98441  21.304  21.123   8.731
94374W        W98442  21.333  19.679   8.636
94375W        W98443  19.450  19.352   8.852
94376W        W98444  19.695  19.614  10.176
94377W        W98445  20.806  20.767  10.039
94378W        W98446  19.456  19.221  10.151
94379W        W98447  19.435  21.687   8.767
94380W        W98448  18.752  21.646  10.401
94381W        W98449  18.864  21.007   7.531
94382W        W98450  21.381  20.765   8.341
94383W        W98451  18.985  19.557  10.227
94384W        W98452  21.758  19.487   7.708
94385W        W98453  19.503  20.544   8.179
94386W        W98454  20.602  19.926  10.260
94387W        W98455  20.493  19.554   9.804
94388W        W98456  19.053  19.926   9.833
94389W        W98457  21.263  21.814   9.662
94390W        W98458  21.054  18.448  10.656
94391W        W98459  18.718  18.598  10.243
94392W        W98460  19.057  19.621   9.296
94393W        W98461  19.426  19.435   7.418
94394W        W98462  18.229  21.194   9.963
94395W        W98463  19.814  19.903   9.406
94396W        W98464  19.637  18.928   7.511
94397W        W98465  18.772  19.744   8.292
94398W        W98466  18.543  21.596   9.729
94399W        W98467  21.338  19.822   7.837
94400W        W98468  21.433  18.738  10.523
94401W        W98469  20.869  20.947   8.486
94402W        W98470  18.467  19.871  10.663
94403W        W98471  21.433  18.335   7.959
94404W        W98472  20.953  20.810   7.970
94405W        W98473  19.855  19.868   8.055
94406W        W98474  21.042  18.672   7.578
94407W        W98475  21.107  19.279   9.764
94408W        W98476  18.816  19.872   8.971
94409W        W98477  19.110  20.811   8.620
94410W        W98478  20.873  19.431   8.585
94411W        W98479  19.896  18.810   9.281
94412W        W98480  21.858  20.721   9.792
94413W        W98481  21.776  18.708   9.353
94414W        W98482  18.315  21.538   8.729
94415W        W98483  18.824  20.725   8.265
94416W        W98484  18.739  18.342  10.818
94417W        W98485  19.858  21.195  10.920
94418W        W98486  21.613  20.163   8.710
94419W        W98487  20.967  20.340   7.590
94420W        W98488  20.262  21.861   9.802
94421W        W98489  21.119  20.583  10.839
94422W        W98490  19.934  18.293   8.119
94423W        W98491  20.647  19.162   8.978
94424W        W98492  18.333  20.749   9.310
94425W        W98493  19.586  18.711   7.951
94426W        W98494  19.390  20.195  10.800
94427W        W98495  20.384  19.176   8.514
94428W        W98496  20.589  20.586   9.636
94429W        W98497  18.743  21.191  10.071
94430W        W98498  19.334  21.174  10.794
94431W        W98499  19.185  18.971   7.808
94432W        W98500  20.702  19.113   8.133
94433W        W98501  20.660  21.221  10.370
94434W        W98502  19.345  19.813   8.969
94435W        W98503  19.000  21.511   9.834
94436W        W98504  21.745  21.628   7.435
94437W        W98505  18.608  20.300  10.431
94438W        W98506  20.603  20.562   9.119
94439W        W98507  19.039  20.211   8.361
94440W        W98508  19.410  21.218   9.756
94441W        W98509  19.788  18.637   8.797
94442W        W98510  18.399  20.621   7.727
94443W        W98511  19.918  19.572   7.597
94444W        W98512  18.564  20.121   8.616
94445W        W98513  19.854  18.763  10.080
94446W        W98514  21.526  18.472   7.507
94447W        W98515  21.619  20.218  10.606
94448W        W98516  20.273  21.475  10.758
94449W        W98517  21.831  20.569  10.280
94450W        W98518  21.239  21.367  10.891
94451W        W98519  18.978  21.823   9.369
94452W        W98520  21.837  20.445   8.243
94453W        W98521  20.367  19.712   8.756
94454W        W98522  20.134  18.324   8.646
94455W        W98523  19.193  21.308   8.483
94456W        W98524  19.692  19.049   9.708
94457W        W98525  19.392  18.418   9.177
94458W        W98526  18.455  21.240   7.725
94459W        W98527  20.271  20.604   8.443
94460W        W98528  19.146  21.399  10.322
94461W        W98529  18.623  20.222   8.018
94462W        W98530  18.508  18.765   9.017
94463W        W98531  20.056  20.730   9.074
94464W        W98532  18.308  18.584   8.094
94465W        W98533  20.972  19.790  10.021
94466W        W98534  20.849  19.176   7.593
94467W        W98535  21.366  20.848   9.241
94468W        W98536  20.027  21.332   9.072
94469W        W98537  19.439  21.436   7.983
94470W        W98538  20.721  18.339   7.413
94471W        W98539  18.521  21.599   9.154
94472W        W98540  20.718  19.357  10.789
94473W        W98541  18.701  18.887  10.788
94474W        W98542  18.432  19.487   8.121
94475W        W98543  19.123  19.476   7.846
94476W        W98544  20.886  19.803  10.663
94477W        W98545  19.229  20.084   9.372
94478W        W98546  20.703  18.370   8.492
94479W        W98547  19.834  21.801   8.995
94480W        W98548  21.048  21.263   9.932
94481W        W98549  20.632  21.412   9.043
94482W        W98550  20.651  20.392   8.637
94483W        W98551  20.113  18.617   7.708
94484W        W98552  21.794  18.245   8.430
94485W        W98553  19.482  19.880   7.593
94486W        W98554  21.648  19.217   8.583
94487W        W98555  20.340  20.387   7.460
94488W        W98556  21.276  20.587  10.208
94489W        W98557  20.930  21.288   7.675
94490W        W98558  19.545  18.963  10.581
94491W        W98559  19.365  19.547   9.822
94492W        W98560  21.457  21.042  10.099
94493W        W98561  20.557  18.992  10.476
94494W        W98562  18.401  19.463  10.253
94495W        W98563  20.161  19.940   9.979
94496W        W98564  18.518  20.698   8.636
94497W        W98565  18.665  19.995   9.526
94498W        W98566  20.982  20.281   9.876
94499W        W98567  20.754  21.661  10.687
94500W        W98568  20.650  19.400  10.240
94501W        W98569  20.927  21.454   8.645
94502W        W98570  19.929  21.174   9.968
94503W        W98571  19.414  21.529   9.237
94504W        W98572  21.219  20.700   9.656
94505W        W98573  20.269  20.772  10.793
94506W        W98574  18.874  20.725   9.132
94507W        W98575  21.220  20.484   8.777
94508W        W98576  20.861  21.550   9.528
94509W        W98577  18.839  21.279   9.398
94510W        W98578  19.860  19.331  10.608
94511W        W98579  20.311  21.497   8.119
94512W        W98580  19.619  20.752  10.757
94513W        W98581  19.745  20.990   8.134
94514W        W98582  18.966  19.730   7.393
94515W        W98583  18.305  21.816  14.292
94516W        W98584  18.681  20.709  13.815
94517W        W98585  21.386  20.439  11.585
94518W        W98586  21.516  21.524  13.612
94519W        W98587  19.434  21.515  11.138
94520W        W98588  19.517  19.667  12.121
94521W        W98589  19.032  19.515  12.285
94522W        W98590  20.023  20.330  11.719
94523W        W98591  19.698  21.422  14.074
94524W        W98592  18.347  18.983  14.037
94525W        W98593  19.109  18.263  13.839
94526W        W98594  20.803  18.651  12.726
94527W        W98595  20.452  19.522  11.296
94528W        W98596  21.022  18.956  14.387
94529W        W98597  18.388  18.748  13.512
94530W        W98598  18.487  21.367  14.533
94531W        W98599  20.009  20.757  11.265
94532W        W98600  18.441  19.540  12.958
94533W        W98601  19.334  19.431  14.195
94534W        W98602  21.793  19.290  12.694
94535W        W98603  21.557  20.333  13.553
94536W        W98604  19.865  19.666  12.580
94537W        W98605  20.411  21.005  12.949
94538W        W98606  18.911  20.439  13.181
94539W        W98607  18.270  19.967  12.752
94540W        W98608  19.306  19.939  13.944
94541W        W98609  21.577  19.722  14.198
94542W        W98610  19.193  21.166  12.643
94543W        W98611  20.314  20.855  13.777
94544W        W98612  19.534  19.495  13.002
94545W        W98613  19.826  20.279  12.645
94546W        W98614  20.823  21.052  14.493
94547W        W98615  19.902  20.372  14.503
94548W        W98616  19.883  20.088  13.981
94549W        W98617  18.292  19.479  14.503
94550W        W98618  21.124  21.014  14.102
94551W        W98619  18.705  18.596  12.100
94552W        W98620  19.232  20.854  13.099
94553W        W98621  21.695  20.637  12.389
94554W        W98622  21.108  19.037  12.956
94555W        W98623  21.393  18.990  11.051
94556W        W98624  21.858  19.791  13.357
94557W        W98625  19.825  21.498  13.110
94558W        W98626  21.599  20.964  11.548
94559W        W98627  18.728  21.750  11.302
94560W        W98628  19.121  21.796  11.978
94561W        W98629  18.918  18.550  13.404
94562W        W98630  21.541  19.568  13.679
94563W        W98631  20.946  19.990  12.138
94564W        W98632  20.912  19.678  11.165
94565W        W98633  20.120  20.822  13.305
94566W        W98634  19.926  19.152  12.504
94567W        W98635  20.526  21.239  13.498
94568W        W98636  21.397  20.030  11.920
94569W        W98637  20.299  18.688  11.936
94570W        W98638  18.956  21.382  11.619
94571W        W98639  18.327  18.881  12.218
94572W        W98640  21.113  19.488  12.692
94573W        W98641  18.571  21.105  12.607
94574W        W98642  19.912  21.455  11.477
94575W        W98643  21.304  19.481  10.941
94576W        W98644  18.327  21.239  13.105
94577W        W98645  19.118  20.811  13.585
94578W        W98646  19.491  20.171  12.204
94579W        W98647  19.513  18.576  13.297
94580W        W98648  21.742  18.338  12.594
94581W        W98649  18.961  20.210  11.062
94582W        W98650  18.616  19.243  11.241
94583W        W98651  18.678  21.199  12.035
94584W        W98652  19.809  20.682  12.283
94585W        W98653  21.141  21.541  13.997
94586W        W98654  20.067  19.183  11.681
94587W        W98655  21.450  21.581  12.453
94588W        W98656  21.127  19.434  14.051
94589W        W98657  21.840  21.090  12.185
94590W        W98658  20.467  20.382  13.669
94591W        W98659  18.233  19.933  11.875
94592W        W98660  19.344  20.348  13.448
94593W        W98661  20.548  19.612  11.826
94594W        W98662  20.425  20.102  11.930
94595W        W98663  18.768  19.522  13.404
94596W        W98664  18.753  19.398  14.326
94597W        W98665  18.643  18.315  12.485
94598W        W98666  20.411  18.662  13.046
94599W        W98667  20.059  18.847  14.209
94600W        W98668  20.414  18.996  11.387
94601W        W98669  21.597  21.389  14.141
94602W        W98670  20.564  18.470  14.180
94603W        W98671  21.583  20.771  14.302
94604W        W98672  21.013  18.938  13.898
94605W        W98673  20.813  18.876  12.168
94606W        W98674  21.206  20.010  14.572
94607W        W98675  18.946  21.586  12.558
94608W        W98676  19.604  19.303  11.544
94609W        W98677  19.173  18.587  14.208
94610W        W98678  21.225  19.071  11.889
94611W        W98679  21.592  19.553  11.834
94612W        W98680  19.335  21.770  14.305
94613W        W98681  19.261  18.306  11.540
94614W        W98682  21.582  18.840  12.575
94615W        W98683  21.732  21.089  11.020
94616W        W98684  18.639  20.292  12.722
94617W        W98685  20.556  18.879  10.952
94618W        W98686  21.690  21.211  12.672
94619W        W98687  21.729  18.405  13.422
94620W        W98688  20.174  19.617  13.976
94621W        W98689  20.267  20.956  11.679
94622W        W98690  20.667  20.250  14.419
94623W        W98691  20.341  18.227  12.728
94624W        W98692  18.953  19.130  12.791
94625W        W98693  18.507  20.330  13.565
94626W        W98694  20.366  21.523  12.271
94627W        W98695  21.560  19.120  13.143
94628W        W98696  20.197  21.467  13.910
94629W        W98697  21.540  20.526  11.115
94630W        W98698  19.975  20.009  12.176
94631W        W98699  21.827  18.520  13.917
94632W        W98700  19.976  20.355  13.511
94633W        W98701  20.193  19.241  12.956
94634W        W98702  21.045  19.539  11.794
94635W        W98703  21.332  19.272  11.436
94636W        W98704  21.141  21.312  11.825
94637W        W98705  20.975  20.915  12.621
94638W        W98706  20.871  19.994  11.599
94639W        W98707  20.304  20.204  12.585
94640W        W98708  21.185  19.992  12.652
94641W        W98709  18.560  19.007  13.076
94642W        W98710  21.338  20.059  13.903
94643W        W98711  21.689  21.677  13.049
94644W        W98712  19.619  21.121  12.451
94645W        W98713  20.626  21.654  13.775
94646W        W98714  20.620  18.984  13.539
94647W        W98715  19.827  21.692  13.600
94648W        W98716  21.524  18.646  12.066
94649W        W98717  21.315  19.965  13.367
94650W        W98718  18.298  19.286  13.405
94651W        W98719  21.158  19.081  12.423
94652W        W98720  21.569  19.232  14.200
94653W        W98721  20.454  20.931  12.418
94654W        W98722  19.710  21.522  12.031
94655W        W98723  18.825  18.702  11.289
94656W        W98724  19.929  18.356  13.099
94657W        W98725  18.957  21.476  10.947
94658W        W98726  19.331  19.942  11.698
94659W        W98727  19.985  20.571  14.011
94660W        W98728  19.815  18.929  12.001
94661W        W98729  21.171  18.526  12.429
94662W        W98730  20.891  21.808  12.757
94663W        W98731  20.303  21.456  13.097
94664W        W98732  19.699  20.493  13.058
94665W        W98733  21.469  21.216  13.184
94666W        W98734  19.163  18.719  11.953
94667W        W98735  19.685  21.016  12.913
94668W        W98736  19.168  18.947  10.978
94669W        W98737  19.969  19.556  13.372
94670W        W98738  20.817  18.422  13.242
94671W        W98739  18.237  20.265  13.127
94672W        W98740  19.941  20.083  11.285
94673W        W98741  19.209  18.398  11.055
94674W        W98742  19.947  19.479  12.106
94675W        W98743  20.917  18.455  13.805
94676W        W98744  19.505  20.467  13.914
94677W        W98745  20.309  20.249  14.131
94678W        W98746  20.926  20.279  14.024
94679W        W98747  20.210  18.419  14.529
94680W        W98748  19.432  19.035  12.922
94681W        W98749  18.858  18.991  12.320
94682W        W98750  18.644  21.703  11.996
94683W        W98751  19.976  21.033  14.121
94684W        W98752  19.011  20.518  11.480
94685W        W98753  20.691  19.903  12.701
94686W        W98754  20.971  19.702  13.100
94687W        W98755  20.176  20.376  13.034
94688W        W98756  20.646  20.750  11.166
94689W        W98757  20.318  18.771  12.494
94690W        W98758  21.797  19.049  11.762
94691W        W98759  18.291  21.638  13.793
94692W        W98760  18.708  20.864  13.325
94693W        W98761  18.275  21.710  11.557
94694W        W98762  20.174  18.980  13.363
94695W        W98763  19.537  21.003  11.212
94696W        W98764  21.442  21.385  11.398
94697W        W98765  20.417  20.038  11.412
94698W        W98766  19.260  19.229  11.929
94699W        W98767  20.092  19.139  10.981
94700W        W98768  20.676  20.704  14.159
94701W        W98769  21.029  18.610  11.776
94702W        W98770  18.359  18.458  11.224
94703W        W98771  19.645  20.777  13.514
94704W        W98772  19.444  20.693  12.606
94705W        W98773  19.186  20.645  11.004
94706W        W98774  18.427  20.886  11.772
94707W        W98775  18.931  19.956  14.214
94708W        W98776  19.635  18.516  14.400
94709W        W98777  20.344  18.658  13.756
94710W        W98778  19.539  18.426  12.037
94711W        W98779  20.598  18.503  11.542
94712W        W98780  18.543  18.435  13.119
94713W        W98781  18.591  19.398  12.489
94714W        W98782  21.280  18.506  12.895
94715W        W98783  18.702  19.004  11.709
94716W        W98784  21.273  18.692  13.325
94717W        W98785  21.669  19.895  11.010
94718W        W98786  18.961  18.653  12.829
94719W        W98787  20.075  19.225  13.769
94720W        W98788  18.223  18.915  11.247
94721W        W98789  19.009  20.304  13.808
94722W        W98790  20.367  19.702  12.987
94723W        W98791  20.234  21.781  11.283
94724W        W98792  18.380  20.288  10.980
94725W        W98793  19.115  20.699  14.106
94726W        W98794  18.636  19.866  13.737
94727W        W98795  19.627  19.971  13.531
94728W        W98796  21.395  18.330  13.793
94729W        W98797  21.793  19.940  13.784
94730W        W98798  21.781  20.140  11.470
94731W        W98799  20.644  20.472  11.569
94732W        W98800  21.118  21.772  11.264
94733W        W98801  20.295  19.762  14.406
94734W        W98802  18.625  20.729  14.446
94735W        W98803  21.831  18.651  14.398
94736W        W98804  21.549  19.579  13.019
94737W        W98805  19.857  21.709  14.496
94738W        W98806  19.712  18.338  11.223
94739W        W98807  21.251  20.937  11.166
94740W        W98808  19.020  19.030  14.052
94741W        W98809  19.454  21.024  13.914
94742W        W98810  21.580  19.015  13.712
94743W        W98811  20.791  21.674  11.680
94744W        W98812  21.030  20.293  13.047
94745W        W98813  19.280  18.709  13.714
94746W        W98814  19.749  19.778  14.471
94747W        W98815  19.252  20.957  11.665
94748W        W98816  21.007  20.455  11.929
94749W        W98817  18.775  19.081  13.653
94750W        W98818  20.104  21.143  12.117
94751W        W98819  21.854  19.703  12.298
94752W        W98820  20.076  18.336  14.017
94753W        W98821  20.856  21.041  13.096
94754W        W98822  21.159  21.385  12.804
94755W        W98823  20.378  21.187  11.232
94756W        W98824  18.388  21.079  14.074
94757W        W98825  19.131  19.071  13.312
94758W        W98826  19.101  18.419  12.422
94759W        W98827  20.722  19.261  13.114
94760W        W98828  19.520  20.432  11.314
94761W        W98829  21.518  20.374  12.813
94762W        W98830  18.845  21.132  14.236
94763W        W98831  21.232  21.814  12.033
94764W        W98832  19.331  18.834  12.478
94765W        W98833  19.100  20.327  12.568
94766W        W98834  19.413  21.738  13.318
94767W        W98835  21.480  21.834  14.350
94768W        W98836  20.639  20.022  13.283
94769W        W98837  18.488  19.820  11.198
94770W        W98838  21.622  21.478  11.895
94771W        W98839  21.459  18.802  11.514
94772W        W98840  19.598  18.321  13.917
94773W        W98841  21.304  21.123  12.375
94774W        W98842  21.333  19.679  12.280
94775W        W98843  19.450  19.352  12.496
94776W        W98844  19.695  19.614  13.820
94777W        W98845  20.806  20.767  13.683
94778W        W98846  19.456  19.221  13.795
94779W        W98847  19.435  21.687  12.411
94780W        W98848  18.752  21.646  14.045
94781W        W98849  18.864  21.007  11.175
94782W        W98850  21.381  20.765  11.985
94783W        W98851  18.985  19.557  13.871
94784W        W98852  21.758  19.487  11.352
94785W        W98853  19.503  20.544  11.823
94786W        W98854  20.602  19.926  13.904
94787W        W98855  20.493  19.554  13.448
94788W        W98856  19.053  19.926  13.477
94789W        W98857  21.263  21.814  13.306
94790W        W98858  21.054  18.448  14.300
94791W        W98859  18.718  18.598  13.887
94792W        W98860  19.057  19.621  12.940
94793W        W98861  19.426  19.435  11.062
94794W        W98862  18.229  21.194  13.607
94795W        W98863  19.814  19.903  13.050
94796W        W98864  19.637  18.928  11.155
94797W        W98865  18.772  19.744  11.936
94798W        W98866  18.543  21.596  13.373
94799W        W98867  21.338  19.822  11.481
94800W        W98868  21.433  18.738  14.167
94801W        W98869  20.869  20.947  12.130
94802W        W98870  18.467  19.871  14.307
94803W        W98871  21.433  18.335  11.603
94804W        W98872  20.953  20.810  11.614
94805W        W98873  19.855  19.868  11.699
94806W        W98874  21.042  18.672  11.222
94807W        W98875  21.107  19.279  13.408
94808W        W98876  18.816  19.872  12.615
94809W        W98877  19.110  20.811  12.264
94810W        W98878  20.873  19.431  12.229
94811W        W98879  19.896  18.810  12.925
94812W        W98880  21.858  20.721  13.436
94813W        W98881  21.776  18.708  12.997
94814W        W98882  18.315  21.538  12.373
94815W        W98883  18.824  20.725  11.909
94816W        W98884  18.739  18.342  14.462
94817W        W98885  19.858  21.195  14.564
94818W        W98886  21.613  20.163  12.354
94819W        W98887  20.967  20.340  11.234
94820W        W98888  20.262  21.861  13.446
94821W        W98889  21.119  20.583  14.483
94822W        W98890  19.934  18.293  11.763
94823W        W98891  20.647  19.162  12.622
94824W        W98892  18.333  20.749  12.954
94825W        W98893  19.586  18.711  11.595
94826W        W98894  19.390  20.195  14.444
94827W        W98895  20.384  19.176  12.158
94828W        W98896  20.589  20.586  13.280
94829W        W98897  18.743  21.191  13.715
94830W        W98898  19.334  21.174  14.438
94831W        W98899  19.185  18.971  11.452
94832W        W98900  20.702  19.113  11.777
94833W        W98901  20.660  21.221  14.014
94834W        W98902  19.345  19.813  12.613
94835W        W98903  19.000  21.511  13.478
94836W        W98904  21.745  21.628  11.079
94837W        W98905  18.608  20.300  14.075
94838W        W98906  20.603  20.562  12.763
94839W        W98907  19.039  20.211  12.005
94840W        W98908  19.410  21.218  13.400
94841W        W98909  19.788  18.637  12.441
94842W        W98910  18.399  20.621  11.371
94843W        W98911  19.918  19.572  11.241
94844W        W98912  18.564  20.121  12.260
94845W        W98913  19.854  18.763  13.724
94846W        W98914  21.526  18.472  11.151
94847W        W98915  21.619  20.218  14.250
94848W        W98916  20.273  21.475  14.402
94849W        W98917  21.831  20.569  13.924
94850W        W98918  21.239  21.367  14.535
94851W        W98919  18.978  21.823  13.013
94852W        W98920  21.837  20.445  11.887
94853W        W98921  20.367  19.712  12.400
94854W        W98922  20.134  18.324  12.290
94855W        W98923  19.193  21.308  12.127
94856W        W98924  19.692  19.049  13.352
94857W        W98925  19.392  18.418  12.821
94858W        W98926  18.455  21.240  11.369
94859W        W98927  20.271  20.604  12.087
94860W        W98928  19.146  21.399  13.966
94861W        W98929  18.623  20.222  11.662
94862W        W98930  18.508  18.765  12.661
94863W        W98931  20.056  20.730  12.718
94864W        W98932  18.308  18.584  11.738
94865W        W98933  20.972  19.790  13.665
94866W        W98934  20.849  19.176  11.237
94867W        W98935  21.366  20.848  12.885
94868W        W98936  20.027  21.332  12.716
94869W        W98937  19.439  21.436  11.627
94870W        W98938  20.721  18.339  11.057
94871W        W98939  18.521  21.599  12.798
94872W        W98940  20.718  19.357  14.433
94873W        W98941  18.701  18.887  14.432
94874W        W98942  18.432  19.487  11.765
94875W        W98943  19.123  19.476  11.490
94876W        W98944  20.886  19.803  14.307
94877W        W98945  19.229  20.084  13.016
94878W        W98946  20.703  18.370  12.136
94879W        W98947  19.834  21.801  12.639
94880W        W98948  21.048  21.263  13.576
94881W        W98949  20.632  21.412  12.687
94882W        W98950  20.651  20.392  12.281
94883W        W98951  20.113  18.617  11.352
94884W        W98952  21.794  18.245  12.074
94885W        W98953  19.482  19.880  11.237
94886W        W98954  21.648  19.217  12.227
94887W        W98955  20.340  20.387  11.104
94888W        W98956  21.276  20.587  13.852
94889W        W98957  20.930  21.288  11.319
94890W        W98958  19.545  18.963  14.225
94891W        W98959  19.365  19.547  13.466
94892W        W98960  21.457  21.042  13.743
94893W        W98961  20.557  18.992  14.120
94894W        W98962  18.401  19.463  13.897
94895W        W98963  20.161  19.940  13.623
94896W        W98964  18.518  20.698  12.280
94897W        W98965  18.665  19.995  13.170
94898W        W98966  20.982  20.281  13.520
94899W        W98967  20.754  21.661  14.331
94900W        W98968  20.650  19.400  13.884
94901W        W98969  20.927  21.454  12.289
94902W        W98970  19.929  21.174  13.612
94903W        W98971  19.414  21.529  12.881
94904W        W98972  21.219  20.700  13.300
94905W        W98973  20.269  20.772  14.437
94906W        W98974  18.874  20.725  12.776
94907W        W98975  21.220  20.484  12.421
94908W        W98976  20.861  21.550  13.172
94909W        W98977  18.839  21.279  13.042
94910W        W98978  19.860  19.331  14.252
94911W        W98979  20.311  21.497  11.763
94912W        W98980  19.619  20.752  14.401
94913W        W98981  19.745  20.990  11.778
94914W        W98982  18.966  19.730  11.037
94915W        W98983  18.305  21.816  17.936
94916W        W98984  18.681  20.709  17.459
94917W        W98985  21.386  20.439  15.229
94918W        W98986  21.516  21.524  17.256
94919W        W98987  19.434  21.515  14.782
94920W        W98988  19.517  19.667  15.765
94921W        W98989  19.032  19.515  15.929
94922W        W98990  20.023  20.330  15.363
94923W        W98991  19.698  21.422  17.718
94924W        W98992  18.347  18.983  17.681
94925W        W98993  19.109  18.263  17.483
94926W        W98994  20.803  18.651  16.370
94927W        W98995  20.452  19.522  14.940
94928W        W98996  21.022  18.956  18.031
94929W        W98997  18.388  18.748  17.156
94930W        W98998  18.487  21.367  18.177
94931W        W98999  20.009  20.757  14.909
94932W        W99000  18.441  19.540  16.602
94933W        W99001  19.334  19.431  17.839
94934W        W99002  21.793  19.290  16.338
94935W        W99003  21.557  20.333  17.197
94936W        W99004  19.865  19.666  16.224
94937W        W99005  20.411  21.005  16.593
94938W        W99006  18.911  20.439  16.825
94939W        W99007  18.270  19.967  16.396
94940W        W99008  19.306  19.939  17.588
94941W        W99009  21.577  19.722  17.842
94942W        W99010  19.193  21.166  16.287
94943W        W99011  20.314  20.855  17.421
94944W        W99012  19.534  19.495  16.646
94945W        W99013  19.826  20.279  16.289
94946W        W99014  20.823  21.052  18.137
94947W        W99015  19.902  20.372  18.147
94948W        W99016  19.883  20.088  17.625
94949W        W99017  18.292  19.479  18.147
94950W        W99018  21.124  21.014  17.746
94951W        W99019  18.705  18.596  15.744
94952W        W99020  19.232  20.854  16.743
94953W        W99021  21.695  20.637  16.033
94954W        W99022  21.108  19.037  16.600
94955W        W99023  21.393  18.990  14.695
94956W        W99024  21.858  19.791  17.001
94957W        W99025  19.825  21.498  16.754
94958W        W99026  21.599  20.964  15.192
94959W        W99027  18.728  21.750  14.946
94960W        W99028  19.121  21.796  15.622
94961W        W99029  18.918  18.550  17.048
94962W        W99030  21.541  19.568  17.323
94963W        W99031  20.946  19.990  15.782
94964W        W99032  20.912  19.678  14.809
94965W        W99033  20.120  20.822  16.949
94966W        W99034  19.926  19.152  16.148
94967W        W99035  20.526  21.239  17.142
94968W        W99036  21.397  20.030  15.564
94969W        W99037  20.299  18.688  15.580
94970W        W99038  18.956  21.382  15.263
94971W        W99039  18.327  18.881  15.862
94972W        W99040  21.113  19.488  16.336
94973W        W99041  18.571  21.105  16.251
94974W        W99042  19.912  21.455  15.121
94975W        W99043  21.304  19.481  14.585
94976W        W99044  18.327  21.239  16.749
94977W        W99045  19.118  20.811  17.229
94978W        W99046  19.491  20.171  15.848
94979W        W99047  19.513  18.576  16.941
94980W        W99048  21.742  18.338  16.238
94981W        W99049  18.961  20.210  14.706
94982W        W99050  18.616  19.243  14.885
94983W        W99051  18.678  21.199  15.679
94984W        W99052  19.809  20.682  15.927
94985W        W99053  21.141  21.541  17.641
94986W        W99054  20.067  19.183  15.325
94987W        W99055  21.450  21.581  16.097
94988W        W99056  21.127  19.434  17.695
94989W        W99057  21.840  21.090  15.829
94990W        W99058  20.467  20.382  17.313
94991W        W99059  18.233  19.933  15.519
94992W        W99060  19.344  20.348  17.092
94993W        W99061  20.548  19.612  15.470
94994W        W99062  20.425  20.102  15.574
94995W        W99063  18.768  19.522  17.048
94996W        W99064  18.753  19.398  17.970
94997W        W99065  18.643  18.315  16.129
94998W        W99066  20.411  18.662  16.690
94999W        W99067  20.059  18.847  17.853
95000W        W99068  20.414  18.996  15.031
95001W        W99069  21.597  21.389  17.785
95002W        W99070  20.564  18.470  17.824
95003W        W99071  21.583  20.771  17.946
95004W        W99072  21.013  18.938  17.542
95005W        W99073  20.813  18.876  15.812
95006W        W99074  21.206  20.010  18.216
95007W        W99075  18.946  21.586  16.202
95008W        W99076  19.604  19.303  15.188
95009W        W99077  19.173  18.587  17.852
95010W        W99078  21.225  19.071  15.533
95011W        W99079  21.592  19.553  15.478
95012W        W99080  19.335  21.770  17.949
95013W        W99081  19.261  18.306  15.184
95014W        W99082  21.582  18.840  16.219
95015W        W99083  21.732  21.089  14.664
95016W        W99084  18.639  20.292  16.366
95017W        W99085  20.556  18.879  14.596
95018W        W99086  21.690  21.211  16.316
95019W        W99087  21.729  18.405  17.066
95020W        W99088  20.174  19.617  17.620
95021W        W99089  20.267  20.956  15.323
95022W        W99090  20.667  20.250  18.063
95023W        W99091  20.341  18.227  16.372
95024W        W99092  18.953  19.130  16.435
95025W        W99093  18.507  20.330  17.209
95026W        W99094  20.366  21.523  15.915
95027W        W99095  21.560  19.120  16.787
95028W        W99096  20.197  21.467  17.554
95029W        W99097  21.540  20.526  14.759
95030W        W99098  19.975  20.009  15.820
95031W        W99099  21.827  18.520  17.561
95032W        W99100  19.976  20.355  17.155
95033W        W99101  20.193  19.241  16.600
95034W        W99102  21.045  19.539  15.438
95035W        W99103  21.332  19.272  15.080
95036W        W99104  21.141  21.312  15.469
95037W        W99105  20.975  20.915  16.265
95038W        W99106  20.871  19.994  15.243
95039W        W99107  20.304  20.204  16.229
95040W        W99108  21.185  19.992  16.296
95041W        W99109  18.560  19.007  16.720
95042W        W99110  21.338  20.059  17.547
95043W        W99111  21.689  21.677  16.693
95044W        W99112  19.619  21.121  16.095
95045W        W99113  20.626  21.654  17.419
95046W        W99114  20.620  18.984  17.183
95047W        W99115  19.827  21.692  17.244
95048W        W99116  21.524  18.646  15.710
95049W        W99117  21.315  19.965  17.011
95050W        W99118  18.298  19.286  17.049
95051W        W99119  21.158  19.081  16.067
95052W        W99120  21.569  19.232  17.844
95053W        W99121  20.454  20.931  16.062
95054W        W99122  19.710  21.522  15.675
95055W        W99123  18.825  18.702  14.933
95056W        W99124  19.929  18.356  16.743
95057W        W99125  18.957  21.476  14.591
95058W        W99126  19.331  19.942  15.342
95059W        W99127  19.985  20.571  17.655
95060W        W99128  19.815  18.929  15.645
95061W        W99129  21.171  18.526  16.073
95062W        W99130  20.891  21.808  16.401
95063W        W99131  20.303  21.456  16.741
95064W        W99132  19.699  20.493  16.702
95065W        W99133  21.469  21.216  16.828
95066W        W99134  19.163  18.719  15.597
95067W        W99135  19.685  21.016  16.557
95068W        W99136  19.168  18.947  14.622
95069W        W99137  19.969  19.556  17.016
95070W        W99138  20.817  18.422  16.886
95071W        W99139  18.237  20.265  16.771
95072W        W99140  19.941  20.083  14.929
95073W        W99141  19.209  18.398  14.699
95074W        W99142  19.947  19.479  15.750
95075W        W99143  20.917  18.455  17.449
95076W        W99144  19.505  20.467  17.558
95077W        W99145  20.309  20.249  17.775
95078W        W99146  20.926  20.279  17.668
95079W        W99147  20.210  18.419  18.173
95080W        W99148  19.432  19.035  16.566
95081W        W99149  18.858  18.991  15.964
95082W        W99150  18.644  21.703  15.640
95083W        W99151  19.976  21.033  17.765
95084W        W99152  19.011  20.518  15.124
95085W        W99153  20.691  19.903  16.345
95086W        W99154  20.971  19.702  16.744
95087W        W99155  20.176  20.376  16.678
95088W        W99156  20.646  20.750  14.810
95089W        W99157  20.318  18.771  16.138
95090W        W99158  21.797  19.049  15.406
95091W        W99159  18.291  21.638  17.437
95092W        W99160  18.708  20.864  16.969
95093W        W99161  18.275  21.710  15.201
95094W        W99162  20.174  18.980  17.007
95095W        W99163  19.537  21.003  14.856
95096W        W99164  21.442  21.385  15.042
95097W        W99165  20.417  20.038  15.056
95098W        W99166  19.260  19.229  15.573
95099W        W99167  20.092  19.139  14.625
95100W        W99168  20.676  20.704  17.803
95101W        W99169  21.029  18.610  15.420
95102W        W99170  18.359  18.458  14.868
95103W        W99171  19.645  20.777  17.158
95104W        W99172  19.444  20.693  16.250
95105W        W99173  19.186  20.645  14.648
95106W        W99174  18.427  20.886  15.416
95107W        W99175  18.931  19.956  17.858
95108W        W99176  19.635  18.516  18.044
95109W        W99177  20.344  18.658  17.400
95110W        W99178  19.539  18.426  15.681
95111W        W99179  20.598  18.503  15.186
95112W        W99180  18.543  18.435  16.763
95113W        W99181  18.591  19.398  16.133
95114W        W99182  21.280  18.506  16.539
95115W        W99183  18.702  19.004  15.353
95116W        W99184  21.273  18.692  16.969
95117W        W99185  21.669  19.895  14.654
95118W        W99186  18.961  18.653  16.473
95119W        W99187  20.075  19.225  17.413
95120W        W99188  18.223  18.915  14.891
95121W        W99189  19.009  20.304  17.452
95122W        W99190  20.367  19.702  16.631
95123W        W99191  20.234  21.781  14.927
95124W        W99192  18.380  20.288  14.624
95125W        W99193  19.115  20.699  17.750
95126W        W99194  18.636  19.866  17.381
95127W        W99195  19.627  19.971  17.175
95128W        W99196  21.395  18.330  17.437
95129W        W99197  21.793  19.940  17.428
95130W        W99198  21.781  20.140  15.114
95131W        W99199  20.644  20.472  15.213
95132W        W99200  21.118  21.772  14.908
95133W        W99201  20.295  19.762  18.050
95134W        W99202  18.625  20.729  18.090
95135W        W99203  21.831  18.651  18.042
95136W        W99204  21.549  19.579  16.663
95137W        W99205  19.857  21.709  18.140
95138W        W99206  19.712  18.338  14.867
95139W        W99207  21.251  20.937  14.810
95140W        W99208  19.020  19.030  17.696
95141W        W99209  19.454  21.024  17.558
95142W        W99210  21.580  19.015  17.356
95143W        W99211  20.791  21.674  15.324
95144W        W99212  21.030  20.293  16.691
95145W        W99213  19.280  18.709  17.358
95146W        W99214  19.749  19.778  18.115
95147W        W99215  19.252  20.957  15.309
95148W        W99216  21.007  20.455  15.573
95149W        W99217  18.775  19.081  17.297
95150W        W99218  20.104  21.143  15.761
95151W        W99219  21.854  19.703  15.942
95152W        W99220  20.076  18.336  17.661
95153W        W99221  20.856  21.041  16.740
95154W        W99222  21.159  21.385  16.448
95155W        W99223  20.378  21.187  14.876
95156W        W99224  18.388  21.079  17.718
95157W        W99225  19.131  19.071  16.956
95158W        W99226  19.101  18.419  16.066
95159W        W99227  20.722  19.261  16.758
95160W        W99228  19.520  20.432  14.958
95161W        W99229  21.518  20.374  16.457
95162W        W99230  18.845  21.132  17.880
95163W        W99231  21.232  21.814  15.677
95164W        W99232  19.331  18.834  16.122
95165W        W99233  19.100  20.327  16.212
95166W        W99234  19.413  21.738  16.962
95167W        W99235  21.480  21.834  17.994
95168W        W99236  20.639  20.022  16.927
95169W        W99237  18.488  19.820  14.842
95170W        W99238  21.622  21.478  15.539
95171W        W99239  21.459  18.802  15.158
95172W        W99240  19.598  18.321  17.561
95173W        W99241  21.304  21.123  16.019
95174W        W99242  21.333  19.679  15.924
95175W        W99243  19.450  19.352  16.140
95176W        W99244  19.695  19.614  17.464
95177W        W99245  20.806  20.767  17.327
95178W        W99246  19.456  19.221  17.439
95179W        W99247  19.435  21.687  16.055
95180W        W99248  18.752  21.646  17.689
95181W        W99249  18.864  21.007  14.819
95182W        W99250  21.381  20.765  15.629
95183W        W99251  18.985  19.557  17.515
95184W        W99252  21.758  19.487  14.996
95185W        W99253  19.503  20.544  15.467
95186W        W99254  20.602  19.926  17.548
95187W        W99255  20.493  19.554  17.092
95188W        W99256  19.053  19.926  17.121
95189W        W99257  21.263  21.814  16.950
95190W        W99258  21.054  18.448  17.944
95191W        W99259  18.718  18.598  17.531
95192W        W99260  19.057  19.621  16.584
95193W        W99261  19.426  19.435  14.706
95194W        W99262  18.229  21.194  17.251
95195W        W99263  19.814  19.903  16.694
95196W        W99264  19.637  18.928  14.799
95197W        W99265  18.772  19.744  15.580
95198W        W99266  18.543  21.596  17.017
95199W        W99267  21.338  19.822  15.125
95200W        W99268  21.433  18.738  17.811
95201W        W99269  20.869  20.947  15.774
95202W        W99270  18.467  19.871  17.951
95203W        W99271  21.433  18.335  15.247
95204W        W99272  20.953  20.810  15.258
95205W        W99273  19.855  19.868  15.343
95206W        W99274  21.042  18.672  14.866
95207W        W99275  21.107  19.279  17.052
95208W        W99276  18.816  19.872  16.259
95209W        W99277  19.110  20.811  15.908
95210W        W99278  20.873  19.431  15.873
95211W        W99279  19.896  18.810  16.569
95212W        W99280  21.858  20.721  17.080
95213W        W99281  21.776  18.708  16.641
95214W        W99282  18.315  21.538  16.017
95215W        W99283  18.824  20.725  15.553
95216W        W99284  18.739  18.342  18.106
95217W        W99285  19.858  21.195  18.208
95218W        W99286  21.613  20.163  15.998
95219W        W99287  20.967  20.340  14.878
95220W        W99288  20.262  21.861  17.090
95221W        W99289  21.119  20.583  18.127
95222W        W99290  19.934  18.293  15.407
95223W        W99291  20.647  19.162  16.266
95224W        W99292  18.333  20.749  16.598
95225W        W99293  19.586  18.711  15.239
95226W        W99294  19.390  20.195  18.088
95227W        W99295  20.384  19.176  15.802
95228W        W99296  20.589  20.586  16.924
95229W        W99297  18.743  21.191  17.359
95230W        W99298  19.334  21.174  18.082
95231W        W99299  19.185  18.971  15.096
95232W        W99300  20.702  19.113  15.421
95233W        W99301  20.660  21.221  17.658
95234W        W99302  19.345  19.813  16.257
95235W        W99303  19.000  21.511  17.122
95236W        W99304  21.745  21.628  14.723
95237W        W99305  18.608  20.300  17.719
95238W        W99306  20.603  20.562  16.407
95239W        W99307  19.039  20.211  15.649
95240W        W99308  19.410  21.218  17.044
95241W        W99309  19.788  18.637  16.085
95242W        W99310  18.399  20.621  15.015
95243W        W99311  19.918  19.572  14.885
95244W        W99312  18.564  20.121  15.904
95245W        W99313  19.854  18.763  17.368
95246W        W99314  21.526  18.472  14.795
95247W        W99315  21.619  20.218  17.894
95248W        W99316  20.273  21.475  18.046
95249W        W99317  21.831  20.569  17.568
95250W        W99318  21.239  21.367  18.179
95251W        W99319  18.978  21.823  16.657
95252W        W99320  21.837  20.445  15.531
95253W        W99321  20.367  19.712  16.044
95254W        W99322  20.134  18.324  15.934
95255W        W99323  19.193  21.308  15.771
95256W        W99324  19.692  19.049  16.996
95257W        W99325  19.392  18.418  16.465
95258W        W99326  18.455  21.240  15.013
95259W        W99327  20.271  20.604  15.731
95260W        W99328  19.146  21.399  17.610
95261W        W99329  18.623  20.222  15.306
95262W        W99330  18.508  18.765  16.305
95263W        W99331  20.056  20.730  16.362
95264W        W99332  18.308  18.584  15.382
95265W        W99333  20.972  19.790  17.309
95266W        W99334  20.849  19.176  14.881
95267W        W99335  21.366  20.848  16.529
95268W        W99336  20.027  21.332  16.360
95269W        W99337  19.439  21.436  15.271
95270W        W99338  20.721  18.339  14.701
95271W        W99339  18.521  21.599  16.442
95272W        W99340  20.718  19.357  18.077
95273W        W99341  18.701  18.887  18.076
95274W        W99342  18.432  19.487  15.409
95275W        W99343  19.123  19.476  15.134
95276W        W99344  20.886  19.803  17.951
95277W        W99345  19.229  20.084  16.660
95278W        W99346  20.703  18.370  15.780
95279W        W99347  19.834  21.801  16.283
95280W        W99348  21.048  21.263  17.220
95281W        W99349  20.632  21.412  16.331
95282W        W99350  20.651  20.392  15.925
95283W        W99351  20.113  18.617  14.996
95284W        W99352  21.794  18.245  15.718
95285W        W99353  19.482  19.880  14.881
95286W        W99354  21.648  19.217  15.871
95287W        W99355  20.340  20.387  14.748
95288W        W99356  21.276  20.587  17.496
95289W        W99357  20.930  21.288  14.963
95290W        W99358  19.545  18.963  17.869
95291W        W99359  19.365  19.547  17.110
95292W        W99360  21.457  21.042  17.387
95293W        W99361  20.557  18.992  17.764
95294W        W99362  18.401  19.463  17.541
95295W        W99363  20.161  19.940  17.267
95296W        W99364  18.518  20.698  15.924
95297W        W99365  18.665  19.995  16.814
95298W        W99366  20.982  20.281  17.164
95299W        W99367  20.754  21.661  17.975
95300W        W99368  20.650  19.400  17.528
95301W        W99369  20.927  21.454  15.933
95302W        W99370  19.929  21.174  17.256
95303W        W99371  19.414  21.529  16.525
95304W        W99372  21.219  20.700  16.944
95305W        W99373  20.269  20.772  18.081
95306W        W99374  18.874  20.725  16.420
95307W        W99375  21.220  20.484  16.065
95308W        W99376  20.861  21.550  16.816
95309W        W99377  18.839  21.279  16.686
95310W        W99378  19.860  19.331  17.896
95311W        W99379  20.311  21.497  15.407
95312W        W99380  19.619  20.752  18.045
95313W        W99381  19.745  20.990  15.422
95314W        W99382  18.966  19.730  14.681
95315W        W99383  18.305  21.816  21.580
95316W        W99384  18.681  20.709  21.103
95317W        W99385  21.386  20.439  18.873
95318W        W99386  21.516  21.524  20.900
95319W        W99387  19.434  21.515  18.426
95320W        W99388  19.517  19.667  19.409
95321W        W99389  19.032  19.515  19.573
95322W        W99390  20.023  20.330  19.007
95323W        W99391  19.698  21.422  21.362
95324W        W99392  18.347  18.983  21.325
95325W        W99393  19.109  18.263  21.127
95326W        W99394  20.803  18.651  20.014
95327W        W99395  20.452  19.522  18.584
95328W        W99396  21.022  18.956  21.675
95329W        W99397  18.388  18.748  20.800
95330W        W99398  18.487  21.367  21.821
95331W        W99399  20.009  20.757  18.553
95332W        W99400  18.441  19.540  20.246
95333W        W99401  19.334  19.431  21.483
95334W        W99402  21.793  19.290  19.982
95335W        W99403  21.557  20.333  20.841
95336W        W99404  19.865  19.666  19.868
95337W        W99405  20.411  21.005  20.237
95338W        W99406  18.911  20.439  20.469
95339W        W99407  18.270  19.967  20.040
95340W        W99408  19.306  19.939  21.232
95341W        W99409  21.577  19.722  21.486
95342W        W99410  19.193  21.166  19.931
95343W        W99411  20.314  20.855  21.065
95344W        W99412  19.534  19.495  20.290
95345W        W99413  19.826  20.279  19.933
95346W        W99414  20.823  21.052  21.781
95347W        W99415  19.902  20.372  21.791
95348W        W99416  19.883  20.088  21.269
95349W        W99417  18.292  19.479  21.791
95350W        W99418  21.124  21.014  21.390
95351W        W99419  18.705  18.596  19.388
95352W        W99420  19.232  20.854  20.387
95353W        W99421  21.695  20.637  19.677
95354W        W99422  21.108  19.037  20.244
95355W        W99423  21.393  18.990  18.339
95356W        W99424  21.858  19.791  20.645
95357W        W99425  19.825  21.498  20.398
95358W        W99426  21.599  20.964  18.836
95359W        W99427  18.728  21.750  18.590
95360W        W99428  19.121  21.796  19.266
95361W        W99429  18.918  18.550  20.692
95362W        W99430  21.541  19.568  20.967
95363W        W99431  20.946  19.990  19.426
95364W        W99432  20.912  19.678  18.453
95365W        W99433  20.120  20.822  20.593
95366W        W99434  19.926  19.152  19.792
95367W        W99435  20.526  21.239  20.786
95368W        W99436  21.397  20.030  19.208
95369W        W99437  20.299  18.688  19.224
95370W        W99438  18.956  21.382  18.907
95371W        W99439  18.327  18.881  19.506
95372W        W99440  21.113  19.488  19.980
95373W        W99441  18.571  21.105  19.895
95374W        W99442  19.912  21.455  18.765
95375W        W99443  21.304  19.481  18.229
95376W        W99444  18.327  21.239  20.393
95377W        W99445  19.118  20.811  20.873
95378W        W99446  19.491  20.171  19.492
95379W        W99447  19.513  18.576  20.585
95380W        W99448  21.742  18.338  19.882
95381W        W99449  18.961  20.210  18.350
95382W        W99450  18.616  19.243  18.529
95383W        W99451  18.678  21.199  19.323
95384W        W99452  19.809  20.682  19.571
95385W        W99453  21.141  21.541  21.285
95386W        W99454  20.067  19.183  18.969
95387W        W99455  21.450  21.581  19.741
95388W        W99456  21.127  19.434  21.339
95389W        W99457  21.840  21.090  19.473
95390W        W99458  20.467  20.382  20.957
95391W        W99459  18.233  19.933  19.163
95392W        W99460  19.344  20.348  20.736
95393W        W99461  20.548  19.612  19.114
95394W        W99462  20.425  20.102  19.218
95395W        W99463  18.768  19.522  20.692
95396W        W99464  18.753  19.398  21.614
95397W        W99465  18.643  18.315  19.773
95398W        W99466  20.411  18.662  20.334
95399W        W99467  20.059  18.847  21.497
95400W        W99468  20.414  18.996  18.675
95401W        W99469  21.597  21.389  21.429
95402W        W99470  20.564  18.470  21.468
95403W        W99471  21.583  20.771  21.590
95404W        W99472  21.013  18.938  21.186
95405W        W99473  20.813  18.876  19.456
95406W        W99474  21.206  20.010  21.860
95407W        W99475  18.946  21.586  19.846
95408W        W99476  19.604  19.303  18.832
95409W        W99477  19.173  18.587  21.496
95410W        W99478  21.225  19.071  19.177
95411W        W99479  21.592  19.553  19.122
95412W        W99480  19.335  21.770  21.593
95413W        W99481  19.261  18.306  18.828
95414W        W99482  21.582  18.840  19.863
95415W        W99483  21.732  21.089  18.308
95416W        W99484  18.639  20.292  20.010
95417W        W99485  20.556  18.879  18.240
95418W        W99486  21.690  21.211  19.960
95419W        W99487  21.729  18.405  20.710
95420W        W99488  20.174  19.617  21.264
95421W        W99489  20.267  20.956  18.967
95422W        W99490  20.667  20.250  21.707
95423W        W99491  20.341  18.227  20.016
95424W        W99492  18.953  19.130  20.079
95425W        W99493  18.507  20.330  20.853
95426W        W99494  20.366  21.523  19.559
95427W        W99495  21.560  19.120  20.431
95428W        W99496  20.197  21.467  21.198
95429W        W99497  21.540  20.526  18.403
95430W        W99498  19.975  20.009  19.464
95431W        W99499  21.827  18.520  21.205
95432W        W99500  19.976  20.355  20.799
95433W        W99501  20.193  19.241  20.244
95434W        W99502  21.045  19.539  19.082
95435W        W99503  21.332  19.272  18.724
95436W        W99504  21.141  21.312  19.113
95437W        W99505  20.975  20.915  19.909
95438W        W99506  20.871  19.994  18.887
95439W        W99507  20.304  20.204  19.873
95440W        W99508  21.185  19.992  19.940
95441W        W99509  18.560  19.007  20.364
95442W        W99510  21.338  20.059  21.191
95443W        W99511  21.689  21.677  20.337
95444W        W99512  19.619  21.121  19.739
95445W        W99513  20.626  21.654  21.063
95446W        W99514  20.620  18.984  20.827
95447W        W99515  19.827  21.692  20.888
95448W        W99516  21.524  18.646  19.354
95449W        W99517  21.315  19.965  20.655
95450W        W99518  18.298  19.286  20.693
95451W        W99519  21.158  19.081  19.711
95452W        W99520  21.569  19.232  21.488
95453W        W99521  20.454  20.931  19.706
95454W        W99522  19.710  21.522  19.319
95455W        W99523  18.825  18.702  18.577
95456W        W99524  19.929  18.356  20.387
95457W        W99525  18.957  21.476  18.235
95458W        W99526  19.331  19.942  18.986
95459W        W99527  19.985  20.571  21.299
95460W        W99528  19.815  18.929  19.289
95461W        W99529  21.171  18.526  19.717
95462W        W99530  20.891  21.808  20.045
95463W        W99531  20.303  21.456  20.385
95464W        W99532  19.699  20.493  20.346
95465W        W99533  21.469  21.216  20.472
95466W        W99534  19.163  18.719  19.241
95467W        W99535  19.685  21.016  20.201
95468W        W99536  19.168  18.947  18.266
95469W        W99537  19.969  19.556  20.660
95470W        W99538  20.817  18.422  20.530
95471W        W99539  18.237  20.265  20.415
95472W        W99540  19.941  20.083  18.573
95473W        W99541  19.209  18.398  18.343
95474W        W99542  19.947  19.479  19.394
95475W        W99543  20.917  18.455  21.093
95476W        W99544  19.505  20.467  21.202
95477W        W99545  20.309  20.249  21.419
95478W        W99546  20.926  20.279  21.312
95479W        W99547  20.210  18.419  21.817
95480W        W99548  19.432  19.035  20.210
95481W        W99549  18.858  18.991  19.608
95482W        W99550  18.644  21.703  19.284
95483W        W99551  19.976  21.033  21.409
95484W        W99552  19.011  20.518  18.768
95485W        W99553  20.691  19.903  19.989
95486W        W99554  20.971  19.702  20.388
95487W        W99555  20.176  20.376  20.322
95488W        W99556  20.646  20.750  18.454
95489W        W99557  20.318  18.771  19.782
95490W        W99558  21.797  19.049  19.050
95491W        W99559  18.291  21.638  21.081
95492W        W99560  18.708  20.864  20.613
95493W        W99561  18.275  21.710  18.845
95494W        W99562  20.174  18.980  20.651
95495W        W99563  19.537  21.003  18.500
95496W        W99564  21.442  21.385  18.686
95497W        W99565  20.417  20.038  18.700
95498W        W99566  19.260  19.229  19.217
95499W        W99567  20.092  19.139  18.269
95500W        W99568  20.676  20.704  21.447
95501W        W99569  21.029  18.610  19.064
95502W        W99570  18.359  18.458  18.512
95503W        W99571  19.645  20.777  20.802
95504W        W99572  19.444  20.693  19.894
95505W        W99573  19.186  20.645  18.292
95506W        W99574  18.427  20.886  19.060
95507W        W99575  18.931  19.956  21.502
95508W        W99576  19.635  18.516  21.688
95509W        W99577  20.344  18.658  21.044
95510W        W99578  19.539  18.426  19.325
95511W        W99579  20.598  18.503  18.830
95512W        W99580  18.543  18.435  20.407
95513W        W99581  18.591  19.398  19.777
95514W        W99582  21.280  18.506  20.183
95515W        W99583  18.702  19.004  18.997
95516W        W99584  21.273  18.692  20.613
95517W        W99585  21.669  19.895  18.298
95518W        W99586  18.961  18.653  20.117
95519W        W99587  20.075  19.225  21.057
95520W        W99588  18.223  18.915  18.535
95521W        W99589  19.009  20.304  21.096
95522W        W99590  20.367  19.702  20.275
95523W        W99591  20.234  21.781  18.571
95524W        W99592  18.380  20.288  18.268
95525W        W99593  19.115  20.699  21.394
95526W        W99594  18.636  19.866  21.025
95527W        W99595  19.627  19.971  20.819
95528W        W99596  21.395  18.330  21.081
95529W        W99597  21.793  19.940  21.072
95530W        W99598  21.781  20.140  18.758
95531W        W99599  20.644  20.472  18.857
95532W        W99600  21.118  21.772  18.552
95533W        W99601  20.295  19.762  21.694
95534W        W99602  18.625  20.729  21.734
95535W        W99603  21.831  18.651  21.686
95536W        W99604  21.549  19.579  20.307
95537W        W99605  19.857  21.709  21.784
95538W        W99606  19.712  18.338  18.511
95539W        W99607  21.251  20.937  18.454
95540W        W99608  19.020  19.030  21.340
95541W        W99609  19.454  21.024  21.202
95542W        W99610  21.580  19.015  21.000
95543W        W99611  20.791  21.674  18.968
95544W        W99612  21.030  20.293  20.335
95545W        W99613  19.280  18.709  21.002
95546W        W99614  19.749  19.778  21.759
95547W        W99615  19.252  20.957  18.953
95548W        W99616  21.007  20.455  19.217
95549W        W99617  18.775  19.081  20.941
95550W        W99618  20.104  21.143  19.405
95551W        W99619  21.854  19.703  19.586
95552W        W99620  20.076  18.336  21.305
95553W        W99621  20.856  21.041  20.384
95554W        W99622  21.159  21.385  20.092
95555W        W99623  20.378  21.187  18.520
95556W        W99624  18.388  21.079  21.362
95557W        W99625  19.131  19.071  20.600
95558W        W99626  19.101  18.419  19.710
95559W        W99627  20.722  19.261  20.402
95560W        W99628  19.520  20.432  18.602
95561W        W99629  21.518  20.374  20.101
95562W        W99630  18.845  21.132  21.524
95563W        W99631  21.232  21.814  19.321
95564W        W99632  19.331  18.834  19.766
95565W        W99633  19.100  20.327  19.856
95566W        W99634  19.413  21.738  20.606
95567W        W99635  21.480  21.834  21.638
95568W        W99636  20.639  20.022  20.571
95569W        W99637  18.488  19.820  18.486
95570W        W99638  21.622  21.478  19.183
95571W        W99639  21.459  18.802  18.802
95572W        W99640  19.598  18.321  21.205
95573W        W99641  21.304  21.123  19.663
95574W        W99642  21.333  19.679  19.568
95575W        W99643  19.450  19.352  19.784
95576W        W99644  19.695  19.614  21.108
95577W        W99645  20.806  20.767  20.971
95578W        W99646  19.456  19.221  21.083
95579W        W99647  19.435  21.687  19.699
95580W        W99648  18.752  21.646  21.333
95581W        W99649  18.864  21.007  18.463
95582W        W99650  21.381  20.765  19.273
95583W        W99651  18.985  19.557  21.159
95584W        W99652  21.758  19.487  18.640
95585W        W99653  19.503  20.544  19.111
95586W        W99654  20.602  19.926  21.192
95587W        W99655  20.493  19.554  20.736
95588W        W99656  19.053  19.926  20.765
95589W        W99657  21.263  21.814  20.594
95590W        W99658  21.054  18.448  21.588
95591W        W99659  18.718  18.598  21.175
95592W        W99660  19.057  19.621  20.228
95593W        W99661  19.426  19.435  18.350
95594W        W99662  18.229  21.194  20.895
95595W        W99663  19.814  19.903  20.338
95596W        W99664  19.637  18.928  18.443
95597W        W99665  18.772  19.744  19.224
95598W        W99666  18.543  21.596  20.661
95599W        W99667  21.338  19.822  18.769
95600W        W99668  21.433  18.738  21.455
95601W        W99669  20.869  20.947  19.418
95602W        W99670  18.467  19.871  21.595
95603W        W99671  21.433  18.335  18.891
95604W        W99672  20.953  20.810  18.902
95605W        W99673  19.855  19.868  18.987
95606W        W99674  21.042  18.672  18.510
95607W        W99675  21.107  19.279  20.696
95608W        W99676  18.816  19.872  19.903
95609W        W99677  19.110  20.811  19.552
95610W        W99678  20.873  19.431  19.517
95611W        W99679  19.896  18.810  20.213
95612W        W99680  21.858  20.721  20.724
95613W        W99681  21.776  18.708  20.285
95614W        W99682  18.315  21.538  19.661
95615W        W99683  18.824  20.725  19.197
95616W        W99684  18.739  18.342  21.750
95617W        W99685  19.858  21.195  21.852
95618W        W99686  21.613  20.163  19.642
95619W        W99687  20.967  20.340  18.522
95620W        W99688  20.262  21.861  20.734
95621W        W99689  21.119  20.583  21.771
95622W        W99690  19.934  18.293  19.051
95623W        W99691  20.647  19.162  19.910
95624W        W99692  18.333  20.749  20.242
95625W        W99693  19.586  18.711  18.883
95626W        W99694  19.390  20.195  21.732
95627W        W99695  20.384  19.176  19.446
95628W        W99696  20.589  20.586  20.568
95629W        W99697  18.743  21.191  21.003
95630W        W99698  19.334  21.174  21.726
95631W        W99699  19.185  18.971  18.740
95632W        W99700  20.702  19.113  19.065
95633W        W99701  20.660  21.221  21.302
95634W        W99702  19.345  19.813  19.901
95635W        W99703  19.000  21.511  20.766
95636W        W99704  21.745  21.628  18.367
95637W        W99705  18.608  20.300  21.363
95638W        W99706  20.603  20.562  20.051
95639W        W99707  19.039  20.211  19.293
95640W        W99708  19.410  21.218  20.688
95641W        W99709  19.788  18.637  19.729
95642W        W99710  18.399  20.621  18.659
95643W        W99711  19.918  19.572  18.529
95644W        W99712  18.564  20.121  19.548
95645W        W99713  19.854  18.763  21.012
95646W        W99714  21.526  18.472  18.439
95647W        W99715  21.619  20.218  21.538
95648W        W99716  20.273  21.475  21.690
95649W        W99717  21.831  20.569  21.212
95650W        W99718  21.239  21.367  21.823
95651W        W99719  18.978  21.823  20.301
95652W        W99720  21.837  20.445  19.175
95653W        W99721  20.367  19.712  19.688
95654W        W99722  20.134  18.324  19.578
95655W        W99723  19.193  21.308  19.415
95656W        W99724  19.692  19.049  20.640
95657W        W99725  19.392  18.418  20.109
95658W        W99726  18.455  21.240  18.657
95659W        W99727  20.271  20.604  19.375
95660W        W99728  19.146  21.399  21.254
95661W        W99729  18.623  20.222  18.950
95662W        W99730  18.508  18.765  19.949
95663W        W99731  20.056  20.730  20.006
95664W        W99732  18.308  18.584  19.026
95665W        W99733  20.972  19.790  20.953
95666W        W99734  20.849  19.176  18.525
95667W        W99735  21.366  20.848  20.173
95668W        W99736  20.027  21.332  20.004
95669W        W99737  19.439  21.436  18.915
95670W        W99738  20.721  18.339  18.345
95671W        W99739  18.521  21.599  20.086
95672W        W99740  20.718  19.357  21.721
95673W        W99741  18.701  18.887  21.720
95674W        W99742  18.432  19.487  19.053
95675W        W99743  19.123  19.476  18.778
95676W        W99744  20.886  19.803  21.595
95677W        W99745  19.229  20.084  20.304
95678W        W99746  20.703  18.370  19.424
95679W        W99747  19.834  21.801  19.927
95680W        W99748  21.048  21.263  20.864
95681W        W99749  20.632  21.412  19.975
95682W        W99750  20.651  20.392  19.569
95683W        W99751  20.113  18.617  18.640
95684W        W99752  21.794  18.245  19.362
95685W        W99753  19.482  19.880  18.525
95686W        W99754  21.648  19.217  19.515
95687W        W99755  20.340  20.387  18.392
95688W        W99756  21.276  20.587  21.140
95689W        W99757  20.930  21.288  18.607
95690W        W99758  19.545  18.963  21.513
95691W        W99759  19.365  19.547  20.754
95692W        W99760  21.457  21.042  21.031
95693W        W99761  20.557  18.992  21.408
95694W        W99762  18.401  19.463  21.185
95695W        W99763  20.161  19.940  20.911
95696W        W99764  18.518  20.698  19.568
95697W        W99765  18.665  19.995  20.458
95698W        W99766  20.982  20.281  20.808
95699W        W99767  20.754  21.661  21.619
95700W        W99768  20.650  19.400  21.172
95701W        W99769  20.927  21.454  19.577
95702W        W99770  19.929  21.174  20.900
95703W        W99771  19.414  21.529  20.169
95704W        W99772  21.219  20.700  20.588
95705W        W99773  20.269  20.772  21.725
95706W        W99774  18.874  20.725  20.064
95707W        W99775  21.220  20.484  19.709
95708W        W99776  20.861  21.550  20.460
95709W        W99777  18.839  21.279  20.330
95710W        W99778  19.860  19.331  21.540
95711W        W99779  20.311  21.497  19.051
95712W        W99780  19.619  20.752  21.689
95713W        W99781  19.745  20.990  19.066
95714W        W99782  18.966  19.730  18.325
95715W        W99783  21.386  20.439  22.518
95716W        W99784  19.434  21.515  22.071
95717W        W99785  19.517  19.667  23.054
95718W        W99786  19.032  19.515  23.218
95719W        W99787  20.023  20.330  22.652
95720W        W99788  20.452  19.522  22.229
95721W        W99789  20.009  20.757  22.198
95722W        W99790  18.705  18.596  23.033
95723W        W99791  21.393  18.990  21.984
95724W        W99792  21.599  20.964  22.481
95725W        W99793  18.728  21.750  22.235
95726W        W99794  19.121  21.796  22.911
95727W        W99795  20.946  19.990  23.071
95728W        W99796  20.912  19.678  22.098
95729W        W99797  21.397  20.030  22.853
95730W        W99798  20.299  18.688  22.869
95731W        W99799  18.956  21.382  22.552
95732W        W99800  19.912  21.455  22.410
95733W        W99801  21.304  19.481  21.874
95734W        W99802  19.491  20.171  23.137
95735W        W99803  18.961  20.210  21.995
95736W        W99804  18.616  19.243  22.174
95737W        W99805  18.678  21.199  22.968
95738W        W99806  19.809  20.682  23.216
95739W        W99807  20.067  19.183  22.614
95740W        W99808  18.233  19.933  22.808
95741W        W99809  20.548  19.612  22.759
95742W        W99810  20.425  20.102  22.863
95743W        W99811  20.414  18.996  22.320
95744W        W99812  20.813  18.876  23.101
95745W        W99813  19.604  19.303  22.477
95746W        W99814  21.225  19.071  22.822
95747W        W99815  21.592  19.553  22.767
95748W        W99816  19.261  18.306  22.473
95749W        W99817  21.732  21.089  21.953
95750W        W99818  20.556  18.879  21.885
95751W        W99819  20.267  20.956  22.612
95752W        W99820  20.366  21.523  23.204
95753W        W99821  21.540  20.526  22.048
95754W        W99822  19.975  20.009  23.109
95755W        W99823  21.045  19.539  22.727
95756W        W99824  21.332  19.272  22.369
95757W        W99825  21.141  21.312  22.758
95758W        W99826  20.871  19.994  22.532
95759W        W99827  21.524  18.646  22.999
95760W        W99828  19.710  21.522  22.964
95761W        W99829  18.825  18.702  22.222
95762W        W99830  18.957  21.476  21.880
95763W        W99831  19.331  19.942  22.631
95764W        W99832  19.815  18.929  22.934
95765W        W99833  19.163  18.719  22.886
95766W        W99834  19.168  18.947  21.911
95767W        W99835  19.941  20.083  22.218
95768W        W99836  19.209  18.398  21.988
95769W        W99837  19.947  19.479  23.039
95770W        W99838  18.858  18.991  23.253
95771W        W99839  18.644  21.703  22.929
95772W        W99840  19.011  20.518  22.413
95773W        W99841  20.646  20.750  22.099
95774W        W99842  21.797  19.049  22.695
95775W        W99843  18.275  21.710  22.490
95776W        W99844  19.537  21.003  22.145
95777W        W99845  21.442  21.385  22.331
95778W        W99846  20.417  20.038  22.345
95779W        W99847  19.260  19.229  22.862
95780W        W99848  20.092  19.139  21.914
95781W        W99849  21.029  18.610  22.709
95782W        W99850  18.359  18.458  22.157
95783W        W99851  19.186  20.645  21.937
95784W        W99852  18.427  20.886  22.705
95785W        W99853  19.539  18.426  22.970
95786W        W99854  20.598  18.503  22.475
95787W        W99855  18.702  19.004  22.642
95788W        W99856  21.669  19.895  21.943
95789W        W99857  18.223  18.915  22.180
95790W        W99858  20.234  21.781  22.216
95791W        W99859  18.380  20.288  21.913
95792W        W99860  21.781  20.140  22.403
95793W        W99861  20.644  20.472  22.502
95794W        W99862  21.118  21.772  22.197
95795W        W99863  19.712  18.338  22.156
95796W        W99864  21.251  20.937  22.099
95797W        W99865  20.791  21.674  22.613
95798W        W99866  19.252  20.957  22.598
95799W        W99867  21.007  20.455  22.862
95800W        W99868  20.104  21.143  23.050
95801W        W99869  21.854  19.703  23.231
95802W        W99870  20.378  21.187  22.165
95803W        W99871  19.520  20.432  22.247
95804W        W99872  21.232  21.814  22.966
95805W        W99873  18.488  19.820  22.131
95806W        W99874  21.622  21.478  22.828
95807W        W99875  21.459  18.802  22.447
95808W        W99876  21.333  19.679  23.213
95809W        W99877  18.864  21.007  22.108
95810W        W99878  21.381  20.765  22.918
95811W        W99879  21.758  19.487  22.285
95812W        W99880  19.503  20.544  22.756
95813W        W99881  19.426  19.435  21.995
95814W        W99882  19.637  18.928  22.088
95815W        W99883  18.772  19.744  22.869
95816W        W99884  21.338  19.822  22.414
95817W        W99885  20.869  20.947  23.063
95818W        W99886  21.433  18.335  22.536
95819W        W99887  20.953  20.810  22.547
95820W        W99888  19.855  19.868  22.632
95821W        W99889  21.042  18.672  22.155
95822W        W99890  19.110  20.811  23.197
95823W        W99891  20.873  19.431  23.162
95824W        W99892  18.315  21.538  23.306
95825W        W99893  18.824  20.725  22.842
95826W        W99894  21.613  20.163  23.287
95827W        W99895  20.967  20.340  22.167
95828W        W99896  19.934  18.293  22.696
95829W        W99897  19.586  18.711  22.528
95830W        W99898  20.384  19.176  23.091
95831W        W99899  19.185  18.971  22.385
95832W        W99900  20.702  19.113  22.710
95833W        W99901  21.745  21.628  22.012
95834W        W99902  18.399  20.621  22.304
95835W        W99903  19.918  19.572  22.174
95836W        W99904  18.564  20.121  23.193
95837W        W99905  21.526  18.472  22.084
95838W        W99906  21.837  20.445  22.820
95839W        W99907  20.134  18.324  23.223
95840W        W99908  19.193  21.308  23.060
95841W        W99909  18.455  21.240  22.302
95842W        W99910  20.271  20.604  23.020
95843W        W99911  18.623  20.222  22.595
95844W        W99912  18.308  18.584  22.671
95845W        W99913  20.849  19.176  22.170
95846W        W99914  19.439  21.436  22.560
95847W        W99915  20.721  18.339  21.990
95848W        W99916  18.432  19.487  22.698
95849W        W99917  19.123  19.476  22.423
95850W        W99918  20.651  20.392  23.214
95851W        W99919  20.113  18.617  22.285
95852W        W99920  21.794  18.245  23.007
95853W        W99921  19.482  19.880  22.170
95854W        W99922  21.648  19.217  23.160
95855W        W99923  20.340  20.387  22.037
95856W        W99924  20.930  21.288  22.252
95857W        W99925  18.518  20.698  23.213
95858W        W99926  20.927  21.454  23.222
95859W        W99927  20.311  21.497  22.696
95860W        W99928  19.745  20.990  22.711
95861W        W99929  18.966  19.730  21.970
95862W        W99930  18.347  22.628   3.104
95863W        W99931  19.109  21.908   2.906
95864W        W99932  20.803  22.296   1.793
95865W        W99933  20.452  23.167   0.363
95866W        W99934  21.022  22.601   3.454
95867W        W99935  18.388  22.393   2.579
95868W        W99936  19.334  23.076   3.262
95869W        W99937  21.793  22.935   1.761
95870W        W99938  19.534  23.140   2.069
95871W        W99939  18.292  23.124   3.570
95872W        W99940  18.705  22.241   1.167
95873W        W99941  21.108  22.682   2.023
95874W        W99942  21.393  22.635   0.118
95875W        W99943  18.918  22.195   2.471
95876W        W99944  21.541  23.213   2.746
95877W        W99945  19.926  22.797   1.571
95878W        W99946  20.299  22.333   1.003
95879W        W99947  18.327  22.526   1.285
95880W        W99948  21.113  23.133   1.759
95881W        W99949  21.304  23.126   0.008
95882W        W99950  19.513  22.221   2.364
95883W        W99951  21.742  21.983   1.661
95884W        W99952  18.616  22.888   0.308
95885W        W99953  20.067  22.828   0.748
95886W        W99954  21.127  23.079   3.118
95887W        W99955  20.548  23.257   0.893
95888W        W99956  18.768  23.167   2.471
95889W        W99957  18.643  21.960   1.552
95890W        W99958  20.411  22.307   2.113
95891W        W99959  20.059  22.492   3.276
95892W        W99960  20.414  22.641   0.454
95893W        W99961  20.564  22.115   3.247
95894W        W99962  21.013  22.583   2.965
95895W        W99963  20.813  22.521   1.235
95896W        W99964  19.604  22.948   0.611
95897W        W99965  19.173  22.232   3.275
95898W        W99966  21.225  22.716   0.956
95899W        W99967  21.592  23.198   0.901
95900W        W99968  19.261  21.951   0.607
95901W        W99969  21.582  22.485   1.642
95902W        W99970  20.556  22.524   0.019
95903W        W99971  21.729  22.050   2.489
95904W        W99972  20.341  21.872   1.795
95905W        W99973  18.953  22.775   1.858
95906W        W99974  21.560  22.765   2.210
95907W        W99975  21.827  22.165   2.984
95908W        W99976  20.193  22.886   2.023
95909W        W99977  21.332  22.917   0.503
95910W        W99978  18.560  22.652   2.143
95911W        W99979  20.620  22.629   2.606
95912W        W99980  21.524  22.291   1.133
95913W        W99981  18.298  22.931   2.472
95914W        W99982  21.158  22.726   1.490
95915W        W99983  21.569  22.877   3.267
95916W        W99984  18.825  22.347   0.356
95917W        W99985  19.929  22.001   2.166
95918W        W99986  19.815  22.574   1.068
95919W        W99987  21.171  22.171   1.496
95920W        W99988  19.163  22.364   1.020
95921W        W99989  19.168  22.592   0.045
95922W        W99990  19.969  23.201   2.439
95923W        W99991  20.817  22.067   2.309
95924W        W99992  19.209  22.043   0.122
95925W        W99993  19.947  23.124   1.173
95926W        W99994  20.917  22.100   2.872
95927W        W99995  20.210  22.064   3.596
95928W        W99996  19.432  22.680   1.989
95929W        W99997  18.858  22.636   1.387
95930W        W99998  20.318  22.416   1.561
95931W        W99999  21.797  22.694   0.829
95932W        W    0  20.174  22.625   2.430
95933W        W    1  19.260  22.874   0.996
95934W        W    2  20.092  22.784   0.048
95935W        W    3  21.029  22.255   0.843
95936W        W    4  18.359  22.103   0.291
95937W        W    5  19.635  22.161   3.467
95938W        W    6  20.344  22.303   2.823
95939W        W    7  19.539  22.071   1.104
95940W        W    8  20.598  22.148   0.609
95941W        W    9  18.543  22.080   2.186
95942W        W   10  21.280  22.151   1.962
95943W        W   11  18.702  22.649   0.776
95944W        W   12  21.273  22.337   2.392
95945W        W   13  18.961  22.298   1.896
95946W        W   14  20.075  22.870   2.836
95947W        W   15  18.223  22.560   0.314
95948W        W   16  21.395  21.975   2.860
95949W        W   17  21.831  22.296   3.465
95950W        W   18  21.549  23.224   2.086
95951W        W   19  19.712  21.983   0.290
95952W        W   20  19.020  22.675   3.119
95953W        W   21  21.580  22.660   2.779
95954W        W   22  19.280  22.354   2.781
95955W        W   23  18.775  22.726   2.720
95956W        W   24  20.076  21.981   3.084
95957W        W   25  19.131  22.716   2.379
95958W        W   26  19.101  22.064   1.489
95959W        W   27  20.722  22.906   2.181
95960W        W   28  19.331  22.479   1.545
95961W        W   29  21.459  22.447   0.581
95962W        W   30  19.598  21.966   2.984
95963W        W   31  19.450  22.997   1.563
95964W        W   32  19.456  22.866   2.862
95965W        W   33  21.758  23.132   0.419
95966W        W   34  20.493  23.199   2.515
95967W        W   35  21.054  22.093   3.367
95968W        W   36  18.718  22.243   2.954
95969W        W   37  19.057  23.266   2.007
95970W        W   38  19.426  23.080   0.129
95971W        W   39  19.637  22.573   0.222
95972W        W   40  21.433  22.383   3.234
95973W        W   41  21.433  21.980   0.670
95974W        W   42  21.042  22.317   0.289
95975W        W   43  21.107  22.924   2.475
95976W        W   44  19.896  22.455   1.992
95977W        W   45  21.776  22.353   2.064
95978W        W   46  18.739  21.987   3.529
95979W        W   47  19.934  21.938   0.830
95980W        W   48  20.647  22.807   1.689
95981W        W   49  19.586  22.356   0.662
95982W        W   50  20.384  22.821   1.225
95983W        W   51  19.185  22.616   0.519
95984W        W   52  20.702  22.758   0.844
95985W        W   53  19.788  22.282   1.508
95986W        W   54  19.918  23.217   0.308
95987W        W   55  19.854  22.408   2.791
95988W        W   56  21.526  22.117   0.218
95989W        W   57  20.134  21.969   1.357
95990W        W   58  19.692  22.694   2.419
95991W        W   59  19.392  22.063   1.888
95992W        W   60  18.508  22.410   1.728
95993W        W   61  18.308  22.229   0.805
95994W        W   62  20.849  22.821   0.304
95995W        W   63  20.721  21.984   0.124
95996W        W   64  20.718  23.002   3.500
95997W        W   65  18.701  22.532   3.499
95998W        W   66  18.432  23.132   0.832
95999W        W   67  20.703  22.015   1.203
96000W        W   68  20.113  22.262   0.419
96001W        W   69  21.794  21.890   1.141
96002W        W   70  21.648  22.862   1.294
96003W        W   71  19.545  22.608   3.292
96004W        W   72  19.365  23.192   2.533
96005W        W   73  20.557  22.637   3.187
96006W        W   74  18.401  23.108   2.964
96007W        W   75  20.650  23.045   2.951
96008W        W   76  19.860  22.976   3.319
96009W        W   77  18.347  22.628   6.748
96010W        W   78  19.109  21.908   6.550
96011W        W   79  20.803  22.296   5.437
96012W        W   80  20.452  23.167   4.007
96013W        W   81  21.022  22.601   7.098
96014W        W   82  18.388  22.393   6.223
96015W        W   83  19.334  23.076   6.906
96016W        W   84  21.793  22.935   5.405
96017W        W   85  19.534  23.140   5.713
96018W        W   86  18.292  23.124   7.214
96019W        W   87  18.705  22.241   4.811
96020W        W   88  21.108  22.682   5.667
96021W        W   89  21.393  22.635   3.762
96022W        W   90  18.918  22.195   6.115
96023W        W   91  21.541  23.213   6.390
96024W        W   92  19.926  22.797   5.215
96025W        W   93  20.299  22.333   4.647
96026W        W   94  18.327  22.526   4.929
96027W        W   95  21.113  23.133   5.403
96028W        W   96  21.304  23.126   3.652
96029W        W   97  19.513  22.221   6.008
96030W        W   98  21.742  21.983   5.305
96031W        W   99  18.616  22.888   3.952
96032W        W  100  20.067  22.828   4.392
96033W        W  101  21.127  23.079   6.762
96034W        W  102  20.548  23.257   4.537
96035W        W  103  18.768  23.167   6.115
96036W        W  104  18.643  21.960   5.196
96037W        W  105  20.411  22.307   5.757
96038W        W  106  20.059  22.492   6.920
96039W        W  107  20.414  22.641   4.098
96040W        W  108  20.564  22.115   6.891
96041W        W  109  21.013  22.583   6.609
96042W        W  110  20.813  22.521   4.879
96043W        W  111  19.604  22.948   4.255
96044W        W  112  19.173  22.232   6.919
96045W        W  113  21.225  22.716   4.600
96046W        W  114  21.592  23.198   4.545
96047W        W  115  19.261  21.951   4.251
96048W        W  116  21.582  22.485   5.286
96049W        W  117  20.556  22.524   3.663
96050W        W  118  21.729  22.050   6.133
96051W        W  119  20.341  21.872   5.439
96052W        W  120  18.953  22.775   5.502
96053W        W  121  21.560  22.765   5.854
96054W        W  122  21.827  22.165   6.628
96055W        W  123  20.193  22.886   5.667
96056W        W  124  21.332  22.917   4.147
96057W        W  125  18.560  22.652   5.787
96058W        W  126  20.620  22.629   6.250
96059W        W  127  21.524  22.291   4.777
96060W        W  128  18.298  22.931   6.116
96061W        W  129  21.158  22.726   5.134
96062W        W  130  21.569  22.877   6.911
96063W        W  131  18.825  22.347   4.000
96064W        W  132  19.929  22.001   5.810
96065W        W  133  19.815  22.574   4.712
96066W        W  134  21.171  22.171   5.140
96067W        W  135  19.163  22.364   4.664
96068W        W  136  19.168  22.592   3.689
96069W        W  137  19.969  23.201   6.083
96070W        W  138  20.817  22.067   5.953
96071W        W  139  19.209  22.043   3.766
96072W        W  140  19.947  23.124   4.817
96073W        W  141  20.917  22.100   6.516
96074W        W  142  20.210  22.064   7.240
96075W        W  143  19.432  22.680   5.633
96076W        W  144  18.858  22.636   5.031
96077W        W  145  20.318  22.416   5.205
96078W        W  146  21.797  22.694   4.473
96079W        W  147  20.174  22.625   6.074
96080W        W  148  19.260  22.874   4.640
96081W        W  149  20.092  22.784   3.692
96082W        W  150  21.029  22.255   4.487
96083W        W  151  18.359  22.103   3.935
96084W        W  152  19.635  22.161   7.111
96085W        W  153  20.344  22.303   6.467
96086W        W  154  19.539  22.071   4.748
96087W        W  155  20.598  22.148   4.253
96088W        W  156  18.543  22.080   5.830
96089W        W  157  21.280  22.151   5.606
96090W        W  158  18.702  22.649   4.420
96091W        W  159  21.273  22.337   6.036
96092W        W  160  18.961  22.298   5.540
96093W        W  161  20.075  22.870   6.480
96094W        W  162  18.223  22.560   3.958
96095W        W  163  21.395  21.975   6.504
96096W        W  164  21.831  22.296   7.109
96097W        W  165  21.549  23.224   5.730
96098W        W  166  19.712  21.983   3.934
96099W        W  167  19.020  22.675   6.763
96100W        W  168  21.580  22.660   6.423
96101W        W  169  19.280  22.354   6.425
96102W        W  170  18.775  22.726   6.364
96103W        W  171  20.076  21.981   6.728
96104W        W  172  19.131  22.716   6.023
96105W        W  173  19.101  22.064   5.133
96106W        W  174  20.722  22.906   5.825
96107W        W  175  19.331  22.479   5.189
96108W        W  176  21.459  22.447   4.225
96109W        W  177  19.598  21.966   6.628
96110W        W  178  19.450  22.997   5.207
96111W        W  179  19.456  22.866   6.506
96112W        W  180  21.758  23.132   4.063
96113W        W  181  20.493  23.199   6.159
96114W        W  182  21.054  22.093   7.011
96115W        W  183  18.718  22.243   6.598
96116W        W  184  19.057  23.266   5.651
96117W        W  185  19.426  23.080   3.773
96118W        W  186  19.637  22.573   3.866
96119W        W  187  21.433  22.383   6.878
96120W        W  188  21.433  21.980   4.314
96121W        W  189  21.042  22.317   3.933
96122W        W  190  21.107  22.924   6.119
96123W        W  191  19.896  22.455   5.636
96124W        W  192  21.776  22.353   5.708
96125W        W  193  18.739  21.987   7.173
96126W        W  194  19.934  21.938   4.474
96127W        W  195  20.647  22.807   5.333
96128W        W  196  19.586  22.356   4.306
96129W        W  197  20.384  22.821   4.869
96130W        W  198  19.185  22.616   4.163
96131W        W  199  20.702  22.758   4.488
96132W        W  200  19.788  22.282   5.152
96133W        W  201  19.918  23.217   3.952
96134W        W  202  19.854  22.408   6.435
96135W        W  203  21.526  22.117   3.862
96136W        W  204  20.134  21.969   5.001
96137W        W  205  19.692  22.694   6.063
96138W        W  206  19.392  22.063   5.532
96139W        W  207  18.508  22.410   5.372
96140W        W  208  18.308  22.229   4.449
96141W        W  209  20.849  22.821   3.948
96142W        W  210  20.721  21.984   3.768
96143W        W  211  20.718  23.002   7.144
96144W        W  212  18.701  22.532   7.143
96145W        W  213  18.432  23.132   4.476
96146W        W  214  20.703  22.015   4.847
96147W        W  215  20.113  22.262   4.063
96148W        W  216  21.794  21.890   4.785
96149W        W  217  21.648  22.862   4.938
96150W        W  218  19.545  22.608   6.936
96151W        W  219  19.365  23.192   6.177
96152W        W  220  20.557  22.637   6.831
96153W        W  221  18.401  23.108   6.608
96154W        W  222  20.650  23.045   6.595
96155W        W  223  19.860  22.976   6.963
96156W        W  224  18.347  22.628  10.393
96157W        W  225  19.109  21.908  10.195
96158W        W  226  20.803  22.296   9.082
96159W        W  227  20.452  23.167   7.652
96160W        W  228  21.022  22.601  10.743
96161W        W  229  18.388  22.393   9.868
96162W        W  230  19.334  23.076  10.551
96163W        W  231  21.793  22.935   9.050
96164W        W  232  19.534  23.140   9.358
96165W        W  233  18.292  23.124  10.859
96166W        W  234  18.705  22.241   8.456
96167W        W  235  21.108  22.682   9.312
96168W        W  236  21.393  22.635   7.407
96169W        W  237  18.918  22.195   9.760
96170W        W  238  21.541  23.213  10.035
96171W        W  239  19.926  22.797   8.860
96172W        W  240  20.299  22.333   8.292
96173W        W  241  18.327  22.526   8.574
96174W        W  242  21.113  23.133   9.048
96175W        W  243  21.304  23.126   7.297
96176W        W  244  19.513  22.221   9.653
96177W        W  245  21.742  21.983   8.950
96178W        W  246  18.616  22.888   7.597
96179W        W  247  20.067  22.828   8.037
96180W        W  248  21.127  23.079  10.407
96181W        W  249  20.548  23.257   8.182
96182W        W  250  18.768  23.167   9.760
96183W        W  251  18.643  21.960   8.841
96184W        W  252  20.411  22.307   9.402
96185W        W  253  20.059  22.492  10.565
96186W        W  254  20.414  22.641   7.743
96187W        W  255  20.564  22.115  10.536
96188W        W  256  21.013  22.583  10.254
96189W        W  257  20.813  22.521   8.524
96190W        W  258  19.604  22.948   7.900
96191W        W  259  19.173  22.232  10.564
96192W        W  260  21.225  22.716   8.245
96193W        W  261  21.592  23.198   8.190
96194W        W  262  19.261  21.951   7.896
96195W        W  263  21.582  22.485   8.931
96196W        W  264  20.556  22.524   7.308
96197W        W  265  21.729  22.050   9.778
96198W        W  266  20.341  21.872   9.084
96199W        W  267  18.953  22.775   9.147
96200W        W  268  21.560  22.765   9.499
96201W        W  269  21.827  22.165  10.273
96202W        W  270  20.193  22.886   9.312
96203W        W  271  21.332  22.917   7.792
96204W        W  272  18.560  22.652   9.432
96205W        W  273  20.620  22.629   9.895
96206W        W  274  21.524  22.291   8.422
96207W        W  275  18.298  22.931   9.761
96208W        W  276  21.158  22.726   8.779
96209W        W  277  21.569  22.877  10.556
96210W        W  278  18.825  22.347   7.645
96211W        W  279  19.929  22.001   9.455
96212W        W  280  19.815  22.574   8.357
96213W        W  281  21.171  22.171   8.785
96214W        W  282  19.163  22.364   8.309
96215W        W  283  19.168  22.592   7.334
96216W        W  284  19.969  23.201   9.728
96217W        W  285  20.817  22.067   9.598
96218W        W  286  19.209  22.043   7.411
96219W        W  287  19.947  23.124   8.462
96220W        W  288  20.917  22.100  10.161
96221W        W  289  20.210  22.064  10.885
96222W        W  290  19.432  22.680   9.278
96223W        W  291  18.858  22.636   8.676
96224W        W  292  20.318  22.416   8.850
96225W        W  293  21.797  22.694   8.118
96226W        W  294  20.174  22.625   9.719
96227W        W  295  19.260  22.874   8.285
96228W        W  296  20.092  22.784   7.337
96229W        W  297  21.029  22.255   8.132
96230W        W  298  18.359  22.103   7.580
96231W        W  299  19.635  22.161  10.756
96232W        W  300  20.344  22.303  10.112
96233W        W  301  19.539  22.071   8.393
96234W        W  302  20.598  22.148   7.898
96235W        W  303  18.543  22.080   9.475
96236W        W  304  21.280  22.151   9.251
96237W        W  305  18.702  22.649   8.065
96238W        W  306  21.273  22.337   9.681
96239W        W  307  18.961  22.298   9.185
96240W        W  308  20.075  22.870  10.125
96241W        W  309  18.223  22.560   7.603
96242W        W  310  21.395  21.975  10.149
96243W        W  311  21.831  22.296  10.754
96244W        W  312  21.549  23.224   9.375
96245W        W  313  19.712  21.983   7.579
96246W        W  314  19.020  22.675  10.408
96247W        W  315  21.580  22.660  10.068
96248W        W  316  19.280  22.354  10.070
96249W        W  317  18.775  22.726  10.009
96250W        W  318  20.076  21.981  10.373
96251W        W  319  19.131  22.716   9.668
96252W        W  320  19.101  22.064   8.778
96253W        W  321  20.722  22.906   9.470
96254W        W  322  19.331  22.479   8.834
96255W        W  323  21.459  22.447   7.870
96256W        W  324  19.598  21.966  10.273
96257W        W  325  19.450  22.997   8.852
96258W        W  326  19.456  22.866  10.151
96259W        W  327  21.758  23.132   7.708
96260W        W  328  20.493  23.199   9.804
96261W        W  329  21.054  22.093  10.656
96262W        W  330  18.718  22.243  10.243
96263W        W  331  19.057  23.266   9.296
96264W        W  332  19.426  23.080   7.418
96265W        W  333  19.637  22.573   7.511
96266W        W  334  21.433  22.383  10.523
96267W        W  335  21.433  21.980   7.959
96268W        W  336  21.042  22.317   7.578
96269W        W  337  21.107  22.924   9.764
96270W        W  338  19.896  22.455   9.281
96271W        W  339  21.776  22.353   9.353
96272W        W  340  18.739  21.987  10.818
96273W        W  341  19.934  21.938   8.119
96274W        W  342  20.647  22.807   8.978
96275W        W  343  19.586  22.356   7.951
96276W        W  344  20.384  22.821   8.514
96277W        W  345  19.185  22.616   7.808
96278W        W  346  20.702  22.758   8.133
96279W        W  347  19.788  22.282   8.797
96280W        W  348  19.918  23.217   7.597
96281W        W  349  19.854  22.408  10.080
96282W        W  350  21.526  22.117   7.507
96283W        W  351  20.134  21.969   8.646
96284W        W  352  19.692  22.694   9.708
96285W        W  353  19.392  22.063   9.177
96286W        W  354  18.508  22.410   9.017
96287W        W  355  18.308  22.229   8.094
96288W        W  356  20.849  22.821   7.593
96289W        W  357  20.721  21.984   7.413
96290W        W  358  20.718  23.002  10.789
96291W        W  359  18.701  22.532  10.788
96292W        W  360  18.432  23.132   8.121
96293W        W  361  20.703  22.015   8.492
96294W        W  362  20.113  22.262   7.708
96295W        W  363  21.794  21.890   8.430
96296W        W  364  21.648  22.862   8.583
96297W        W  365  19.545  22.608  10.581
96298W        W  366  19.365  23.192   9.822
96299W        W  367  20.557  22.637  10.476
96300W        W  368  18.401  23.108  10.253
96301W        W  369  20.650  23.045  10.240
96302W        W  370  19.860  22.976  10.608
96303W        W  371  18.347  22.628  14.037
96304W        W  372  19.109  21.908  13.839
96305W        W  373  20.803  22.296  12.726
96306W        W  374  20.452  23.167  11.296
96307W        W  375  21.022  22.601  14.387
96308W        W  376  18.388  22.393  13.512
96309W        W  377  19.334  23.076  14.195
96310W        W  378  21.793  22.935  12.694
96311W        W  379  19.534  23.140  13.002
96312W        W  380  18.292  23.124  14.503
96313W        W  381  18.705  22.241  12.100
96314W        W  382  21.108  22.682  12.956
96315W        W  383  21.393  22.635  11.051
96316W        W  384  18.918  22.195  13.404
96317W        W  385  21.541  23.213  13.679
96318W        W  386  19.926  22.797  12.504
96319W        W  387  20.299  22.333  11.936
96320W        W  388  18.327  22.526  12.218
96321W        W  389  21.113  23.133  12.692
96322W        W  390  21.304  23.126  10.941
96323W        W  391  19.513  22.221  13.297
96324W        W  392  21.742  21.983  12.594
96325W        W  393  18.616  22.888  11.241
96326W        W  394  20.067  22.828  11.681
96327W        W  395  21.127  23.079  14.051
96328W        W  396  20.548  23.257  11.826
96329W        W  397  18.768  23.167  13.404
96330W        W  398  18.643  21.960  12.485
96331W        W  399  20.411  22.307  13.046
96332W        W  400  20.059  22.492  14.209
96333W        W  401  20.414  22.641  11.387
96334W        W  402  20.564  22.115  14.180
96335W        W  403  21.013  22.583  13.898
96336W        W  404  20.813  22.521  12.168
96337W        W  405  19.604  22.948  11.544
96338W        W  406  19.173  22.232  14.208
96339W        W  407  21.225  22.716  11.889
96340W        W  408  21.592  23.198  11.834
96341W        W  409  19.261  21.951  11.540
96342W        W  410  21.582  22.485  12.575
96343W        W  411  20.556  22.524  10.952
96344W        W  412  21.729  22.050  13.422
96345W        W  413  20.341  21.872  12.728
96346W        W  414  18.953  22.775  12.791
96347W        W  415  21.560  22.765  13.143
96348W        W  416  21.827  22.165  13.917
96349W        W  417  20.193  22.886  12.956
96350W        W  418  21.332  22.917  11.436
96351W        W  419  18.560  22.652  13.076
96352W        W  420  20.620  22.629  13.539
96353W        W  421  21.524  22.291  12.066
96354W        W  422  18.298  22.931  13.405
96355W        W  423  21.158  22.726  12.423
96356W        W  424  21.569  22.877  14.200
96357W        W  425  18.825  22.347  11.289
96358W        W  426  19.929  22.001  13.099
96359W        W  427  19.815  22.574  12.001
96360W        W  428  21.171  22.171  12.429
96361W        W  429  19.163  22.364  11.953
96362W        W  430  19.168  22.592  10.978
96363W        W  431  19.969  23.201  13.372
96364W        W  432  20.817  22.067  13.242
96365W        W  433  19.209  22.043  11.055
96366W        W  434  19.947  23.124  12.106
96367W        W  435  20.917  22.100  13.805
96368W        W  436  20.210  22.064  14.529
96369W        W  437  19.432  22.680  12.922
96370W        W  438  18.858  22.636  12.320
96371W        W  439  20.318  22.416  12.494
96372W        W  440  21.797  22.694  11.762
96373W        W  441  20.174  22.625  13.363
96374W        W  442  19.260  22.874  11.929
96375W        W  443  20.092  22.784  10.981
96376W        W  444  21.029  22.255  11.776
96377W        W  445  18.359  22.103  11.224
96378W        W  446  19.635  22.161  14.400
96379W        W  447  20.344  22.303  13.756
96380W        W  448  19.539  22.071  12.037
96381W        W  449  20.598  22.148  11.542
96382W        W  450  18.543  22.080  13.119
96383W        W  451  21.280  22.151  12.895
96384W        W  452  18.702  22.649  11.709
96385W        W  453  21.273  22.337  13.325
96386W        W  454  18.961  22.298  12.829
96387W        W  455  20.075  22.870  13.769
96388W        W  456  18.223  22.560  11.247
96389W        W  457  21.395  21.975  13.793
96390W        W  458  21.831  22.296  14.398
96391W        W  459  21.549  23.224  13.019
96392W        W  460  19.712  21.983  11.223
96393W        W  461  19.020  22.675  14.052
96394W        W  462  21.580  22.660  13.712
96395W        W  463  19.280  22.354  13.714
96396W        W  464  18.775  22.726  13.653
96397W        W  465  20.076  21.981  14.017
96398W        W  466  19.131  22.716  13.312
96399W        W  467  19.101  22.064  12.422
96400W        W  468  20.722  22.906  13.114
96401W        W  469  19.331  22.479  12.478
96402W        W  470  21.459  22.447  11.514
96403W        W  471  19.598  21.966  13.917
96404W        W  472  19.450  22.997  12.496
96405W        W  473  19.456  22.866  13.795
96406W        W  474  21.758  23.132  11.352
96407W        W  475  20.493  23.199  13.448
96408W        W  476  21.054  22.093  14.300
96409W        W  477  18.718  22.243  13.887
96410W        W  478  19.057  23.266  12.940
96411W        W  479  19.426  23.080  11.062
96412W        W  480  19.637  22.573  11.155
96413W        W  481  21.433  22.383  14.167
96414W        W  482  21.433  21.980  11.603
96415W        W  483  21.042  22.317  11.222
96416W        W  484  21.107  22.924  13.408
96417W        W  485  19.896  22.455  12.925
96418W        W  486  21.776  22.353  12.997
96419W        W  487  18.739  21.987  14.462
96420W        W  488  19.934  21.938  11.763
96421W        W  489  20.647  22.807  12.622
96422W        W  490  19.586  22.356  11.595
96423W        W  491  20.384  22.821  12.158
96424W        W  492  19.185  22.616  11.452
96425W        W  493  20.702  22.758  11.777
96426W        W  494  19.788  22.282  12.441
96427W        W  495  19.918  23.217  11.241
96428W        W  496  19.854  22.408  13.724
96429W        W  497  21.526  22.117  11.151
96430W        W  498  20.134  21.969  12.290
96431W        W  499  19.692  22.694  13.352
96432W        W  500  19.392  22.063  12.821
96433W        W  501  18.508  22.410  12.661
96434W        W  502  18.308  22.229  11.738
96435W        W  503  20.849  22.821  11.237
96436W        W  504  20.721  21.984  11.057
96437W        W  505  20.718  23.002  14.433
96438W        W  506  18.701  22.532  14.432
96439W        W  507  18.432  23.132  11.765
96440W        W  508  20.703  22.015  12.136
96441W        W  509  20.113  22.262  11.352
96442W        W  510  21.794  21.890  12.074
96443W        W  511  21.648  22.862  12.227
96444W        W  512  19.545  22.608  14.225
96445W        W  513  19.365  23.192  13.466
96446W        W  514  20.557  22.637  14.120
96447W        W  515  18.401  23.108  13.897
96448W        W  516  20.650  23.045  13.884
96449W        W  517  19.860  22.976  14.252
96450W        W  518  18.347  22.628  17.681
96451W        W  519  19.109  21.908  17.483
96452W        W  520  20.803  22.296  16.370
96453W        W  521  20.452  23.167  14.940
96454W        W  522  21.022  22.601  18.031
96455W        W  523  18.388  22.393  17.156
96456W        W  524  19.334  23.076  17.839
96457W        W  525  21.793  22.935  16.338
96458W        W  526  19.534  23.140  16.646
96459W        W  527  18.292  23.124  18.147
96460W        W  528  18.705  22.241  15.744
96461W        W  529  21.108  22.682  16.600
96462W        W  530  21.393  22.635  14.695
96463W        W  531  18.918  22.195  17.048
96464W        W  532  21.541  23.213  17.323
96465W        W  533  19.926  22.797  16.148
96466W        W  534  20.299  22.333  15.580
96467W        W  535  18.327  22.526  15.862
96468W        W  536  21.113  23.133  16.336
96469W        W  537  21.304  23.126  14.585
96470W        W  538  19.513  22.221  16.941
96471W        W  539  21.742  21.983  16.238
96472W        W  540  18.616  22.888  14.885
96473W        W  541  20.067  22.828  15.325
96474W        W  542  21.127  23.079  17.695
96475W        W  543  20.548  23.257  15.470
96476W        W  544  18.768  23.167  17.048
96477W        W  545  18.643  21.960  16.129
96478W        W  546  20.411  22.307  16.690
96479W        W  547  20.059  22.492  17.853
96480W        W  548  20.414  22.641  15.031
96481W        W  549  20.564  22.115  17.824
96482W        W  550  21.013  22.583  17.542
96483W        W  551  20.813  22.521  15.812
96484W        W  552  19.604  22.948  15.188
96485W        W  553  19.173  22.232  17.852
96486W        W  554  21.225  22.716  15.533
96487W        W  555  21.592  23.198  15.478
96488W        W  556  19.261  21.951  15.184
96489W        W  557  21.582  22.485  16.219
96490W        W  558  20.556  22.524  14.596
96491W        W  559  21.729  22.050  17.066
96492W        W  560  20.341  21.872  16.372
96493W        W  561  18.953  22.775  16.435
96494W        W  562  21.560  22.765  16.787
96495W        W  563  21.827  22.165  17.561
96496W        W  564  20.193  22.886  16.600
96497W        W  565  21.332  22.917  15.080
96498W        W  566  18.560  22.652  16.720
96499W        W  567  20.620  22.629  17.183
96500W        W  568  21.524  22.291  15.710
96501W        W  569  18.298  22.931  17.049
96502W        W  570  21.158  22.726  16.067
96503W        W  571  21.569  22.877  17.844
96504W        W  572  18.825  22.347  14.933
96505W        W  573  19.929  22.001  16.743
96506W        W  574  19.815  22.574  15.645
96507W        W  575  21.171  22.171  16.073
96508W        W  576  19.163  22.364  15.597
96509W        W  577  19.168  22.592  14.622
96510W        W  578  19.969  23.201  17.016
96511W        W  579  20.817  22.067  16.886
96512W        W  580  19.209  22.043  14.699
96513W        W  581  19.947  23.124  15.750
96514W        W  582  20.917  22.100  17.449
96515W        W  583  20.210  22.064  18.173
96516W        W  584  19.432  22.680  16.566
96517W        W  585  18.858  22.636  15.964
96518W        W  586  20.318  22.416  16.138
96519W        W  587  21.797  22.694  15.406
96520W        W  588  20.174  22.625  17.007
96521W        W  589  19.260  22.874  15.573
96522W        W  590  20.092  22.784  14.625
96523W        W  591  21.029  22.255  15.420
96524W        W  592  18.359  22.103  14.868
96525W        W  593  19.635  22.161  18.044
96526W        W  594  20.344  22.303  17.400
96527W        W  595  19.539  22.071  15.681
96528W        W  596  20.598  22.148  15.186
96529W        W  597  18.543  22.080  16.763
96530W        W  598  21.280  22.151  16.539
96531W        W  599  18.702  22.649  15.353
96532W        W  600  21.273  22.337  16.969
96533W        W  601  18.961  22.298  16.473
96534W        W  602  20.075  22.870  17.413
96535W        W  603  18.223  22.560  14.891
96536W        W  604  21.395  21.975  17.437
96537W        W  605  21.831  22.296  18.042
96538W        W  606  21.549  23.224  16.663
96539W        W  607  19.712  21.983  14.867
96540W        W  608  19.020  22.675  17.696
96541W        W  609  21.580  22.660  17.356
96542W        W  610  19.280  22.354  17.358
96543W        W  611  18.775  22.726  17.297
96544W        W  612  20.076  21.981  17.661
96545W        W  613  19.131  22.716  16.956
96546W        W  614  19.101  22.064  16.066
96547W        W  615  20.722  22.906  16.758
96548W        W  616  19.331  22.479  16.122
96549W        W  617  21.459  22.447  15.158
96550W        W  618  19.598  21.966  17.561
96551W        W  619  19.450  22.997  16.140
96552W        W  620  19.456  22.866  17.439
96553W        W  621  21.758  23.132  14.996
96554W        W  622  20.493  23.199  17.092
96555W        W  623  21.054  22.093  17.944
96556W        W  624  18.718  22.243  17.531
96557W        W  625  19.057  23.266  16.584
96558W        W  626  19.426  23.080  14.706
96559W        W  627  19.637  22.573  14.799
96560W        W  628  21.433  22.383  17.811
96561W        W  629  21.433  21.980  15.247
96562W        W  630  21.042  22.317  14.866
96563W        W  631  21.107  22.924  17.052
96564W        W  632  19.896  22.455  16.569
96565W        W  633  21.776  22.353  16.641
96566W        W  634  18.739  21.987  18.106
96567W        W  635  19.934  21.938  15.407
96568W        W  636  20.647  22.807  16.266
96569W        W  637  19.586  22.356  15.239
96570W        W  638  20.384  22.821  15.802
96571W        W  639  19.185  22.616  15.096
96572W        W  640  20.702  22.758  15.421
96573W        W  641  19.788  22.282  16.085
96574W        W  642  19.918  23.217  14.885
96575W        W  643  19.854  22.408  17.368
96576W        W  644  21.526  22.117  14.795
96577W        W  645  20.134  21.969  15.934
96578W        W  646  19.692  22.694  16.996
96579W        W  647  19.392  22.063  16.465
96580W        W  648  18.508  22.410  16.305
96581W        W  649  18.308  22.229  15.382
96582W        W  650  20.849  22.821  14.881
96583W        W  651  20.721  21.984  14.701
96584W        W  652  20.718  23.002  18.077
96585W        W  653  18.701  22.532  18.076
96586W        W  654  18.432  23.132  15.409
96587W        W  655  20.703  22.015  15.780
96588W        W  656  20.113  22.262  14.996
96589W        W  657  21.794  21.890  15.718
96590W        W  658  21.648  22.862  15.871
96591W        W  659  19.545  22.608  17.869
96592W        W  660  19.365  23.192  17.110
96593W        W  661  20.557  22.637  17.764
96594W        W  662  18.401  23.108  17.541
96595W        W  663  20.650  23.045  17.528
96596W        W  664  19.860  22.976  17.896
96597W        W  665  18.347  22.628  21.325
96598W        W  666  19.109  21.908  21.127
96599W        W  667  20.803  22.296  20.014
96600W        W  668  20.452  23.167  18.584
96601W        W  669  21.022  22.601  21.675
96602W        W  670  18.388  22.393  20.800
96603W        W  671  19.334  23.076  21.483
96604W        W  672  21.793  22.935  19.982
96605W        W  673  19.534  23.140  20.290
96606W        W  674  18.292  23.124  21.791
96607W        W  675  18.705  22.241  19.388
96608W        W  676  21.108  22.682  20.244
96609W        W  677  21.393  22.635  18.339
96610W        W  678  18.918  22.195  20.692
96611W        W  679  21.541  23.213  20.967
96612W        W  680  19.926  22.797  19.792
96613W        W  681  20.299  22.333  19.224
96614W        W  682  18.327  22.526  19.506
96615W        W  683  21.113  23.133  19.980
96616W        W  684  21.304  23.126  18.229
96617W        W  685  19.513  22.221  20.585
96618W        W  686  21.742  21.983  19.882
96619W        W  687  18.616  22.888  18.529
96620W        W  688  20.067  22.828  18.969
96621W        W  689  21.127  23.079  21.339
96622W        W  690  20.548  23.257  19.114
96623W        W  691  18.768  23.167  20.692
96624W        W  692  18.643  21.960  19.773
96625W        W  693  20.411  22.307  20.334
96626W        W  694  20.059  22.492  21.497
96627W        W  695  20.414  22.641  18.675
96628W        W  696  20.564  22.115  21.468
96629W        W  697  21.013  22.583  21.186
96630W        W  698  20.813  22.521  19.456
96631W        W  699  19.604  22.948  18.832
96632W        W  700  19.173  22.232  21.496
96633W        W  701  21.225  22.716  19.177
96634W        W  702  21.592  23.198  19.122
96635W        W  703  19.261  21.951  18.828
96636W        W  704  21.582  22.485  19.863
96637W        W  705  20.556  22.524  18.240
96638W        W  706  21.729  22.050  20.710
96639W        W  707  20.341  21.872  20.016
96640W        W  708  18.953  22.775  20.079
96641W        W  709  21.560  22.765  20.431
96642W        W  710  21.827  22.165  21.205
96643W        W  711  20.193  22.886  20.244
96644W        W  712  21.332  22.917  18.724
96645W        W  713  18.560  22.652  20.364
96646W        W  714  20.620  22.629  20.827
96647W        W  715  21.524  22.291  19.354
96648W        W  716  18.298  22.931  20.693
96649W        W  717  21.158  22.726  19.711
96650W        W  718  21.569  22.877  21.488
96651W        W  719  18.825  22.347  18.577
96652W        W  720  19.929  22.001  20.387
96653W        W  721  19.815  22.574  19.289
96654W        W  722  21.171  22.171  19.717
96655W        W  723  19.163  22.364  19.241
96656W        W  724  19.168  22.592  18.266
96657W        W  725  19.969  23.201  20.660
96658W        W  726  20.817  22.067  20.530
96659W        W  727  19.209  22.043  18.343
96660W        W  728  19.947  23.124  19.394
96661W        W  729  20.917  22.100  21.093
96662W        W  730  20.210  22.064  21.817
96663W        W  731  19.432  22.680  20.210
96664W        W  732  18.858  22.636  19.608
96665W        W  733  20.318  22.416  19.782
96666W        W  734  21.797  22.694  19.050
96667W        W  735  20.174  22.625  20.651
96668W        W  736  19.260  22.874  19.217
96669W        W  737  20.092  22.784  18.269
96670W        W  738  21.029  22.255  19.064
96671W        W  739  18.359  22.103  18.512
96672W        W  740  19.635  22.161  21.688
96673W        W  741  20.344  22.303  21.044
96674W        W  742  19.539  22.071  19.325
96675W        W  743  20.598  22.148  18.830
96676W        W  744  18.543  22.080  20.407
96677W        W  745  21.280  22.151  20.183
96678W        W  746  18.702  22.649  18.997
96679W        W  747  21.273  22.337  20.613
96680W        W  748  18.961  22.298  20.117
96681W        W  749  20.075  22.870  21.057
96682W        W  750  18.223  22.560  18.535
96683W        W  751  21.395  21.975  21.081
96684W        W  752  21.831  22.296  21.686
96685W        W  753  21.549  23.224  20.307
96686W        W  754  19.712  21.983  18.511
96687W        W  755  19.020  22.675  21.340
96688W        W  756  21.580  22.660  21.000
96689W        W  757  19.280  22.354  21.002
96690W        W  758  18.775  22.726  20.941
96691W        W  759  20.076  21.981  21.305
96692W        W  760  19.131  22.716  20.600
96693W        W  761  19.101  22.064  19.710
96694W        W  762  20.722  22.906  20.402
96695W        W  763  19.331  22.479  19.766
96696W        W  764  21.459  22.447  18.802
96697W        W  765  19.598  21.966  21.205
96698W        W  766  19.450  22.997  19.784
96699W        W  767  19.456  22.866  21.083
96700W        W  768  21.758  23.132  18.640
96701W        W  769  20.493  23.199  20.736
96702W        W  770  21.054  22.093  21.588
96703W        W  771  18.718  22.243  21.175
96704W        W  772  19.057  23.266  20.228
96705W        W  773  19.426  23.080  18.350
96706W        W  774  19.637  22.573  18.443
96707W        W  775  21.433  22.383  21.455
96708W        W  776  21.433  21.980  18.891
96709W        W  777  21.042  22.317  18.510
96710W        W  778  21.107  22.924  20.696
96711W        W  779  19.896  22.455  20.213
96712W        W  780  21.776  22.353  20.285
96713W        W  781  18.739  21.987  21.750
96714W        W  782  19.934  21.938  19.051
96715W        W  783  20.647  22.807  19.910
96716W        W  784  19.586  22.356  18.883
96717W        W  785  20.384  22.821  19.446
96718W        W  786  19.185  22.616  18.740
96719W        W  787  20.702  22.758  19.065
96720W        W  788  19.788  22.282  19.729
96721W        W  789  19.918  23.217  18.529
96722W        W  790  19.854  22.408  21.012
96723W        W  791  21.526  22.117  18.439
96724W        W  792  20.134  21.969  19.578
96725W        W  793  19.692  22.694  20.640
96726W        W  794  19.392  22.063  20.109
96727W        W  795  18.508  22.410  19.949
96728W        W  796  18.308  22.229  19.026
96729W        W  797  20.849  22.821  18.525
96730W        W  798  20.721  21.984  18.345
96731W        W  799  20.718  23.002  21.721
96732W        W  800  18.701  22.532  21.720
96733W        W  801  18.432  23.132  19.053
96734W        W  802  20.703  22.015  19.424
96735W        W  803  20.113  22.262  18.640
96736W        W  804  21.794  21.890  19.362
96737W        W  805  21.648  22.862  19.515
96738W        W  806  19.545  22.608  21.513
96739W        W  807  19.365  23.192  20.754
96740W        W  808  20.557  22.637  21.408
96741W        W  809  18.401  23.108  21.185
96742W        W  810  20.650  23.045  21.172
96743W        W  811  19.860  22.976  21.540
96744W        W  812  20.452  23.167  22.229
96745W        W  813  18.705  22.241  23.033
96746W        W  814  21.393  22.635  21.984
96747W        W  815  20.299  22.333  22.869
96748W        W  816  21.304  23.126  21.874
96749W        W  817  18.616  22.888  22.174
96750W        W  818  20.067  22.828  22.614
96751W        W  819  20.548  23.257  22.759
96752W        W  820  20.414  22.641  22.320
96753W        W  821  20.813  22.521  23.101
96754W        W  822  19.604  22.948  22.477
96755W        W  823  21.225  22.716  22.822
96756W        W  824  21.592  23.198  22.767
96757W        W  825  19.261  21.951  22.473
96758W        W  826  20.556  22.524  21.885
96759W        W  827  21.332  22.917  22.369
96760W        W  828  21.524  22.291  22.999
96761W        W  829  18.825  22.347  22.222
96762W        W  830  19.815  22.574  22.934
96763W        W  831  19.163  22.364  22.886
96764W        W  832  19.168  22.592  21.911
96765W        W  833  19.209  22.043  21.988
96766W        W  834  19.947  23.124  23.039
96767W        W  835  18.858  22.636  23.253
96768W        W  836  21.797  22.694  22.695
96769W        W  837  19.260  22.874  22.862
96770W        W  838  20.092  22.784  21.914
96771W        W  839  21.029  22.255  22.709
96772W        W  840  18.359  22.103  22.157
96773W        W  841  19.539  22.071  22.970
96774W        W  842  20.598  22.148  22.475
96775W        W  843  18.702  22.649  22.642
96776W        W  844  18.223  22.560  22.180
96777W        W  845  19.712  21.983  22.156
96778W        W  846  21.459  22.447  22.447
96779W        W  847  21.758  23.132  22.285
96780W        W  848  19.426  23.080  21.995
96781W        W  849  19.637  22.573  22.088
96782W        W  850  21.433  21.980  22.536
96783W        W  851  21.042  22.317  22.155
96784W        W  852  19.934  21.938  22.696
96785W        W  853  19.586  22.356  22.528
96786W        W  854  20.384  22.821  23.091
96787W        W  855  19.185  22.616  22.385
96788W        W  856  20.702  22.758  22.710
96789W        W  857  19.918  23.217  22.174
96790W        W  858  21.526  22.117  22.084
96791W        W  859  20.134  21.969  23.223
96792W        W  860  18.308  22.229  22.671
96793W        W  861  20.849  22.821  22.170
96794W        W  862  20.721  21.984  21.990
96795W        W  863  18.432  23.132  22.698
96796W        W  864  20.113  22.262  22.285
96797W        W  865  21.794  21.890  23.007
96798W        W  866  21.648  22.862  23.160
96799W        W  867  21.950   3.595   3.359
96800W        W  868  22.326   2.488   2.882
96801W        W  869  23.162   1.446   1.188
96802W        W  870  22.677   1.294   1.352
96803W        W  871  21.992   0.762   3.104
96804W        W  872  22.754   0.042   2.906
96805W        W  873  22.033   0.527   2.579
96806W        W  874  22.132   3.146   3.600
96807W        W  875  22.086   1.319   2.025
96808W        W  876  22.979   1.210   3.262
96809W        W  877  22.556   2.218   2.248
96810W        W  878  21.915   1.746   1.819
96811W        W  879  22.951   1.718   3.011
96812W        W  880  22.838   2.945   1.710
96813W        W  881  21.937   1.258   3.570
96814W        W  882  22.350   0.375   1.167
96815W        W  883  22.877   2.633   2.166
96816W        W  884  22.373   3.529   0.369
96817W        W  885  22.766   3.575   1.045
96818W        W  886  22.563   0.329   2.471
96819W        W  887  22.601   3.161   0.686
96820W        W  888  21.972   0.660   1.285
96821W        W  889  22.216   2.884   1.674
96822W        W  890  21.972   3.018   2.172
96823W        W  891  22.763   2.590   2.652
96824W        W  892  23.136   1.950   1.271
96825W        W  893  23.158   0.355   2.364
96826W        W  894  22.606   1.989   0.129
96827W        W  895  22.261   1.022   0.308
96828W        W  896  22.323   2.978   1.102
96829W        W  897  21.878   1.712   0.942
96830W        W  898  22.989   2.127   2.515
96831W        W  899  22.413   1.301   2.471
96832W        W  900  22.398   1.177   3.393
96833W        W  901  22.288   0.094   1.552
96834W        W  902  22.591   3.365   1.625
96835W        W  903  23.249   1.082   0.611
96836W        W  904  22.818   0.366   3.275
96837W        W  905  22.906   0.085   0.607
96838W        W  906  22.284   2.071   1.789
96839W        W  907  22.598   0.909   1.858
96840W        W  908  22.152   2.109   2.632
96841W        W  909  22.205   0.786   2.143
96842W        W  910  21.943   1.065   2.472
96843W        W  911  22.470   0.481   0.356
96844W        W  912  22.602   3.255   0.014
96845W        W  913  22.808   0.498   1.020
96846W        W  914  22.813   0.726   0.045
96847W        W  915  21.882   2.044   2.194
96848W        W  916  22.854   0.177   0.122
96849W        W  917  23.150   2.246   2.981
96850W        W  918  23.077   0.814   1.989
96851W        W  919  22.503   0.770   1.387
96852W        W  920  22.289   3.482   1.063
96853W        W  921  22.656   2.297   0.547
96854W        W  922  21.936   3.417   2.860
96855W        W  923  22.353   2.643   2.392
96856W        W  924  21.920   3.489   0.624
96857W        W  925  23.182   2.782   0.279
96858W        W  926  22.905   1.008   0.996
96859W        W  927  22.004   0.237   0.291
96860W        W  928  23.290   2.556   2.581
96861W        W  929  23.089   2.472   1.673
96862W        W  930  22.831   2.424   0.071
96863W        W  931  22.072   2.665   0.839
96864W        W  932  22.576   1.735   3.281
96865W        W  933  23.280   0.295   3.467
96866W        W  934  23.184   0.205   1.104
96867W        W  935  22.188   0.214   2.186
96868W        W  936  22.236   1.177   1.556
96869W        W  937  22.347   0.783   0.776
96870W        W  938  22.606   0.432   1.896
96871W        W  939  21.868   0.694   0.314
96872W        W  940  22.654   2.083   2.875
96873W        W  941  22.025   2.067   0.047
96874W        W  942  22.760   2.478   3.173
96875W        W  943  22.281   1.645   2.804
96876W        W  944  23.272   1.750   2.598
96877W        W  945  22.270   2.508   3.513
96878W        W  946  22.665   0.809   3.119
96879W        W  947  22.925   0.488   2.781
96880W        W  948  22.897   2.736   0.732
96881W        W  949  22.420   0.860   2.720
96882W        W  950  22.033   2.858   3.141
96883W        W  951  22.776   0.850   2.379
96884W        W  952  22.746   0.198   1.489
96885W        W  953  22.490   2.911   3.303
96886W        W  954  22.976   0.613   1.545
96887W        W  955  22.745   2.106   1.635
96888W        W  956  23.058   3.517   2.385
96889W        W  957  22.133   1.599   0.265
96890W        W  958  23.095   1.131   1.563
96891W        W  959  23.101   1.000   2.862
96892W        W  960  22.397   3.425   3.112
96893W        W  961  22.509   2.786   0.242
96894W        W  962  22.630   1.336   2.938
96895W        W  963  23.148   2.323   0.890
96896W        W  964  22.698   1.705   2.544
96897W        W  965  22.363   0.377   2.954
96898W        W  966  22.702   1.400   2.007
96899W        W  967  23.071   1.214   0.129
96900W        W  968  21.874   2.973   2.674
96901W        W  969  23.282   0.707   0.222
96902W        W  970  22.417   1.523   1.003
96903W        W  971  22.188   3.375   2.440
96904W        W  972  22.112   1.650   3.374
96905W        W  973  22.461   1.651   1.682
96906W        W  974  22.755   2.590   1.331
96907W        W  975  21.960   3.317   1.440
96908W        W  976  22.469   2.504   0.976
96909W        W  977  22.384   0.121   3.529
96910W        W  978  21.978   2.528   2.021
96911W        W  979  23.231   0.490   0.662
96912W        W  980  23.035   1.974   3.511
96913W        W  981  22.388   2.970   2.782
96914W        W  982  22.979   2.953   3.505
96915W        W  983  22.830   0.750   0.519
96916W        W  984  22.990   1.592   1.680
96917W        W  985  22.645   3.290   2.545
96918W        W  986  22.253   2.079   3.142
96919W        W  987  22.684   1.990   1.072
96920W        W  988  23.055   2.997   2.467
96921W        W  989  22.044   2.400   0.438
96922W        W  990  22.209   1.900   1.327
96923W        W  991  22.623   3.602   2.080
96924W        W  992  22.838   3.087   1.194
96925W        W  993  23.037   0.197   1.888
96926W        W  994  22.100   3.019   0.436
96927W        W  995  22.791   3.178   3.033
96928W        W  996  22.268   2.001   0.729
96929W        W  997  22.153   0.544   1.728
96930W        W  998  21.953   0.363   0.805
96931W        W  999  23.084   3.215   0.694
96932W        W 1000  22.166   3.378   1.865
96933W        W 1001  22.346   0.666   3.499
96934W        W 1002  22.077   1.266   0.832
96935W        W 1003  22.768   1.255   0.557
96936W        W 1004  22.874   1.863   2.083
96937W        W 1005  23.010   1.326   2.533
96938W        W 1006  22.046   1.242   2.964
96939W        W 1007  22.163   2.477   1.347
96940W        W 1008  22.310   1.774   2.237
96941W        W 1009  23.059   3.308   1.948
96942W        W 1010  22.519   2.504   1.843
96943W        W 1011  22.484   3.058   2.109
96944W        W 1012  22.611   1.509   0.104
96945W        W 1013  21.950   3.595   7.003
96946W        W 1014  22.326   2.488   6.526
96947W        W 1015  23.079   3.294   3.849
96948W        W 1016  23.162   1.446   4.832
96949W        W 1017  22.677   1.294   4.996
96950W        W 1018  21.992   0.762   6.748
96951W        W 1019  22.754   0.042   6.550
96952W        W 1020  22.033   0.527   6.223
96953W        W 1021  22.132   3.146   7.244
96954W        W 1022  22.086   1.319   5.669
96955W        W 1023  22.979   1.210   6.906
96956W        W 1024  22.556   2.218   5.892
96957W        W 1025  21.915   1.746   5.463
96958W        W 1026  22.951   1.718   6.655
96959W        W 1027  22.838   2.945   5.354
96960W        W 1028  21.937   1.258   7.214
96961W        W 1029  22.350   0.375   4.811
96962W        W 1030  22.877   2.633   5.810
96963W        W 1031  22.373   3.529   4.013
96964W        W 1032  22.766   3.575   4.689
96965W        W 1033  22.563   0.329   6.115
96966W        W 1034  22.601   3.161   4.330
96967W        W 1035  21.972   0.660   4.929
96968W        W 1036  22.216   2.884   5.318
96969W        W 1037  21.972   3.018   5.816
96970W        W 1038  22.763   2.590   6.296
96971W        W 1039  23.136   1.950   4.915
96972W        W 1040  23.158   0.355   6.008
96973W        W 1041  22.606   1.989   3.773
96974W        W 1042  22.261   1.022   3.952
96975W        W 1043  22.323   2.978   4.746
96976W        W 1044  21.878   1.712   4.586
96977W        W 1045  22.989   2.127   6.159
96978W        W 1046  22.413   1.301   6.115
96979W        W 1047  22.398   1.177   7.037
96980W        W 1048  22.288   0.094   5.196
96981W        W 1049  22.591   3.365   5.269
96982W        W 1050  23.249   1.082   4.255
96983W        W 1051  22.818   0.366   6.919
96984W        W 1052  22.906   0.085   4.251
96985W        W 1053  22.284   2.071   5.433
96986W        W 1054  22.598   0.909   5.502
96987W        W 1055  22.152   2.109   6.276
96988W        W 1056  22.205   0.786   5.787
96989W        W 1057  21.943   1.065   6.116
96990W        W 1058  22.470   0.481   4.000
96991W        W 1059  22.602   3.255   3.658
96992W        W 1060  22.808   0.498   4.664
96993W        W 1061  22.813   0.726   3.689
96994W        W 1062  21.882   2.044   5.838
96995W        W 1063  22.854   0.177   3.766
96996W        W 1064  23.150   2.246   6.625
96997W        W 1065  23.077   0.814   5.633
96998W        W 1066  22.503   0.770   5.031
96999W        W 1067  22.289   3.482   4.707
97000W        W 1068  22.656   2.297   4.191
97001W        W 1069  21.936   3.417   6.504
97002W        W 1070  22.353   2.643   6.036
97003W        W 1071  21.920   3.489   4.268
97004W        W 1072  23.182   2.782   3.923
97005W        W 1073  22.905   1.008   4.640
97006W        W 1074  22.004   0.237   3.935
97007W        W 1075  23.290   2.556   6.225
97008W        W 1076  23.089   2.472   5.317
97009W        W 1077  22.831   2.424   3.715
97010W        W 1078  22.072   2.665   4.483
97011W        W 1079  22.576   1.735   6.925
97012W        W 1080  23.280   0.295   7.111
97013W        W 1081  23.184   0.205   4.748
97014W        W 1082  22.188   0.214   5.830
97015W        W 1083  22.236   1.177   5.200
97016W        W 1084  22.347   0.783   4.420
97017W        W 1085  22.606   0.432   5.540
97018W        W 1086  21.868   0.694   3.958
97019W        W 1087  22.654   2.083   6.519
97020W        W 1088  22.025   2.067   3.691
97021W        W 1089  22.760   2.478   6.817
97022W        W 1090  22.281   1.645   6.448
97023W        W 1091  23.272   1.750   6.242
97024W        W 1092  22.270   2.508   7.157
97025W        W 1093  22.665   0.809   6.763
97026W        W 1094  22.925   0.488   6.425
97027W        W 1095  22.897   2.736   4.376
97028W        W 1096  22.420   0.860   6.364
97029W        W 1097  22.033   2.858   6.785
97030W        W 1098  22.776   0.850   6.023
97031W        W 1099  22.746   0.198   5.133
97032W        W 1100  22.490   2.911   6.947
97033W        W 1101  22.976   0.613   5.189
97034W        W 1102  22.745   2.106   5.279
97035W        W 1103  23.058   3.517   6.029
97036W        W 1104  22.133   1.599   3.909
97037W        W 1105  23.095   1.131   5.207
97038W        W 1106  23.101   1.000   6.506
97039W        W 1107  22.397   3.425   6.756
97040W        W 1108  22.509   2.786   3.886
97041W        W 1109  22.630   1.336   6.582
97042W        W 1110  23.148   2.323   4.534
97043W        W 1111  22.698   1.705   6.188
97044W        W 1112  22.363   0.377   6.598
97045W        W 1113  22.702   1.400   5.651
97046W        W 1114  21.874   2.973   6.318
97047W        W 1115  23.282   0.707   3.866
97048W        W 1116  22.417   1.523   4.647
97049W        W 1117  22.188   3.375   6.084
97050W        W 1118  22.112   1.650   7.018
97051W        W 1119  22.461   1.651   5.326
97052W        W 1120  22.755   2.590   4.975
97053W        W 1121  21.960   3.317   5.084
97054W        W 1122  22.469   2.504   4.620
97055W        W 1123  22.384   0.121   7.173
97056W        W 1124  21.978   2.528   5.665
97057W        W 1125  23.231   0.490   4.306
97058W        W 1126  23.035   1.974   7.155
97059W        W 1127  22.388   2.970   6.426
97060W        W 1128  22.979   2.953   7.149
97061W        W 1129  22.830   0.750   4.163
97062W        W 1130  22.990   1.592   5.324
97063W        W 1131  22.645   3.290   6.189
97064W        W 1132  22.253   2.079   6.786
97065W        W 1133  22.684   1.990   4.716
97066W        W 1134  23.055   2.997   6.111
97067W        W 1135  22.044   2.400   4.082
97068W        W 1136  22.209   1.900   4.971
97069W        W 1137  22.623   3.602   5.724
97070W        W 1138  22.838   3.087   4.838
97071W        W 1139  23.037   0.197   5.532
97072W        W 1140  22.100   3.019   4.080
97073W        W 1141  22.791   3.178   6.677
97074W        W 1142  22.268   2.001   4.373
97075W        W 1143  22.153   0.544   5.372
97076W        W 1144  21.953   0.363   4.449
97077W        W 1145  23.084   3.215   4.338
97078W        W 1146  22.166   3.378   5.509
97079W        W 1147  22.346   0.666   7.143
97080W        W 1148  22.077   1.266   4.476
97081W        W 1149  22.768   1.255   4.201
97082W        W 1150  22.874   1.863   5.727
97083W        W 1151  23.010   1.326   6.177
97084W        W 1152  22.046   1.242   6.608
97085W        W 1153  22.163   2.477   4.991
97086W        W 1154  22.310   1.774   5.881
97087W        W 1155  23.059   3.308   5.592
97088W        W 1156  22.519   2.504   5.487
97089W        W 1157  22.484   3.058   5.753
97090W        W 1158  22.611   1.509   3.748
97091W        W 1159  21.950   3.595  10.648
97092W        W 1160  22.326   2.488  10.171
97093W        W 1161  23.079   3.294   7.494
97094W        W 1162  23.162   1.446   8.477
97095W        W 1163  22.677   1.294   8.641
97096W        W 1164  21.992   0.762  10.393
97097W        W 1165  22.754   0.042  10.195
97098W        W 1166  22.033   0.527   9.868
97099W        W 1167  22.132   3.146  10.889
97100W        W 1168  22.086   1.319   9.314
97101W        W 1169  22.979   1.210  10.551
97102W        W 1170  22.556   2.218   9.537
97103W        W 1171  21.915   1.746   9.108
97104W        W 1172  22.951   1.718  10.300
97105W        W 1173  22.838   2.945   8.999
97106W        W 1174  21.937   1.258  10.859
97107W        W 1175  22.350   0.375   8.456
97108W        W 1176  22.877   2.633   9.455
97109W        W 1177  22.373   3.529   7.658
97110W        W 1178  22.766   3.575   8.334
97111W        W 1179  22.563   0.329   9.760
97112W        W 1180  22.601   3.161   7.975
97113W        W 1181  21.972   0.660   8.574
97114W        W 1182  22.216   2.884   8.963
97115W        W 1183  21.972   3.018   9.461
97116W        W 1184  22.763   2.590   9.941
97117W        W 1185  23.136   1.950   8.560
97118W        W 1186  23.158   0.355   9.653
97119W        W 1187  22.606   1.989   7.418
97120W        W 1188  22.261   1.022   7.597
97121W        W 1189  22.323   2.978   8.391
97122W        W 1190  21.878   1.712   8.231
97123W        W 1191  22.989   2.127   9.804
97124W        W 1192  22.413   1.301   9.760
97125W        W 1193  22.398   1.177  10.682
97126W        W 1194  22.288   0.094   8.841
97127W        W 1195  22.591   3.365   8.914
97128W        W 1196  23.249   1.082   7.900
97129W        W 1197  22.818   0.366  10.564
97130W        W 1198  22.906   0.085   7.896
97131W        W 1199  22.284   2.071   9.078
97132W        W 1200  22.598   0.909   9.147
97133W        W 1201  22.152   2.109   9.921
97134W        W 1202  22.205   0.786   9.432
97135W        W 1203  21.943   1.065   9.761
97136W        W 1204  22.470   0.481   7.645
97137W        W 1205  22.602   3.255   7.303
97138W        W 1206  22.808   0.498   8.309
97139W        W 1207  22.813   0.726   7.334
97140W        W 1208  21.882   2.044   9.483
97141W        W 1209  22.854   0.177   7.411
97142W        W 1210  23.150   2.246  10.270
97143W        W 1211  23.077   0.814   9.278
97144W        W 1212  22.503   0.770   8.676
97145W        W 1213  22.289   3.482   8.352
97146W        W 1214  22.656   2.297   7.836
97147W        W 1215  21.936   3.417  10.149
97148W        W 1216  22.353   2.643   9.681
97149W        W 1217  21.920   3.489   7.913
97150W        W 1218  23.182   2.782   7.568
97151W        W 1219  22.905   1.008   8.285
97152W        W 1220  22.004   0.237   7.580
97153W        W 1221  23.290   2.556   9.870
97154W        W 1222  23.089   2.472   8.962
97155W        W 1223  22.831   2.424   7.360
97156W        W 1224  22.072   2.665   8.128
97157W        W 1225  22.576   1.735  10.570
97158W        W 1226  23.280   0.295  10.756
97159W        W 1227  23.184   0.205   8.393
97160W        W 1228  22.188   0.214   9.475
97161W        W 1229  22.236   1.177   8.845
97162W        W 1230  22.347   0.783   8.065
97163W        W 1231  22.606   0.432   9.185
97164W        W 1232  21.868   0.694   7.603
97165W        W 1233  22.654   2.083  10.164
97166W        W 1234  22.025   2.067   7.336
97167W        W 1235  22.760   2.478  10.462
97168W        W 1236  22.281   1.645  10.093
97169W        W 1237  23.272   1.750   9.887
97170W        W 1238  22.270   2.508  10.802
97171W        W 1239  22.665   0.809  10.408
97172W        W 1240  22.925   0.488  10.070
97173W        W 1241  22.897   2.736   8.021
97174W        W 1242  22.420   0.860  10.009
97175W        W 1243  22.033   2.858  10.430
97176W        W 1244  22.776   0.850   9.668
97177W        W 1245  22.746   0.198   8.778
97178W        W 1246  22.490   2.911  10.592
97179W        W 1247  22.976   0.613   8.834
97180W        W 1248  22.745   2.106   8.924
97181W        W 1249  23.058   3.517   9.674
97182W        W 1250  22.133   1.599   7.554
97183W        W 1251  23.095   1.131   8.852
97184W        W 1252  23.101   1.000  10.151
97185W        W 1253  22.397   3.425  10.401
97186W        W 1254  22.509   2.786   7.531
97187W        W 1255  22.630   1.336  10.227
97188W        W 1256  23.148   2.323   8.179
97189W        W 1257  22.698   1.705   9.833
97190W        W 1258  22.363   0.377  10.243
97191W        W 1259  22.702   1.400   9.296
97192W        W 1260  21.874   2.973   9.963
97193W        W 1261  23.282   0.707   7.511
97194W        W 1262  22.417   1.523   8.292
97195W        W 1263  22.188   3.375   9.729
97196W        W 1264  22.112   1.650  10.663
97197W        W 1265  22.461   1.651   8.971
97198W        W 1266  22.755   2.590   8.620
97199W        W 1267  21.960   3.317   8.729
97200W        W 1268  22.469   2.504   8.265
97201W        W 1269  22.384   0.121  10.818
97202W        W 1270  21.978   2.528   9.310
97203W        W 1271  23.231   0.490   7.951
97204W        W 1272  23.035   1.974  10.800
97205W        W 1273  22.388   2.970  10.071
97206W        W 1274  22.979   2.953  10.794
97207W        W 1275  22.830   0.750   7.808
97208W        W 1276  22.990   1.592   8.969
97209W        W 1277  22.645   3.290   9.834
97210W        W 1278  22.253   2.079  10.431
97211W        W 1279  22.684   1.990   8.361
97212W        W 1280  23.055   2.997   9.756
97213W        W 1281  22.044   2.400   7.727
97214W        W 1282  22.209   1.900   8.616
97215W        W 1283  22.623   3.602   9.369
97216W        W 1284  22.838   3.087   8.483
97217W        W 1285  23.037   0.197   9.177
97218W        W 1286  22.100   3.019   7.725
97219W        W 1287  22.791   3.178  10.322
97220W        W 1288  22.268   2.001   8.018
97221W        W 1289  22.153   0.544   9.017
97222W        W 1290  21.953   0.363   8.094
97223W        W 1291  23.084   3.215   7.983
97224W        W 1292  22.166   3.378   9.154
97225W        W 1293  22.346   0.666  10.788
97226W        W 1294  22.077   1.266   8.121
97227W        W 1295  22.768   1.255   7.846
97228W        W 1296  22.874   1.863   9.372
97229W        W 1297  23.010   1.326   9.822
97230W        W 1298  22.046   1.242  10.253
97231W        W 1299  22.163   2.477   8.636
97232W        W 1300  22.310   1.774   9.526
97233W        W 1301  23.059   3.308   9.237
97234W        W 1302  22.519   2.504   9.132
97235W        W 1303  22.484   3.058   9.398
97236W        W 1304  22.611   1.509   7.393
97237W        W 1305  21.950   3.595  14.292
97238W        W 1306  22.326   2.488  13.815
97239W        W 1307  23.079   3.294  11.138
97240W        W 1308  23.162   1.446  12.121
97241W        W 1309  22.677   1.294  12.285
97242W        W 1310  21.992   0.762  14.037
97243W        W 1311  22.754   0.042  13.839
97244W        W 1312  22.033   0.527  13.512
97245W        W 1313  22.132   3.146  14.533
97246W        W 1314  22.086   1.319  12.958
97247W        W 1315  22.979   1.210  14.195
97248W        W 1316  22.556   2.218  13.181
97249W        W 1317  21.915   1.746  12.752
97250W        W 1318  22.951   1.718  13.944
97251W        W 1319  22.838   2.945  12.643
97252W        W 1320  21.937   1.258  14.503
97253W        W 1321  22.350   0.375  12.100
97254W        W 1322  22.877   2.633  13.099
97255W        W 1323  22.373   3.529  11.302
97256W        W 1324  22.766   3.575  11.978
97257W        W 1325  22.563   0.329  13.404
97258W        W 1326  22.601   3.161  11.619
97259W        W 1327  21.972   0.660  12.218
97260W        W 1328  22.216   2.884  12.607
97261W        W 1329  21.972   3.018  13.105
97262W        W 1330  22.763   2.590  13.585
97263W        W 1331  23.136   1.950  12.204
97264W        W 1332  23.158   0.355  13.297
97265W        W 1333  22.606   1.989  11.062
97266W        W 1334  22.261   1.022  11.241
97267W        W 1335  22.323   2.978  12.035
97268W        W 1336  21.878   1.712  11.875
97269W        W 1337  22.989   2.127  13.448
97270W        W 1338  22.413   1.301  13.404
97271W        W 1339  22.398   1.177  14.326
97272W        W 1340  22.288   0.094  12.485
97273W        W 1341  22.591   3.365  12.558
97274W        W 1342  23.249   1.082  11.544
97275W        W 1343  22.818   0.366  14.208
97276W        W 1344  22.906   0.085  11.540
97277W        W 1345  22.284   2.071  12.722
97278W        W 1346  22.598   0.909  12.791
97279W        W 1347  22.152   2.109  13.565
97280W        W 1348  22.205   0.786  13.076
97281W        W 1349  21.943   1.065  13.405
97282W        W 1350  22.470   0.481  11.289
97283W        W 1351  22.602   3.255  10.947
97284W        W 1352  22.808   0.498  11.953
97285W        W 1353  22.813   0.726  10.978
97286W        W 1354  21.882   2.044  13.127
97287W        W 1355  22.854   0.177  11.055
97288W        W 1356  23.150   2.246  13.914
97289W        W 1357  23.077   0.814  12.922
97290W        W 1358  22.503   0.770  12.320
97291W        W 1359  22.289   3.482  11.996
97292W        W 1360  22.656   2.297  11.480
97293W        W 1361  21.936   3.417  13.793
97294W        W 1362  22.353   2.643  13.325
97295W        W 1363  21.920   3.489  11.557
97296W        W 1364  23.182   2.782  11.212
97297W        W 1365  22.905   1.008  11.929
97298W        W 1366  22.004   0.237  11.224
97299W        W 1367  23.290   2.556  13.514
97300W        W 1368  23.089   2.472  12.606
97301W        W 1369  22.831   2.424  11.004
97302W        W 1370  22.072   2.665  11.772
97303W        W 1371  22.576   1.735  14.214
97304W        W 1372  23.280   0.295  14.400
97305W        W 1373  23.184   0.205  12.037
97306W        W 1374  22.188   0.214  13.119
97307W        W 1375  22.236   1.177  12.489
97308W        W 1376  22.347   0.783  11.709
97309W        W 1377  22.606   0.432  12.829
97310W        W 1378  21.868   0.694  11.247
97311W        W 1379  22.654   2.083  13.808
97312W        W 1380  22.025   2.067  10.980
97313W        W 1381  22.760   2.478  14.106
97314W        W 1382  22.281   1.645  13.737
97315W        W 1383  23.272   1.750  13.531
97316W        W 1384  22.270   2.508  14.446
97317W        W 1385  22.665   0.809  14.052
97318W        W 1386  22.925   0.488  13.714
97319W        W 1387  22.897   2.736  11.665
97320W        W 1388  22.420   0.860  13.653
97321W        W 1389  22.033   2.858  14.074
97322W        W 1390  22.776   0.850  13.312
97323W        W 1391  22.746   0.198  12.422
97324W        W 1392  22.490   2.911  14.236
97325W        W 1393  22.976   0.613  12.478
97326W        W 1394  22.745   2.106  12.568
97327W        W 1395  23.058   3.517  13.318
97328W        W 1396  22.133   1.599  11.198
97329W        W 1397  23.095   1.131  12.496
97330W        W 1398  23.101   1.000  13.795
97331W        W 1399  22.397   3.425  14.045
97332W        W 1400  22.509   2.786  11.175
97333W        W 1401  22.630   1.336  13.871
97334W        W 1402  23.148   2.323  11.823
97335W        W 1403  22.698   1.705  13.477
97336W        W 1404  22.363   0.377  13.887
97337W        W 1405  22.702   1.400  12.940
97338W        W 1406  21.874   2.973  13.607
97339W        W 1407  23.282   0.707  11.155
97340W        W 1408  22.417   1.523  11.936
97341W        W 1409  22.188   3.375  13.373
97342W        W 1410  22.112   1.650  14.307
97343W        W 1411  22.461   1.651  12.615
97344W        W 1412  22.755   2.590  12.264
97345W        W 1413  21.960   3.317  12.373
97346W        W 1414  22.469   2.504  11.909
97347W        W 1415  22.384   0.121  14.462
97348W        W 1416  21.978   2.528  12.954
97349W        W 1417  23.231   0.490  11.595
97350W        W 1418  23.035   1.974  14.444
97351W        W 1419  22.388   2.970  13.715
97352W        W 1420  22.979   2.953  14.438
97353W        W 1421  22.830   0.750  11.452
97354W        W 1422  22.990   1.592  12.613
97355W        W 1423  22.645   3.290  13.478
97356W        W 1424  22.253   2.079  14.075
97357W        W 1425  22.684   1.990  12.005
97358W        W 1426  23.055   2.997  13.400
97359W        W 1427  22.044   2.400  11.371
97360W        W 1428  22.209   1.900  12.260
97361W        W 1429  22.623   3.602  13.013
97362W        W 1430  22.838   3.087  12.127
97363W        W 1431  23.037   0.197  12.821
97364W        W 1432  22.100   3.019  11.369
97365W        W 1433  22.791   3.178  13.966
97366W        W 1434  22.268   2.001  11.662
97367W        W 1435  22.153   0.544  12.661
97368W        W 1436  21.953   0.363  11.738
97369W        W 1437  23.084   3.215  11.627
97370W        W 1438  22.166   3.378  12.798
97371W        W 1439  22.346   0.666  14.432
97372W        W 1440  22.077   1.266  11.765
97373W        W 1441  22.768   1.255  11.490
97374W        W 1442  22.874   1.863  13.016
97375W        W 1443  23.010   1.326  13.466
97376W        W 1444  22.046   1.242  13.897
97377W        W 1445  22.163   2.477  12.280
97378W        W 1446  22.310   1.774  13.170
97379W        W 1447  23.059   3.308  12.881
97380W        W 1448  22.519   2.504  12.776
97381W        W 1449  22.484   3.058  13.042
97382W        W 1450  22.611   1.509  11.037
97383W        W 1451  21.950   3.595  17.936
97384W        W 1452  22.326   2.488  17.459
97385W        W 1453  23.079   3.294  14.782
97386W        W 1454  23.162   1.446  15.765
97387W        W 1455  22.677   1.294  15.929
97388W        W 1456  21.992   0.762  17.681
97389W        W 1457  22.754   0.042  17.483
97390W        W 1458  22.033   0.527  17.156
97391W        W 1459  22.132   3.146  18.177
97392W        W 1460  22.086   1.319  16.602
97393W        W 1461  22.979   1.210  17.839
97394W        W 1462  22.556   2.218  16.825
97395W        W 1463  21.915   1.746  16.396
97396W        W 1464  22.951   1.718  17.588
97397W        W 1465  22.838   2.945  16.287
97398W        W 1466  21.937   1.258  18.147
97399W        W 1467  22.350   0.375  15.744
97400W        W 1468  22.877   2.633  16.743
97401W        W 1469  22.373   3.529  14.946
97402W        W 1470  22.766   3.575  15.622
97403W        W 1471  22.563   0.329  17.048
97404W        W 1472  22.601   3.161  15.263
97405W        W 1473  21.972   0.660  15.862
97406W        W 1474  22.216   2.884  16.251
97407W        W 1475  21.972   3.018  16.749
97408W        W 1476  22.763   2.590  17.229
97409W        W 1477  23.136   1.950  15.848
97410W        W 1478  23.158   0.355  16.941
97411W        W 1479  22.606   1.989  14.706
97412W        W 1480  22.261   1.022  14.885
97413W        W 1481  22.323   2.978  15.679
97414W        W 1482  21.878   1.712  15.519
97415W        W 1483  22.989   2.127  17.092
97416W        W 1484  22.413   1.301  17.048
97417W        W 1485  22.398   1.177  17.970
97418W        W 1486  22.288   0.094  16.129
97419W        W 1487  22.591   3.365  16.202
97420W        W 1488  23.249   1.082  15.188
97421W        W 1489  22.818   0.366  17.852
97422W        W 1490  22.906   0.085  15.184
97423W        W 1491  22.284   2.071  16.366
97424W        W 1492  22.598   0.909  16.435
97425W        W 1493  22.152   2.109  17.209
97426W        W 1494  22.205   0.786  16.720
97427W        W 1495  21.943   1.065  17.049
97428W        W 1496  22.470   0.481  14.933
97429W        W 1497  22.602   3.255  14.591
97430W        W 1498  22.808   0.498  15.597
97431W        W 1499  22.813   0.726  14.622
97432W        W 1500  21.882   2.044  16.771
97433W        W 1501  22.854   0.177  14.699
97434W        W 1502  23.150   2.246  17.558
97435W        W 1503  23.077   0.814  16.566
97436W        W 1504  22.503   0.770  15.964
97437W        W 1505  22.289   3.482  15.640
97438W        W 1506  22.656   2.297  15.124
97439W        W 1507  21.936   3.417  17.437
97440W        W 1508  22.353   2.643  16.969
97441W        W 1509  21.920   3.489  15.201
97442W        W 1510  23.182   2.782  14.856
97443W        W 1511  22.905   1.008  15.573
97444W        W 1512  22.004   0.237  14.868
97445W        W 1513  23.290   2.556  17.158
97446W        W 1514  23.089   2.472  16.250
97447W        W 1515  22.831   2.424  14.648
97448W        W 1516  22.072   2.665  15.416
97449W        W 1517  22.576   1.735  17.858
97450W        W 1518  23.280   0.295  18.044
97451W        W 1519  23.184   0.205  15.681
97452W        W 1520  22.188   0.214  16.763
97453W        W 1521  22.236   1.177  16.133
97454W        W 1522  22.347   0.783  15.353
97455W        W 1523  22.606   0.432  16.473
97456W        W 1524  21.868   0.694  14.891
97457W        W 1525  22.654   2.083  17.452
97458W        W 1526  22.025   2.067  14.624
97459W        W 1527  22.760   2.478  17.750
97460W        W 1528  22.281   1.645  17.381
97461W        W 1529  23.272   1.750  17.175
97462W        W 1530  22.270   2.508  18.090
97463W        W 1531  22.665   0.809  17.696
97464W        W 1532  22.925   0.488  17.358
97465W        W 1533  22.897   2.736  15.309
97466W        W 1534  22.420   0.860  17.297
97467W        W 1535  22.033   2.858  17.718
97468W        W 1536  22.776   0.850  16.956
97469W        W 1537  22.746   0.198  16.066
97470W        W 1538  22.490   2.911  17.880
97471W        W 1539  22.976   0.613  16.122
97472W        W 1540  22.745   2.106  16.212
97473W        W 1541  23.058   3.517  16.962
97474W        W 1542  22.133   1.599  14.842
97475W        W 1543  23.095   1.131  16.140
97476W        W 1544  23.101   1.000  17.439
97477W        W 1545  22.397   3.425  17.689
97478W        W 1546  22.509   2.786  14.819
97479W        W 1547  22.630   1.336  17.515
97480W        W 1548  23.148   2.323  15.467
97481W        W 1549  22.698   1.705  17.121
97482W        W 1550  22.363   0.377  17.531
97483W        W 1551  22.702   1.400  16.584
97484W        W 1552  21.874   2.973  17.251
97485W        W 1553  23.282   0.707  14.799
97486W        W 1554  22.417   1.523  15.580
97487W        W 1555  22.188   3.375  17.017
97488W        W 1556  22.112   1.650  17.951
97489W        W 1557  22.461   1.651  16.259
97490W        W 1558  22.755   2.590  15.908
97491W        W 1559  21.960   3.317  16.017
97492W        W 1560  22.469   2.504  15.553
97493W        W 1561  22.384   0.121  18.106
97494W        W 1562  21.978   2.528  16.598
97495W        W 1563  23.231   0.490  15.239
97496W        W 1564  23.035   1.974  18.088
97497W        W 1565  22.388   2.970  17.359
97498W        W 1566  22.979   2.953  18.082
97499W        W 1567  22.830   0.750  15.096
97500W        W 1568  22.990   1.592  16.257
97501W        W 1569  22.645   3.290  17.122
97502W        W 1570  22.253   2.079  17.719
97503W        W 1571  22.684   1.990  15.649
97504W        W 1572  23.055   2.997  17.044
97505W        W 1573  22.044   2.400  15.015
97506W        W 1574  22.209   1.900  15.904
97507W        W 1575  22.623   3.602  16.657
97508W        W 1576  22.838   3.087  15.771
97509W        W 1577  23.037   0.197  16.465
97510W        W 1578  22.100   3.019  15.013
97511W        W 1579  22.791   3.178  17.610
97512W        W 1580  22.268   2.001  15.306
97513W        W 1581  22.153   0.544  16.305
97514W        W 1582  21.953   0.363  15.382
97515W        W 1583  23.084   3.215  15.271
97516W        W 1584  22.166   3.378  16.442
97517W        W 1585  22.346   0.666  18.076
97518W        W 1586  22.077   1.266  15.409
97519W        W 1587  22.768   1.255  15.134
97520W        W 1588  22.874   1.863  16.660
97521W        W 1589  23.010   1.326  17.110
97522W        W 1590  22.046   1.242  17.541
97523W        W 1591  22.163   2.477  15.924
97524W        W 1592  22.310   1.774  16.814
97525W        W 1593  23.059   3.308  16.525
97526W        W 1594  22.519   2.504  16.420
97527W        W 1595  22.484   3.058  16.686
97528W        W 1596  22.611   1.509  14.681
97529W        W 1597  21.950   3.595  21.580
97530W        W 1598  22.326   2.488  21.103
97531W        W 1599  23.079   3.294  18.426
97532W        W 1600  23.162   1.446  19.409
97533W        W 1601  22.677   1.294  19.573
97534W        W 1602  21.992   0.762  21.325
97535W        W 1603  22.754   0.042  21.127
97536W        W 1604  22.033   0.527  20.800
97537W        W 1605  22.132   3.146  21.821
97538W        W 1606  22.086   1.319  20.246
97539W        W 1607  22.979   1.210  21.483
97540W        W 1608  22.556   2.218  20.469
97541W        W 1609  21.915   1.746  20.040
97542W        W 1610  22.951   1.718  21.232
97543W        W 1611  22.838   2.945  19.931
97544W        W 1612  21.937   1.258  21.791
97545W        W 1613  22.350   0.375  19.388
97546W        W 1614  22.877   2.633  20.387
97547W        W 1615  22.373   3.529  18.590
97548W        W 1616  22.766   3.575  19.266
97549W        W 1617  22.563   0.329  20.692
97550W        W 1618  22.601   3.161  18.907
97551W        W 1619  21.972   0.660  19.506
97552W        W 1620  22.216   2.884  19.895
97553W        W 1621  21.972   3.018  20.393
97554W        W 1622  22.763   2.590  20.873
97555W        W 1623  23.136   1.950  19.492
97556W        W 1624  23.158   0.355  20.585
97557W        W 1625  22.606   1.989  18.350
97558W        W 1626  22.261   1.022  18.529
97559W        W 1627  22.323   2.978  19.323
97560W        W 1628  21.878   1.712  19.163
97561W        W 1629  22.989   2.127  20.736
97562W        W 1630  22.413   1.301  20.692
97563W        W 1631  22.398   1.177  21.614
97564W        W 1632  22.288   0.094  19.773
97565W        W 1633  22.591   3.365  19.846
97566W        W 1634  23.249   1.082  18.832
97567W        W 1635  22.818   0.366  21.496
97568W        W 1636  22.906   0.085  18.828
97569W        W 1637  22.284   2.071  20.010
97570W        W 1638  22.598   0.909  20.079
97571W        W 1639  22.152   2.109  20.853
97572W        W 1640  22.205   0.786  20.364
97573W        W 1641  21.943   1.065  20.693
97574W        W 1642  22.470   0.481  18.577
97575W        W 1643  22.602   3.255  18.235
97576W        W 1644  22.808   0.498  19.241
97577W        W 1645  22.813   0.726  18.266
97578W        W 1646  21.882   2.044  20.415
97579W        W 1647  22.854   0.177  18.343
97580W        W 1648  23.150   2.246  21.202
97581W        W 1649  23.077   0.814  20.210
97582W        W 1650  22.503   0.770  19.608
97583W        W 1651  22.289   3.482  19.284
97584W        W 1652  22.656   2.297  18.768
97585W        W 1653  21.936   3.417  21.081
97586W        W 1654  22.353   2.643  20.613
97587W        W 1655  21.920   3.489  18.845
97588W        W 1656  23.182   2.782  18.500
97589W        W 1657  22.905   1.008  19.217
97590W        W 1658  22.004   0.237  18.512
97591W        W 1659  23.290   2.556  20.802
97592W        W 1660  23.089   2.472  19.894
97593W        W 1661  22.831   2.424  18.292
97594W        W 1662  22.072   2.665  19.060
97595W        W 1663  22.576   1.735  21.502
97596W        W 1664  23.280   0.295  21.688
97597W        W 1665  23.184   0.205  19.325
97598W        W 1666  22.188   0.214  20.407
97599W        W 1667  22.236   1.177  19.777
97600W        W 1668  22.347   0.783  18.997
97601W        W 1669  22.606   0.432  20.117
97602W        W 1670  21.868   0.694  18.535
97603W        W 1671  22.654   2.083  21.096
97604W        W 1672  22.025   2.067  18.268
97605W        W 1673  22.760   2.478  21.394
97606W        W 1674  22.281   1.645  21.025
97607W        W 1675  23.272   1.750  20.819
97608W        W 1676  22.270   2.508  21.734
97609W        W 1677  22.665   0.809  21.340
97610W        W 1678  22.925   0.488  21.002
97611W        W 1679  22.897   2.736  18.953
97612W        W 1680  22.420   0.860  20.941
97613W        W 1681  22.033   2.858  21.362
97614W        W 1682  22.776   0.850  20.600
97615W        W 1683  22.746   0.198  19.710
97616W        W 1684  22.490   2.911  21.524
97617W        W 1685  22.976   0.613  19.766
97618W        W 1686  22.745   2.106  19.856
97619W        W 1687  23.058   3.517  20.606
97620W        W 1688  22.133   1.599  18.486
97621W        W 1689  23.095   1.131  19.784
97622W        W 1690  23.101   1.000  21.083
97623W        W 1691  22.397   3.425  21.333
97624W        W 1692  22.509   2.786  18.463
97625W        W 1693  22.630   1.336  21.159
97626W        W 1694  23.148   2.323  19.111
97627W        W 1695  22.698   1.705  20.765
97628W        W 1696  22.363   0.377  21.175
97629W        W 1697  22.702   1.400  20.228
97630W        W 1698  21.874   2.973  20.895
97631W        W 1699  23.282   0.707  18.443
97632W        W 1700  22.417   1.523  19.224
97633W        W 1701  22.188   3.375  20.661
97634W        W 1702  22.112   1.650  21.595
97635W        W 1703  22.461   1.651  19.903
97636W        W 1704  22.755   2.590  19.552
97637W        W 1705  21.960   3.317  19.661
97638W        W 1706  22.469   2.504  19.197
97639W        W 1707  22.384   0.121  21.750
97640W        W 1708  21.978   2.528  20.242
97641W        W 1709  23.231   0.490  18.883
97642W        W 1710  23.035   1.974  21.732
97643W        W 1711  22.388   2.970  21.003
97644W        W 1712  22.979   2.953  21.726
97645W        W 1713  22.830   0.750  18.740
97646W        W 1714  22.990   1.592  19.901
97647W        W 1715  22.645   3.290  20.766
97648W        W 1716  22.253   2.079  21.363
97649W        W 1717  22.684   1.990  19.293
97650W        W 1718  23.055   2.997  20.688
97651W        W 1719  22.044   2.400  18.659
97652W        W 1720  22.209   1.900  19.548
97653W        W 1721  22.623   3.602  20.301
97654W        W 1722  22.838   3.087  19.415
97655W        W 1723  23.037   0.197  20.109
97656W        W 1724  22.100   3.019  18.657
97657W        W 1725  22.791   3.178  21.254
97658W        W 1726  22.268   2.001  18.950
97659W        W 1727  22.153   0.544  19.949
97660W        W 1728  21.953   0.363  19.026
97661W        W 1729  23.084   3.215  18.915
97662W        W 1730  22.166   3.378  20.086
97663W        W 1731  22.346   0.666  21.720
97664W        W 1732  22.077   1.266  19.053
97665W        W 1733  22.768   1.255  18.778
97666W        W 1734  22.874   1.863  20.304
97667W        W 1735  23.010   1.326  20.754
97668W        W 1736  22.046   1.242  21.185
97669W        W 1737  22.163   2.477  19.568
97670W        W 1738  22.310   1.774  20.458
97671W        W 1739  23.059   3.308  20.169
97672W        W 1740  22.519   2.504  20.064
97673W        W 1741  22.484   3.058  20.330
97674W        W 1742  22.611   1.509  18.325
97675W        W 1743  23.079   3.294  22.071
97676W        W 1744  23.162   1.446  23.054
97677W        W 1745  22.677   1.294  23.218
97678W        W 1746  22.350   0.375  23.033
97679W        W 1747  22.373   3.529  22.235
97680W        W 1748  22.766   3.575  22.911
97681W        W 1749  22.601   3.161  22.552
97682W        W 1750  22.606   1.989  21.995
97683W        W 1751  22.261   1.022  22.174
97684W        W 1752  22.323   2.978  22.968
97685W        W 1753  21.878   1.712  22.808
97686W        W 1754  23.249   1.082  22.477
97687W        W 1755  22.906   0.085  22.473
97688W        W 1756  22.470   0.481  22.222
97689W        W 1757  22.602   3.255  21.880
97690W        W 1758  22.808   0.498  22.886
97691W        W 1759  22.813   0.726  21.911
97692W        W 1760  22.854   0.177  21.988
97693W        W 1761  22.503   0.770  23.253
97694W        W 1762  22.289   3.482  22.929
97695W        W 1763  22.656   2.297  22.413
97696W        W 1764  21.920   3.489  22.490
97697W        W 1765  23.182   2.782  22.145
97698W        W 1766  22.905   1.008  22.862
97699W        W 1767  22.004   0.237  22.157
97700W        W 1768  22.831   2.424  21.937
97701W        W 1769  22.072   2.665  22.705
97702W        W 1770  23.184   0.205  22.970
97703W        W 1771  22.347   0.783  22.642
97704W        W 1772  21.868   0.694  22.180
97705W        W 1773  22.025   2.067  21.913
97706W        W 1774  22.897   2.736  22.598
97707W        W 1775  22.133   1.599  22.131
97708W        W 1776  22.509   2.786  22.108
97709W        W 1777  23.148   2.323  22.756
97710W        W 1778  23.282   0.707  22.088
97711W        W 1779  22.417   1.523  22.869
97712W        W 1780  22.755   2.590  23.197
97713W        W 1781  21.960   3.317  23.306
97714W        W 1782  22.469   2.504  22.842
97715W        W 1783  23.231   0.490  22.528
97716W        W 1784  22.830   0.750  22.385
97717W        W 1785  22.044   2.400  22.304
97718W        W 1786  22.209   1.900  23.193
97719W        W 1787  22.838   3.087  23.060
97720W        W 1788  22.100   3.019  22.302
97721W        W 1789  22.268   2.001  22.595
97722W        W 1790  21.953   0.363  22.671
97723W        W 1791  23.084   3.215  22.560
97724W        W 1792  22.077   1.266  22.698
97725W        W 1793  22.768   1.255  22.423
97726W        W 1794  22.163   2.477  23.213
97727W        W 1795  22.611   1.509  21.970
97728W        W 1796  21.950   7.239   3.359
97729W        W 1797  22.326   6.132   2.882
97730W        W 1798  23.162   5.090   1.188
97731W        W 1799  22.677   4.938   1.352
97732W        W 1800  21.992   4.406   3.104
97733W        W 1801  22.754   3.686   2.906
97734W        W 1802  22.033   4.171   2.579
97735W        W 1803  22.132   6.790   3.600
97736W        W 1804  22.086   4.963   2.025
97737W        W 1805  22.979   4.854   3.262
97738W        W 1806  22.556   5.862   2.248
97739W        W 1807  21.915   5.390   1.819
97740W        W 1808  22.951   5.362   3.011
97741W        W 1809  22.838   6.589   1.710
97742W        W 1810  21.937   4.902   3.570
97743W        W 1811  22.350   4.019   1.167
97744W        W 1812  22.877   6.277   2.166
97745W        W 1813  22.373   7.173   0.369
97746W        W 1814  22.766   7.219   1.045
97747W        W 1815  22.563   3.973   2.471
97748W        W 1816  22.601   6.805   0.686
97749W        W 1817  21.972   4.304   1.285
97750W        W 1818  22.216   6.528   1.674
97751W        W 1819  21.972   6.662   2.172
97752W        W 1820  22.763   6.234   2.652
97753W        W 1821  23.136   5.594   1.271
97754W        W 1822  23.158   3.999   2.364
97755W        W 1823  22.606   5.633   0.129
97756W        W 1824  22.261   4.666   0.308
97757W        W 1825  22.323   6.622   1.102
97758W        W 1826  21.878   5.356   0.942
97759W        W 1827  22.989   5.771   2.515
97760W        W 1828  22.413   4.945   2.471
97761W        W 1829  22.398   4.821   3.393
97762W        W 1830  22.288   3.738   1.552
97763W        W 1831  22.591   7.009   1.625
97764W        W 1832  23.249   4.726   0.611
97765W        W 1833  22.818   4.010   3.275
97766W        W 1834  22.906   3.729   0.607
97767W        W 1835  22.284   5.715   1.789
97768W        W 1836  22.598   4.553   1.858
97769W        W 1837  22.152   5.753   2.632
97770W        W 1838  22.205   4.430   2.143
97771W        W 1839  21.943   4.709   2.472
97772W        W 1840  22.470   4.125   0.356
97773W        W 1841  22.602   6.899   0.014
97774W        W 1842  22.808   4.142   1.020
97775W        W 1843  22.813   4.370   0.045
97776W        W 1844  21.882   5.688   2.194
97777W        W 1845  22.854   3.821   0.122
97778W        W 1846  23.150   5.890   2.981
97779W        W 1847  23.077   4.458   1.989
97780W        W 1848  22.503   4.414   1.387
97781W        W 1849  22.289   7.126   1.063
97782W        W 1850  22.656   5.941   0.547
97783W        W 1851  21.936   7.061   2.860
97784W        W 1852  22.353   6.287   2.392
97785W        W 1853  21.920   7.133   0.624
97786W        W 1854  23.182   6.426   0.279
97787W        W 1855  22.905   4.652   0.996
97788W        W 1856  22.004   3.881   0.291
97789W        W 1857  23.290   6.200   2.581
97790W        W 1858  23.089   6.116   1.673
97791W        W 1859  22.831   6.068   0.071
97792W        W 1860  22.072   6.309   0.839
97793W        W 1861  22.576   5.379   3.281
97794W        W 1862  23.280   3.939   3.467
97795W        W 1863  23.184   3.849   1.104
97796W        W 1864  22.188   3.858   2.186
97797W        W 1865  22.236   4.821   1.556
97798W        W 1866  22.347   4.427   0.776
97799W        W 1867  22.606   4.076   1.896
97800W        W 1868  21.868   4.338   0.314
97801W        W 1869  22.654   5.727   2.875
97802W        W 1870  22.025   5.711   0.047
97803W        W 1871  22.760   6.122   3.173
97804W        W 1872  22.281   5.289   2.804
97805W        W 1873  23.272   5.394   2.598
97806W        W 1874  22.270   6.152   3.513
97807W        W 1875  22.665   4.453   3.119
97808W        W 1876  22.925   4.132   2.781
97809W        W 1877  22.897   6.380   0.732
97810W        W 1878  22.420   4.504   2.720
97811W        W 1879  22.033   6.502   3.141
97812W        W 1880  22.776   4.494   2.379
97813W        W 1881  22.746   3.842   1.489
97814W        W 1882  22.490   6.555   3.303
97815W        W 1883  22.976   4.257   1.545
97816W        W 1884  22.745   5.750   1.635
97817W        W 1885  23.058   7.161   2.385
97818W        W 1886  22.133   5.243   0.265
97819W        W 1887  23.243   3.744   2.984
97820W        W 1888  23.095   4.775   1.563
97821W        W 1889  23.101   4.644   2.862
97822W        W 1890  22.397   7.069   3.112
97823W        W 1891  22.509   6.430   0.242
97824W        W 1892  22.630   4.980   2.938
97825W        W 1893  23.148   5.967   0.890
97826W        W 1894  22.698   5.349   2.544
97827W        W 1895  22.363   4.021   2.954
97828W        W 1896  22.702   5.044   2.007
97829W        W 1897  23.071   4.858   0.129
97830W        W 1898  21.874   6.617   2.674
97831W        W 1899  23.282   4.351   0.222
97832W        W 1900  22.417   5.167   1.003
97833W        W 1901  22.188   7.019   2.440
97834W        W 1902  22.112   5.294   3.374
97835W        W 1903  22.461   5.295   1.682
97836W        W 1904  22.755   6.234   1.331
97837W        W 1905  21.960   6.961   1.440
97838W        W 1906  22.469   6.148   0.976
97839W        W 1907  22.384   3.765   3.529
97840W        W 1908  21.978   6.172   2.021
97841W        W 1909  23.231   4.134   0.662
97842W        W 1910  23.035   5.618   3.511
97843W        W 1911  22.388   6.614   2.782
97844W        W 1912  22.979   6.597   3.505
97845W        W 1913  22.830   4.394   0.519
97846W        W 1914  22.990   5.236   1.680
97847W        W 1915  22.645   6.934   2.545
97848W        W 1916  22.253   5.723   3.142
97849W        W 1917  22.684   5.634   1.072
97850W        W 1918  23.055   6.641   2.467
97851W        W 1919  22.044   6.044   0.438
97852W        W 1920  22.209   5.544   1.327
97853W        W 1921  22.623   7.246   2.080
97854W        W 1922  22.838   6.731   1.194
97855W        W 1923  23.037   3.841   1.888
97856W        W 1924  22.100   6.663   0.436
97857W        W 1925  22.791   6.822   3.033
97858W        W 1926  22.268   5.645   0.729
97859W        W 1927  22.153   4.188   1.728
97860W        W 1928  21.953   4.007   0.805
97861W        W 1929  23.084   6.859   0.694
97862W        W 1930  22.166   7.022   1.865
97863W        W 1931  22.346   4.310   3.499
97864W        W 1932  22.077   4.910   0.832
97865W        W 1933  22.768   4.899   0.557
97866W        W 1934  22.874   5.507   2.083
97867W        W 1935  23.010   4.970   2.533
97868W        W 1936  22.046   4.886   2.964
97869W        W 1937  22.163   6.121   1.347
97870W        W 1938  22.310   5.418   2.237
97871W        W 1939  23.059   6.952   1.948
97872W        W 1940  22.519   6.148   1.843
97873W        W 1941  22.484   6.702   2.109
97874W        W 1942  22.611   5.153   0.104
97875W        W 1943  21.950   7.239   7.003
97876W        W 1944  22.326   6.132   6.526
97877W        W 1945  23.079   6.938   3.849
97878W        W 1946  23.162   5.090   4.832
97879W        W 1947  22.677   4.938   4.996
97880W        W 1948  21.992   4.406   6.748
97881W        W 1949  22.754   3.686   6.550
97882W        W 1950  22.033   4.171   6.223
97883W        W 1951  22.132   6.790   7.244
97884W        W 1952  22.086   4.963   5.669
97885W        W 1953  22.979   4.854   6.906
97886W        W 1954  22.556   5.862   5.892
97887W        W 1955  21.915   5.390   5.463
97888W        W 1956  22.951   5.362   6.655
97889W        W 1957  22.838   6.589   5.354
97890W        W 1958  21.937   4.902   7.214
97891W        W 1959  22.350   4.019   4.811
97892W        W 1960  22.877   6.277   5.810
97893W        W 1961  22.373   7.173   4.013
97894W        W 1962  22.766   7.219   4.689
97895W        W 1963  22.563   3.973   6.115
97896W        W 1964  22.601   6.805   4.330
97897W        W 1965  21.972   4.304   4.929
97898W        W 1966  22.216   6.528   5.318
97899W        W 1967  21.972   6.662   5.816
97900W        W 1968  22.763   6.234   6.296
97901W        W 1969  23.136   5.594   4.915
97902W        W 1970  23.158   3.999   6.008
97903W        W 1971  22.606   5.633   3.773
97904W        W 1972  22.261   4.666   3.952
97905W        W 1973  22.323   6.622   4.746
97906W        W 1974  21.878   5.356   4.586
97907W        W 1975  22.989   5.771   6.159
97908W        W 1976  22.413   4.945   6.115
97909W        W 1977  22.398   4.821   7.037
97910W        W 1978  22.288   3.738   5.196
97911W        W 1979  22.591   7.009   5.269
97912W        W 1980  23.249   4.726   4.255
97913W        W 1981  22.818   4.010   6.919
97914W        W 1982  22.906   3.729   4.251
97915W        W 1983  22.284   5.715   5.433
97916W        W 1984  22.598   4.553   5.502
97917W        W 1985  22.152   5.753   6.276
97918W        W 1986  22.205   4.430   5.787
97919W        W 1987  21.943   4.709   6.116
97920W        W 1988  22.470   4.125   4.000
97921W        W 1989  22.602   6.899   3.658
97922W        W 1990  22.808   4.142   4.664
97923W        W 1991  22.813   4.370   3.689
97924W        W 1992  21.882   5.688   5.838
97925W        W 1993  22.854   3.821   3.766
97926W        W 1994  23.150   5.890   6.625
97927W        W 1995  23.077   4.458   5.633
97928W        W 1996  22.503   4.414   5.031
97929W        W 1997  22.289   7.126   4.707
97930W        W 1998  22.656   5.941   4.191
97931W        W 1999  21.936   7.061   6.504
97932W        W 2000  22.353   6.287   6.036
97933W        W 2001  21.920   7.133   4.268
97934W        W 2002  23.182   6.426   3.923
97935W        W 2003  22.905   4.652   4.640
97936W        W 2004  22.004   3.881   3.935
97937W        W 2005  23.290   6.200   6.225
97938W        W 2006  23.089   6.116   5.317
97939W        W 2007  22.831   6.068   3.715
97940W        W 2008  22.072   6.309   4.483
97941W        W 2009  22.576   5.379   6.925
97942W        W 2010  23.280   3.939   7.111
97943W        W 2011  23.184   3.849   4.748
97944W        W 2012  22.188   3.858   5.830
97945W        W 2013  22.236   4.821   5.200
97946W        W 2014  22.347   4.427   4.420
97947W        W 2015  22.606   4.076   5.540
97948W        W 2016  21.868   4.338   3.958
97949W        W 2017  22.654   5.727   6.519
97950W        W 2018  22.025   5.711   3.691
97951W        W 2019  22.760   6.122   6.817
97952W        W 2020  22.281   5.289   6.448
97953W        W 2021  23.272   5.394   6.242
97954W        W 2022  22.270   6.152   7.157
97955W        W 2023  22.665   4.453   6.763
97956W        W 2024  22.925   4.132   6.425
97957W        W 2025  22.897   6.380   4.376
97958W        W 2026  22.420   4.504   6.364
97959W        W 2027  22.033   6.502   6.785
97960W        W 2028  22.776   4.494   6.023
97961W        W 2029  22.746   3.842   5.133
97962W        W 2030  22.490   6.555   6.947
97963W        W 2031  22.976   4.257   5.189
97964W        W 2032  22.745   5.750   5.279
97965W        W 2033  23.058   7.161   6.029
97966W        W 2034  22.133   5.243   3.909
97967W        W 2035  23.243   3.744   6.628
97968W        W 2036  23.095   4.775   5.207
97969W        W 2037  23.101   4.644   6.506
97970W        W 2038  22.397   7.069   6.756
97971W        W 2039  22.509   6.430   3.886
97972W        W 2040  22.630   4.980   6.582
97973W        W 2041  23.148   5.967   4.534
97974W        W 2042  22.698   5.349   6.188
97975W        W 2043  22.363   4.021   6.598
97976W        W 2044  22.702   5.044   5.651
97977W        W 2045  21.874   6.617   6.318
97978W        W 2046  23.282   4.351   3.866
97979W        W 2047  22.417   5.167   4.647
97980W        W 2048  22.188   7.019   6.084
97981W        W 2049  22.112   5.294   7.018
97982W        W 2050  22.461   5.295   5.326
97983W        W 2051  22.755   6.234   4.975
97984W        W 2052  21.960   6.961   5.084
97985W        W 2053  22.469   6.148   4.620
97986W        W 2054  22.384   3.765   7.173
97987W        W 2055  21.978   6.172   5.665
97988W        W 2056  23.231   4.134   4.306
97989W        W 2057  23.035   5.618   7.155
97990W        W 2058  22.388   6.614   6.426
97991W        W 2059  22.979   6.597   7.149
97992W        W 2060  22.830   4.394   4.163
97993W        W 2061  22.990   5.236   5.324
97994W        W 2062  22.645   6.934   6.189
97995W        W 2063  22.253   5.723   6.786
97996W        W 2064  22.684   5.634   4.716
97997W        W 2065  23.055   6.641   6.111
97998W        W 2066  22.044   6.044   4.082
97999W        W 2067  22.209   5.544   4.971
98000W        W 2068  22.623   7.246   5.724
98001W        W 2069  22.838   6.731   4.838
98002W        W 2070  23.037   3.841   5.532
98003W        W 2071  22.100   6.663   4.080
98004W        W 2072  22.791   6.822   6.677
98005W        W 2073  22.268   5.645   4.373
98006W        W 2074  22.153   4.188   5.372
98007W        W 2075  21.953   4.007   4.449
98008W        W 2076  23.084   6.859   4.338
98009W        W 2077  22.166   7.022   5.509
98010W        W 2078  22.346   4.310   7.143
98011W        W 2079  22.077   4.910   4.476
98012W        W 2080  22.768   4.899   4.201
98013W        W 2081  22.874   5.507   5.727
98014W        W 2082  23.010   4.970   6.177
98015W        W 2083  22.046   4.886   6.608
98016W        W 2084  22.163   6.121   4.991
98017W        W 2085  22.310   5.418   5.881
98018W        W 2086  23.059   6.952   5.592
98019W        W 2087  22.519   6.148   5.487
98020W        W 2088  22.484   6.702   5.753
98021W        W 2089  22.611   5.153   3.748
98022W        W 2090  21.950   7.239  10.648
98023W        W 2091  22.326   6.132  10.171
98024W        W 2092  23.079   6.938   7.494
98025W        W 2093  23.162   5.090   8.477
98026W        W 2094  22.677   4.938   8.641
98027W        W 2095  21.992   4.406  10.393
98028W        W 2096  22.754   3.686  10.195
98029W        W 2097  22.033   4.171   9.868
98030W        W 2098  22.132   6.790  10.889
98031W        W 2099  22.086   4.963   9.314
98032W        W 2100  22.979   4.854  10.551
98033W        W 2101  22.556   5.862   9.537
98034W        W 2102  21.915   5.390   9.108
98035W        W 2103  22.951   5.362  10.300
98036W        W 2104  22.838   6.589   8.999
98037W        W 2105  21.937   4.902  10.859
98038W        W 2106  22.350   4.019   8.456
98039W        W 2107  22.877   6.277   9.455
98040W        W 2108  22.373   7.173   7.658
98041W        W 2109  22.766   7.219   8.334
98042W        W 2110  22.563   3.973   9.760
98043W        W 2111  22.601   6.805   7.975
98044W        W 2112  21.972   4.304   8.574
98045W        W 2113  22.216   6.528   8.963
98046W        W 2114  21.972   6.662   9.461
98047W        W 2115  22.763   6.234   9.941
98048W        W 2116  23.136   5.594   8.560
98049W        W 2117  23.158   3.999   9.653
98050W        W 2118  22.606   5.633   7.418
98051W        W 2119  22.261   4.666   7.597
98052W        W 2120  22.323   6.622   8.391
98053W        W 2121  21.878   5.356   8.231
98054W        W 2122  22.989   5.771   9.804
98055W        W 2123  22.413   4.945   9.760
98056W        W 2124  22.398   4.821  10.682
98057W        W 2125  22.288   3.738   8.841
98058W        W 2126  22.591   7.009   8.914
98059W        W 2127  23.249   4.726   7.900
98060W        W 2128  22.818   4.010  10.564
98061W        W 2129  22.906   3.729   7.896
98062W        W 2130  22.284   5.715   9.078
98063W        W 2131  22.598   4.553   9.147
98064W        W 2132  22.152   5.753   9.921
98065W        W 2133  22.205   4.430   9.432
98066W        W 2134  21.943   4.709   9.761
98067W        W 2135  22.470   4.125   7.645
98068W        W 2136  22.602   6.899   7.303
98069W        W 2137  22.808   4.142   8.309
98070W        W 2138  22.813   4.370   7.334
98071W        W 2139  21.882   5.688   9.483
98072W        W 2140  22.854   3.821   7.411
98073W        W 2141  23.150   5.890  10.270
98074W        W 2142  23.077   4.458   9.278
98075W        W 2143  22.503   4.414   8.676
98076W        W 2144  22.289   7.126   8.352
98077W        W 2145  22.656   5.941   7.836
98078W        W 2146  21.936   7.061  10.149
98079W        W 2147  22.353   6.287   9.681
98080W        W 2148  21.920   7.133   7.913
98081W        W 2149  23.182   6.426   7.568
98082W        W 2150  22.905   4.652   8.285
98083W        W 2151  22.004   3.881   7.580
98084W        W 2152  23.290   6.200   9.870
98085W        W 2153  23.089   6.116   8.962
98086W        W 2154  22.831   6.068   7.360
98087W        W 2155  22.072   6.309   8.128
98088W        W 2156  22.576   5.379  10.570
98089W        W 2157  23.280   3.939  10.756
98090W        W 2158  23.184   3.849   8.393
98091W        W 2159  22.188   3.858   9.475
98092W        W 2160  22.236   4.821   8.845
98093W        W 2161  22.347   4.427   8.065
98094W        W 2162  22.606   4.076   9.185
98095W        W 2163  21.868   4.338   7.603
98096W        W 2164  22.654   5.727  10.164
98097W        W 2165  22.025   5.711   7.336
98098W        W 2166  22.760   6.122  10.462
98099W        W 2167  22.281   5.289  10.093
98100W        W 2168  23.272   5.394   9.887
98101W        W 2169  22.270   6.152  10.802
98102W        W 2170  22.665   4.453  10.408
98103W        W 2171  22.925   4.132  10.070
98104W        W 2172  22.897   6.380   8.021
98105W        W 2173  22.420   4.504  10.009
98106W        W 2174  22.033   6.502  10.430
98107W        W 2175  22.776   4.494   9.668
98108W        W 2176  22.746   3.842   8.778
98109W        W 2177  22.490   6.555  10.592
98110W        W 2178  22.976   4.257   8.834
98111W        W 2179  22.745   5.750   8.924
98112W        W 2180  23.058   7.161   9.674
98113W        W 2181  22.133   5.243   7.554
98114W        W 2182  23.243   3.744  10.273
98115W        W 2183  23.095   4.775   8.852
98116W        W 2184  23.101   4.644  10.151
98117W        W 2185  22.397   7.069  10.401
98118W        W 2186  22.509   6.430   7.531
98119W        W 2187  22.630   4.980  10.227
98120W        W 2188  23.148   5.967   8.179
98121W        W 2189  22.698   5.349   9.833
98122W        W 2190  22.363   4.021  10.243
98123W        W 2191  22.702   5.044   9.296
98124W        W 2192  21.874   6.617   9.963
98125W        W 2193  23.282   4.351   7.511
98126W        W 2194  22.417   5.167   8.292
98127W        W 2195  22.188   7.019   9.729
98128W        W 2196  22.112   5.294  10.663
98129W        W 2197  22.461   5.295   8.971
98130W        W 2198  22.755   6.234   8.620
98131W        W 2199  21.960   6.961   8.729
98132W        W 2200  22.469   6.148   8.265
98133W        W 2201  22.384   3.765  10.818
98134W        W 2202  21.978   6.172   9.310
98135W        W 2203  23.231   4.134   7.951
98136W        W 2204  23.035   5.618  10.800
98137W        W 2205  22.388   6.614  10.071
98138W        W 2206  22.979   6.597  10.794
98139W        W 2207  22.830   4.394   7.808
98140W        W 2208  22.990   5.236   8.969
98141W        W 2209  22.645   6.934   9.834
98142W        W 2210  22.253   5.723  10.431
98143W        W 2211  22.684   5.634   8.361
98144W        W 2212  23.055   6.641   9.756
98145W        W 2213  22.044   6.044   7.727
98146W        W 2214  22.209   5.544   8.616
98147W        W 2215  22.623   7.246   9.369
98148W        W 2216  22.838   6.731   8.483
98149W        W 2217  23.037   3.841   9.177
98150W        W 2218  22.100   6.663   7.725
98151W        W 2219  22.791   6.822  10.322
98152W        W 2220  22.268   5.645   8.018
98153W        W 2221  22.153   4.188   9.017
98154W        W 2222  21.953   4.007   8.094
98155W        W 2223  23.084   6.859   7.983
98156W        W 2224  22.166   7.022   9.154
98157W        W 2225  22.346   4.310  10.788
98158W        W 2226  22.077   4.910   8.121
98159W        W 2227  22.768   4.899   7.846
98160W        W 2228  22.874   5.507   9.372
98161W        W 2229  23.010   4.970   9.822
98162W        W 2230  22.046   4.886  10.253
98163W        W 2231  22.163   6.121   8.636
98164W        W 2232  22.310   5.418   9.526
98165W        W 2233  23.059   6.952   9.237
98166W        W 2234  22.519   6.148   9.132
98167W        W 2235  22.484   6.702   9.398
98168W        W 2236  22.611   5.153   7.393
98169W        W 2237  21.950   7.239  14.292
98170W        W 2238  22.326   6.132  13.815
98171W        W 2239  23.079   6.938  11.138
98172W        W 2240  23.162   5.090  12.121
98173W        W 2241  22.677   4.938  12.285
98174W        W 2242  21.992   4.406  14.037
98175W        W 2243  22.754   3.686  13.839
98176W        W 2244  22.033   4.171  13.512
98177W        W 2245  22.132   6.790  14.533
98178W        W 2246  22.086   4.963  12.958
98179W        W 2247  22.979   4.854  14.195
98180W        W 2248  22.556   5.862  13.181
98181W        W 2249  21.915   5.390  12.752
98182W        W 2250  22.951   5.362  13.944
98183W        W 2251  22.838   6.589  12.643
98184W        W 2252  21.937   4.902  14.503
98185W        W 2253  22.350   4.019  12.100
98186W        W 2254  22.877   6.277  13.099
98187W        W 2255  22.373   7.173  11.302
98188W        W 2256  22.766   7.219  11.978
98189W        W 2257  22.563   3.973  13.404
98190W        W 2258  22.601   6.805  11.619
98191W        W 2259  21.972   4.304  12.218
98192W        W 2260  22.216   6.528  12.607
98193W        W 2261  21.972   6.662  13.105
98194W        W 2262  22.763   6.234  13.585
98195W        W 2263  23.136   5.594  12.204
98196W        W 2264  23.158   3.999  13.297
98197W        W 2265  22.606   5.633  11.062
98198W        W 2266  22.261   4.666  11.241
98199W        W 2267  22.323   6.622  12.035
98200W        W 2268  21.878   5.356  11.875
98201W        W 2269  22.989   5.771  13.448
98202W        W 2270  22.413   4.945  13.404
98203W        W 2271  22.398   4.821  14.326
98204W        W 2272  22.288   3.738  12.485
98205W        W 2273  22.591   7.009  12.558
98206W        W 2274  23.249   4.726  11.544
98207W        W 2275  22.818   4.010  14.208
98208W        W 2276  22.906   3.729  11.540
98209W        W 2277  22.284   5.715  12.722
98210W        W 2278  22.598   4.553  12.791
98211W        W 2279  22.152   5.753  13.565
98212W        W 2280  22.205   4.430  13.076
98213W        W 2281  21.943   4.709  13.405
98214W        W 2282  22.470   4.125  11.289
98215W        W 2283  22.602   6.899  10.947
98216W        W 2284  22.808   4.142  11.953
98217W        W 2285  22.813   4.370  10.978
98218W        W 2286  21.882   5.688  13.127
98219W        W 2287  22.854   3.821  11.055
98220W        W 2288  23.150   5.890  13.914
98221W        W 2289  23.077   4.458  12.922
98222W        W 2290  22.503   4.414  12.320
98223W        W 2291  22.289   7.126  11.996
98224W        W 2292  22.656   5.941  11.480
98225W        W 2293  21.936   7.061  13.793
98226W        W 2294  22.353   6.287  13.325
98227W        W 2295  21.920   7.133  11.557
98228W        W 2296  23.182   6.426  11.212
98229W        W 2297  22.905   4.652  11.929
98230W        W 2298  22.004   3.881  11.224
98231W        W 2299  23.290   6.200  13.514
98232W        W 2300  23.089   6.116  12.606
98233W        W 2301  22.831   6.068  11.004
98234W        W 2302  22.072   6.309  11.772
98235W        W 2303  22.576   5.379  14.214
98236W        W 2304  23.280   3.939  14.400
98237W        W 2305  23.184   3.849  12.037
98238W        W 2306  22.188   3.858  13.119
98239W        W 2307  22.236   4.821  12.489
98240W        W 2308  22.347   4.427  11.709
98241W        W 2309  22.606   4.076  12.829
98242W        W 2310  21.868   4.338  11.247
98243W        W 2311  22.654   5.727  13.808
98244W        W 2312  22.025   5.711  10.980
98245W        W 2313  22.760   6.122  14.106
98246W        W 2314  22.281   5.289  13.737
98247W        W 2315  23.272   5.394  13.531
98248W        W 2316  22.270   6.152  14.446
98249W        W 2317  22.665   4.453  14.052
98250W        W 2318  22.925   4.132  13.714
98251W        W 2319  22.897   6.380  11.665
98252W        W 2320  22.420   4.504  13.653
98253W        W 2321  22.033   6.502  14.074
98254W        W 2322  22.776   4.494  13.312
98255W        W 2323  22.746   3.842  12.422
98256W        W 2324  22.490   6.555  14.236
98257W        W 2325  22.976   4.257  12.478
98258W        W 2326  22.745   5.750  12.568
98259W        W 2327  23.058   7.161  13.318
98260W        W 2328  22.133   5.243  11.198
98261W        W 2329  23.243   3.744  13.917
98262W        W 2330  23.095   4.775  12.496
98263W        W 2331  23.101   4.644  13.795
98264W        W 2332  22.397   7.069  14.045
98265W        W 2333  22.509   6.430  11.175
98266W        W 2334  22.630   4.980  13.871
98267W        W 2335  23.148   5.967  11.823
98268W        W 2336  22.698   5.349  13.477
98269W        W 2337  22.363   4.021  13.887
98270W        W 2338  22.702   5.044  12.940
98271W        W 2339  21.874   6.617  13.607
98272W        W 2340  23.282   4.351  11.155
98273W        W 2341  22.417   5.167  11.936
98274W        W 2342  22.188   7.019  13.373
98275W        W 2343  22.112   5.294  14.307
98276W        W 2344  22.461   5.295  12.615
98277W        W 2345  22.755   6.234  12.264
98278W        W 2346  21.960   6.961  12.373
98279W        W 2347  22.469   6.148  11.909
98280W        W 2348  22.384   3.765  14.462
98281W        W 2349  21.978   6.172  12.954
98282W        W 2350  23.231   4.134  11.595
98283W        W 2351  23.035   5.618  14.444
98284W        W 2352  22.388   6.614  13.715
98285W        W 2353  22.979   6.597  14.438
98286W        W 2354  22.830   4.394  11.452
98287W        W 2355  22.990   5.236  12.613
98288W        W 2356  22.645   6.934  13.478
98289W        W 2357  22.253   5.723  14.075
98290W        W 2358  22.684   5.634  12.005
98291W        W 2359  23.055   6.641  13.400
98292W        W 2360  22.044   6.044  11.371
98293W        W 2361  22.209   5.544  12.260
98294W        W 2362  22.623   7.246  13.013
98295W        W 2363  22.838   6.731  12.127
98296W        W 2364  23.037   3.841  12.821
98297W        W 2365  22.100   6.663  11.369
98298W        W 2366  22.791   6.822  13.966
98299W        W 2367  22.268   5.645  11.662
98300W        W 2368  22.153   4.188  12.661
98301W        W 2369  21.953   4.007  11.738
98302W        W 2370  23.084   6.859  11.627
98303W        W 2371  22.166   7.022  12.798
98304W        W 2372  22.346   4.310  14.432
98305W        W 2373  22.077   4.910  11.765
98306W        W 2374  22.768   4.899  11.490
98307W        W 2375  22.874   5.507  13.016
98308W        W 2376  23.010   4.970  13.466
98309W        W 2377  22.046   4.886  13.897
98310W        W 2378  22.163   6.121  12.280
98311W        W 2379  22.310   5.418  13.170
98312W        W 2380  23.059   6.952  12.881
98313W        W 2381  22.519   6.148  12.776
98314W        W 2382  22.484   6.702  13.042
98315W        W 2383  22.611   5.153  11.037
98316W        W 2384  21.950   7.239  17.936
98317W        W 2385  22.326   6.132  17.459
98318W        W 2386  23.079   6.938  14.782
98319W        W 2387  23.162   5.090  15.765
98320W        W 2388  22.677   4.938  15.929
98321W        W 2389  21.992   4.406  17.681
98322W        W 2390  22.754   3.686  17.483
98323W        W 2391  22.033   4.171  17.156
98324W        W 2392  22.132   6.790  18.177
98325W        W 2393  22.086   4.963  16.602
98326W        W 2394  22.979   4.854  17.839
98327W        W 2395  22.556   5.862  16.825
98328W        W 2396  21.915   5.390  16.396
98329W        W 2397  22.951   5.362  17.588
98330W        W 2398  22.838   6.589  16.287
98331W        W 2399  21.937   4.902  18.147
98332W        W 2400  22.350   4.019  15.744
98333W        W 2401  22.877   6.277  16.743
98334W        W 2402  22.373   7.173  14.946
98335W        W 2403  22.766   7.219  15.622
98336W        W 2404  22.563   3.973  17.048
98337W        W 2405  22.601   6.805  15.263
98338W        W 2406  21.972   4.304  15.862
98339W        W 2407  22.216   6.528  16.251
98340W        W 2408  21.972   6.662  16.749
98341W        W 2409  22.763   6.234  17.229
98342W        W 2410  23.136   5.594  15.848
98343W        W 2411  23.158   3.999  16.941
98344W        W 2412  22.606   5.633  14.706
98345W        W 2413  22.261   4.666  14.885
98346W        W 2414  22.323   6.622  15.679
98347W        W 2415  21.878   5.356  15.519
98348W        W 2416  22.989   5.771  17.092
98349W        W 2417  22.413   4.945  17.048
98350W        W 2418  22.398   4.821  17.970
98351W        W 2419  22.288   3.738  16.129
98352W        W 2420  22.591   7.009  16.202
98353W        W 2421  23.249   4.726  15.188
98354W        W 2422  22.818   4.010  17.852
98355W        W 2423  22.906   3.729  15.184
98356W        W 2424  22.284   5.715  16.366
98357W        W 2425  22.598   4.553  16.435
98358W        W 2426  22.152   5.753  17.209
98359W        W 2427  22.205   4.430  16.720
98360W        W 2428  21.943   4.709  17.049
98361W        W 2429  22.470   4.125  14.933
98362W        W 2430  22.602   6.899  14.591
98363W        W 2431  22.808   4.142  15.597
98364W        W 2432  22.813   4.370  14.622
98365W        W 2433  21.882   5.688  16.771
98366W        W 2434  22.854   3.821  14.699
98367W        W 2435  23.150   5.890  17.558
98368W        W 2436  23.077   4.458  16.566
98369W        W 2437  22.503   4.414  15.964
98370W        W 2438  22.289   7.126  15.640
98371W        W 2439  22.656   5.941  15.124
98372W        W 2440  21.936   7.061  17.437
98373W        W 2441  22.353   6.287  16.969
98374W        W 2442  21.920   7.133  15.201
98375W        W 2443  23.182   6.426  14.856
98376W        W 2444  22.905   4.652  15.573
98377W        W 2445  22.004   3.881  14.868
98378W        W 2446  23.290   6.200  17.158
98379W        W 2447  23.089   6.116  16.250
98380W        W 2448  22.831   6.068  14.648
98381W        W 2449  22.072   6.309  15.416
98382W        W 2450  22.576   5.379  17.858
98383W        W 2451  23.280   3.939  18.044
98384W        W 2452  23.184   3.849  15.681
98385W        W 2453  22.188   3.858  16.763
98386W        W 2454  22.236   4.821  16.133
98387W        W 2455  22.347   4.427  15.353
98388W        W 2456  22.606   4.076  16.473
98389W        W 2457  21.868   4.338  14.891
98390W        W 2458  22.654   5.727  17.452
98391W        W 2459  22.025   5.711  14.624
98392W        W 2460  22.760   6.122  17.750
98393W        W 2461  22.281   5.289  17.381
98394W        W 2462  23.272   5.394  17.175
98395W        W 2463  22.270   6.152  18.090
98396W        W 2464  22.665   4.453  17.696
98397W        W 2465  22.925   4.132  17.358
98398W        W 2466  22.897   6.380  15.309
98399W        W 2467  22.420   4.504  17.297
98400W        W 2468  22.033   6.502  17.718
98401W        W 2469  22.776   4.494  16.956
98402W        W 2470  22.746   3.842  16.066
98403W        W 2471  22.490   6.555  17.880
98404W        W 2472  22.976   4.257  16.122
98405W        W 2473  22.745   5.750  16.212
98406W        W 2474  23.058   7.161  16.962
98407W        W 2475  22.133   5.243  14.842
98408W        W 2476  23.243   3.744  17.561
98409W        W 2477  23.095   4.775  16.140
98410W        W 2478  23.101   4.644  17.439
98411W        W 2479  22.397   7.069  17.689
98412W        W 2480  22.509   6.430  14.819
98413W        W 2481  22.630   4.980  17.515
98414W        W 2482  23.148   5.967  15.467
98415W        W 2483  22.698   5.349  17.121
98416W        W 2484  22.363   4.021  17.531
98417W        W 2485  22.702   5.044  16.584
98418W        W 2486  21.874   6.617  17.251
98419W        W 2487  23.282   4.351  14.799
98420W        W 2488  22.417   5.167  15.580
98421W        W 2489  22.188   7.019  17.017
98422W        W 2490  22.112   5.294  17.951
98423W        W 2491  22.461   5.295  16.259
98424W        W 2492  22.755   6.234  15.908
98425W        W 2493  21.960   6.961  16.017
98426W        W 2494  22.469   6.148  15.553
98427W        W 2495  22.384   3.765  18.106
98428W        W 2496  21.978   6.172  16.598
98429W        W 2497  23.231   4.134  15.239
98430W        W 2498  23.035   5.618  18.088
98431W        W 2499  22.388   6.614  17.359
98432W        W 2500  22.979   6.597  18.082
98433W        W 2501  22.830   4.394  15.096
98434W        W 2502  22.990   5.236  16.257
98435W        W 2503  22.645   6.934  17.122
98436W        W 2504  22.253   5.723  17.719
98437W        W 2505  22.684   5.634  15.649
98438W        W 2506  23.055   6.641  17.044
98439W        W 2507  22.044   6.044  15.015
98440W        W 2508  22.209   5.544  15.904
98441W        W 2509  22.623   7.246  16.657
98442W        W 2510  22.838   6.731  15.771
98443W        W 2511  23.037   3.841  16.465
98444W        W 2512  22.100   6.663  15.013
98445W        W 2513  22.791   6.822  17.610
98446W        W 2514  22.268   5.645  15.306
98447W        W 2515  22.153   4.188  16.305
98448W        W 2516  21.953   4.007  15.382
98449W        W 2517  23.084   6.859  15.271
98450W        W 2518  22.166   7.022  16.442
98451W        W 2519  22.346   4.310  18.076
98452W        W 2520  22.077   4.910  15.409
98453W        W 2521  22.768   4.899  15.134
98454W        W 2522  22.874   5.507  16.660
98455W        W 2523  23.010   4.970  17.110
98456W        W 2524  22.046   4.886  17.541
98457W        W 2525  22.163   6.121  15.924
98458W        W 2526  22.310   5.418  16.814
98459W        W 2527  23.059   6.952  16.525
98460W        W 2528  22.519   6.148  16.420
98461W        W 2529  22.484   6.702  16.686
98462W        W 2530  22.611   5.153  14.681
98463W        W 2531  21.950   7.239  21.580
98464W        W 2532  22.326   6.132  21.103
98465W        W 2533  23.079   6.938  18.426
98466W        W 2534  23.162   5.090  19.409
98467W        W 2535  22.677   4.938  19.573
98468W        W 2536  21.992   4.406  21.325
98469W        W 2537  22.754   3.686  21.127
98470W        W 2538  22.033   4.171  20.800
98471W        W 2539  22.132   6.790  21.821
98472W        W 2540  22.086   4.963  20.246
98473W        W 2541  22.979   4.854  21.483
98474W        W 2542  22.556   5.862  20.469
98475W        W 2543  21.915   5.390  20.040
98476W        W 2544  22.951   5.362  21.232
98477W        W 2545  22.838   6.589  19.931
98478W        W 2546  21.937   4.902  21.791
98479W        W 2547  22.350   4.019  19.388
98480W        W 2548  22.877   6.277  20.387
98481W        W 2549  22.373   7.173  18.590
98482W        W 2550  22.766   7.219  19.266
98483W        W 2551  22.563   3.973  20.692
98484W        W 2552  22.601   6.805  18.907
98485W        W 2553  21.972   4.304  19.506
98486W        W 2554  22.216   6.528  19.895
98487W        W 2555  21.972   6.662  20.393
98488W        W 2556  22.763   6.234  20.873
98489W        W 2557  23.136   5.594  19.492
98490W        W 2558  23.158   3.999  20.585
98491W        W 2559  22.606   5.633  18.350
98492W        W 2560  22.261   4.666  18.529
98493W        W 2561  22.323   6.622  19.323
98494W        W 2562  21.878   5.356  19.163
98495W        W 2563  22.989   5.771  20.736
98496W        W 2564  22.413   4.945  20.692
98497W        W 2565  22.398   4.821  21.614
98498W        W 2566  22.288   3.738  19.773
98499W        W 2567  22.591   7.009  19.846
98500W        W 2568  23.249   4.726  18.832
98501W        W 2569  22.818   4.010  21.496
98502W        W 2570  22.906   3.729  18.828
98503W        W 2571  22.284   5.715  20.010
98504W        W 2572  22.598   4.553  20.079
98505W        W 2573  22.152   5.753  20.853
98506W        W 2574  22.205   4.430  20.364
98507W        W 2575  21.943   4.709  20.693
98508W        W 2576  22.470   4.125  18.577
98509W        W 2577  22.602   6.899  18.235
98510W        W 2578  22.808   4.142  19.241
98511W        W 2579  22.813   4.370  18.266
98512W        W 2580  21.882   5.688  20.415
98513W        W 2581  22.854   3.821  18.343
98514W        W 2582  23.150   5.890  21.202
98515W        W 2583  23.077   4.458  20.210
98516W        W 2584  22.503   4.414  19.608
98517W        W 2585  22.289   7.126  19.284
98518W        W 2586  22.656   5.941  18.768
98519W        W 2587  21.936   7.061  21.081
98520W        W 2588  22.353   6.287  20.613
98521W        W 2589  21.920   7.133  18.845
98522W        W 2590  23.182   6.426  18.500
98523W        W 2591  22.905   4.652  19.217
98524W        W 2592  22.004   3.881  18.512
98525W        W 2593  23.290   6.200  20.802
98526W        W 2594  23.089   6.116  19.894
98527W        W 2595  22.831   6.068  18.292
98528W        W 2596  22.072   6.309  19.060
98529W        W 2597  22.576   5.379  21.502
98530W        W 2598  23.280   3.939  21.688
98531W        W 2599  23.184   3.849  19.325
98532W        W 2600  22.188   3.858  20.407
98533W        W 2601  22.236   4.821  19.777
98534W        W 2602  22.347   4.427  18.997
98535W        W 2603  22.606   4.076  20.117
98536W        W 2604  21.868   4.338  18.535
98537W        W 2605  22.654   5.727  21.096
98538W        W 2606  22.025   5.711  18.268
98539W        W 2607  22.760   6.122  21.394
98540W        W 2608  22.281   5.289  21.025
98541W        W 2609  23.272   5.394  20.819
98542W        W 2610  22.270   6.152  21.734
98543W        W 2611  22.665   4.453  21.340
98544W        W 2612  22.925   4.132  21.002
98545W        W 2613  22.897   6.380  18.953
98546W        W 2614  22.420   4.504  20.941
98547W        W 2615  22.033   6.502  21.362
98548W        W 2616  22.776   4.494  20.600
98549W        W 2617  22.746   3.842  19.710
98550W        W 2618  22.490   6.555  21.524
98551W        W 2619  22.976   4.257  19.766
98552W        W 2620  22.745   5.750  19.856
98553W        W 2621  23.058   7.161  20.606
98554W        W 2622  22.133   5.243  18.486
98555W        W 2623  23.243   3.744  21.205
98556W        W 2624  23.095   4.775  19.784
98557W        W 2625  23.101   4.644  21.083
98558W        W 2626  22.397   7.069  21.333
98559W        W 2627  22.509   6.430  18.463
98560W        W 2628  22.630   4.980  21.159
98561W        W 2629  23.148   5.967  19.111
98562W        W 2630  22.698   5.349  20.765
98563W        W 2631  22.363   4.021  21.175
98564W        W 2632  22.702   5.044  20.228
98565W        W 2633  21.874   6.617  20.895
98566W        W 2634  23.282   4.351  18.443
98567W        W 2635  22.417   5.167  19.224
98568W        W 2636  22.188   7.019  20.661
98569W        W 2637  22.112   5.294  21.595
98570W        W 2638  22.461   5.295  19.903
98571W        W 2639  22.755   6.234  19.552
98572W        W 2640  21.960   6.961  19.661
98573W        W 2641  22.469   6.148  19.197
98574W        W 2642  22.384   3.765  21.750
98575W        W 2643  21.978   6.172  20.242
98576W        W 2644  23.231   4.134  18.883
98577W        W 2645  23.035   5.618  21.732
98578W        W 2646  22.388   6.614  21.003
98579W        W 2647  22.979   6.597  21.726
98580W        W 2648  22.830   4.394  18.740
98581W        W 2649  22.990   5.236  19.901
98582W        W 2650  22.645   6.934  20.766
98583W        W 2651  22.253   5.723  21.363
98584W        W 2652  22.684   5.634  19.293
98585W        W 2653  23.055   6.641  20.688
98586W        W 2654  22.044   6.044  18.659
98587W        W 2655  22.209   5.544  19.548
98588W        W 2656  22.623   7.246  20.301
98589W        W 2657  22.838   6.731  19.415
98590W        W 2658  23.037   3.841  20.109
98591W        W 2659  22.100   6.663  18.657
98592W        W 2660  22.791   6.822  21.254
98593W        W 2661  22.268   5.645  18.950
98594W        W 2662  22.153   4.188  19.949
98595W        W 2663  21.953   4.007  19.026
98596W        W 2664  23.084   6.859  18.915
98597W        W 2665  22.166   7.022  20.086
98598W        W 2666  22.346   4.310  21.720
98599W        W 2667  22.077   4.910  19.053
98600W        W 2668  22.768   4.899  18.778
98601W        W 2669  22.874   5.507  20.304
98602W        W 2670  23.010   4.970  20.754
98603W        W 2671  22.046   4.886  21.185
98604W        W 2672  22.163   6.121  19.568
98605W        W 2673  22.310   5.418  20.458
98606W        W 2674  23.059   6.952  20.169
98607W        W 2675  22.519   6.148  20.064
98608W        W 2676  22.484   6.702  20.330
98609W        W 2677  22.611   5.153  18.325
98610W        W 2678  23.079   6.938  22.071
98611W        W 2679  23.162   5.090  23.054
98612W        W 2680  22.677   4.938  23.218
98613W        W 2681  22.350   4.019  23.033
98614W        W 2682  22.373   7.173  22.235
98615W        W 2683  22.766   7.219  22.911
98616W        W 2684  22.601   6.805  22.552
98617W        W 2685  22.606   5.633  21.995
98618W        W 2686  22.261   4.666  22.174
98619W        W 2687  22.323   6.622  22.968
98620W        W 2688  21.878   5.356  22.808
98621W        W 2689  23.249   4.726  22.477
98622W        W 2690  22.906   3.729  22.473
98623W        W 2691  22.470   4.125  22.222
98624W        W 2692  22.602   6.899  21.880
98625W        W 2693  22.808   4.142  22.886
98626W        W 2694  22.813   4.370  21.911
98627W        W 2695  22.854   3.821  21.988
98628W        W 2696  22.503   4.414  23.253
98629W        W 2697  22.289   7.126  22.929
98630W        W 2698  22.656   5.941  22.413
98631W        W 2699  21.920   7.133  22.490
98632W        W 2700  23.182   6.426  22.145
98633W        W 2701  22.905   4.652  22.862
98634W        W 2702  22.004   3.881  22.157
98635W        W 2703  22.831   6.068  21.937
98636W        W 2704  22.072   6.309  22.705
98637W        W 2705  23.184   3.849  22.970
98638W        W 2706  22.347   4.427  22.642
98639W        W 2707  21.868   4.338  22.180
98640W        W 2708  22.025   5.711  21.913
98641W        W 2709  22.897   6.380  22.598
98642W        W 2710  22.133   5.243  22.131
98643W        W 2711  22.509   6.430  22.108
98644W        W 2712  23.148   5.967  22.756
98645W        W 2713  23.282   4.351  22.088
98646W        W 2714  22.417   5.167  22.869
98647W        W 2715  22.755   6.234  23.197
98648W        W 2716  21.960   6.961  23.306
98649W        W 2717  22.469   6.148  22.842
98650W        W 2718  23.231   4.134  22.528
98651W        W 2719  22.830   4.394  22.385
98652W        W 2720  22.044   6.044  22.304
98653W        W 2721  22.209   5.544  23.193
98654W        W 2722  22.838   6.731  23.060
98655W        W 2723  22.100   6.663  22.302
98656W        W 2724  22.268   5.645  22.595
98657W        W 2725  21.953   4.007  22.671
98658W        W 2726  23.084   6.859  22.560
98659W        W 2727  22.077   4.910  22.698
98660W        W 2728  22.768   4.899  22.423
98661W        W 2729  22.163   6.121  23.213
98662W        W 2730  22.611   5.153  21.970
98663W        W 2731  21.950  10.884   3.359
98664W        W 2732  22.326   9.777   2.882
98665W        W 2733  23.162   8.735   1.188
98666W        W 2734  22.677   8.583   1.352
98667W        W 2735  21.992   8.051   3.104
98668W        W 2736  22.754   7.331   2.906
98669W        W 2737  22.033   7.816   2.579
98670W        W 2738  22.132  10.435   3.600
98671W        W 2739  22.086   8.608   2.025
98672W        W 2740  22.979   8.499   3.262
98673W        W 2741  22.556   9.507   2.248
98674W        W 2742  21.915   9.035   1.819
98675W        W 2743  22.951   9.007   3.011
98676W        W 2744  22.838  10.234   1.710
98677W        W 2745  21.937   8.547   3.570
98678W        W 2746  22.350   7.664   1.167
98679W        W 2747  22.877   9.922   2.166
98680W        W 2748  22.373  10.818   0.369
98681W        W 2749  22.766  10.864   1.045
98682W        W 2750  22.563   7.618   2.471
98683W        W 2751  22.601  10.450   0.686
98684W        W 2752  21.972   7.949   1.285
98685W        W 2753  22.216  10.173   1.674
98686W        W 2754  21.972  10.307   2.172
98687W        W 2755  22.763   9.879   2.652
98688W        W 2756  23.136   9.239   1.271
98689W        W 2757  23.158   7.644   2.364
98690W        W 2758  22.606   9.278   0.129
98691W        W 2759  22.261   8.311   0.308
98692W        W 2760  22.323  10.267   1.102
98693W        W 2761  21.878   9.001   0.942
98694W        W 2762  22.989   9.416   2.515
98695W        W 2763  22.413   8.590   2.471
98696W        W 2764  22.398   8.466   3.393
98697W        W 2765  22.288   7.383   1.552
98698W        W 2766  22.591  10.654   1.625
98699W        W 2767  23.249   8.371   0.611
98700W        W 2768  22.818   7.655   3.275
98701W        W 2769  22.906   7.374   0.607
98702W        W 2770  22.284   9.360   1.789
98703W        W 2771  22.598   8.198   1.858
98704W        W 2772  22.152   9.398   2.632
98705W        W 2773  22.205   8.075   2.143
98706W        W 2774  21.943   8.354   2.472
98707W        W 2775  22.470   7.770   0.356
98708W        W 2776  22.602  10.544   0.014
98709W        W 2777  22.808   7.787   1.020
98710W        W 2778  22.813   8.015   0.045
98711W        W 2779  21.882   9.333   2.194
98712W        W 2780  22.854   7.466   0.122
98713W        W 2781  23.150   9.535   2.981
98714W        W 2782  23.077   8.103   1.989
98715W        W 2783  22.503   8.059   1.387
98716W        W 2784  22.289  10.771   1.063
98717W        W 2785  22.656   9.586   0.547
98718W        W 2786  21.936  10.706   2.860
98719W        W 2787  22.353   9.932   2.392
98720W        W 2788  21.920  10.778   0.624
98721W        W 2789  23.182  10.071   0.279
98722W        W 2790  22.905   8.297   0.996
98723W        W 2791  22.004   7.526   0.291
98724W        W 2792  23.290   9.845   2.581
98725W        W 2793  23.089   9.761   1.673
98726W        W 2794  22.831   9.713   0.071
98727W        W 2795  22.072   9.954   0.839
98728W        W 2796  22.576   9.024   3.281
98729W        W 2797  23.280   7.584   3.467
98730W        W 2798  23.184   7.494   1.104
98731W        W 2799  22.188   7.503   2.186
98732W        W 2800  22.236   8.466   1.556
98733W        W 2801  22.347   8.072   0.776
98734W        W 2802  22.606   7.721   1.896
98735W        W 2803  21.868   7.983   0.314
98736W        W 2804  22.654   9.372   2.875
98737W        W 2805  22.025   9.356   0.047
98738W        W 2806  22.760   9.767   3.173
98739W        W 2807  22.281   8.934   2.804
98740W        W 2808  23.272   9.039   2.598
98741W        W 2809  22.270   9.797   3.513
98742W        W 2810  22.665   8.098   3.119
98743W        W 2811  22.925   7.777   2.781
98744W        W 2812  22.897  10.025   0.732
98745W        W 2813  22.420   8.149   2.720
98746W        W 2814  22.033  10.147   3.141
98747W        W 2815  22.776   8.139   2.379
98748W        W 2816  22.746   7.487   1.489
98749W        W 2817  22.490  10.200   3.303
98750W        W 2818  22.976   7.902   1.545
98751W        W 2819  22.745   9.395   1.635
98752W        W 2820  23.058  10.806   2.385
98753W        W 2821  22.133   8.888   0.265
98754W        W 2822  23.243   7.389   2.984
98755W        W 2823  23.095   8.420   1.563
98756W        W 2824  23.101   8.289   2.862
98757W        W 2825  22.397  10.714   3.112
98758W        W 2826  22.509  10.075   0.242
98759W        W 2827  22.630   8.625   2.938
98760W        W 2828  23.148   9.612   0.890
98761W        W 2829  22.698   8.994   2.544
98762W        W 2830  22.363   7.666   2.954
98763W        W 2831  22.702   8.689   2.007
98764W        W 2832  23.071   8.503   0.129
98765W        W 2833  21.874  10.262   2.674
98766W        W 2834  23.282   7.996   0.222
98767W        W 2835  22.417   8.812   1.003
98768W        W 2836  22.188  10.664   2.440
98769W        W 2837  22.112   8.939   3.374
98770W        W 2838  22.461   8.940   1.682
98771W        W 2839  22.755   9.879   1.331
98772W        W 2840  21.960  10.606   1.440
98773W        W 2841  22.469   9.793   0.976
98774W        W 2842  22.384   7.410   3.529
98775W        W 2843  21.978   9.817   2.021
98776W        W 2844  23.231   7.779   0.662
98777W        W 2845  23.035   9.263   3.511
98778W        W 2846  22.388  10.259   2.782
98779W        W 2847  22.979  10.242   3.505
98780W        W 2848  22.830   8.039   0.519
98781W        W 2849  22.990   8.881   1.680
98782W        W 2850  22.645  10.579   2.545
98783W        W 2851  22.253   9.368   3.142
98784W        W 2852  22.684   9.279   1.072
98785W        W 2853  23.055  10.286   2.467
98786W        W 2854  22.044   9.689   0.438
98787W        W 2855  22.209   9.189   1.327
98788W        W 2856  22.623  10.891   2.080
98789W        W 2857  22.838  10.376   1.194
98790W        W 2858  23.037   7.486   1.888
98791W        W 2859  22.100  10.308   0.436
98792W        W 2860  22.791  10.467   3.033
98793W        W 2861  22.268   9.290   0.729
98794W        W 2862  22.153   7.833   1.728
98795W        W 2863  21.953   7.652   0.805
98796W        W 2864  23.084  10.504   0.694
98797W        W 2865  22.166  10.667   1.865
98798W        W 2866  22.346   7.955   3.499
98799W        W 2867  22.077   8.555   0.832
98800W        W 2868  22.768   8.544   0.557
98801W        W 2869  22.874   9.152   2.083
98802W        W 2870  23.010   8.615   2.533
98803W        W 2871  22.046   8.531   2.964
98804W        W 2872  22.163   9.766   1.347
98805W        W 2873  22.310   9.063   2.237
98806W        W 2874  23.059  10.597   1.948
98807W        W 2875  22.519   9.793   1.843
98808W        W 2876  22.484  10.347   2.109
98809W        W 2877  22.611   8.798   0.104
98810W        W 2878  21.950  10.884   7.003
98811W        W 2879  22.326   9.777   6.526
98812W        W 2880  23.079  10.583   3.849
98813W        W 2881  23.162   8.735   4.832
98814W        W 2882  22.677   8.583   4.996
98815W        W 2883  21.992   8.051   6.748
98816W        W 2884  22.754   7.331   6.550
98817W        W 2885  22.033   7.816   6.223
98818W        W 2886  22.132  10.435   7.244
98819W        W 2887  22.086   8.608   5.669
98820W        W 2888  22.979   8.499   6.906
98821W        W 2889  22.556   9.507   5.892
98822W        W 2890  21.915   9.035   5.463
98823W        W 2891  22.951   9.007   6.655
98824W        W 2892  22.838  10.234   5.354
98825W        W 2893  21.937   8.547   7.214
98826W        W 2894  22.350   7.664   4.811
98827W        W 2895  22.877   9.922   5.810
98828W        W 2896  22.373  10.818   4.013
98829W        W 2897  22.766  10.864   4.689
98830W        W 2898  22.563   7.618   6.115
98831W        W 2899  22.601  10.450   4.330
98832W        W 2900  21.972   7.949   4.929
98833W        W 2901  22.216  10.173   5.318
98834W        W 2902  21.972  10.307   5.816
98835W        W 2903  22.763   9.879   6.296
98836W        W 2904  23.136   9.239   4.915
98837W        W 2905  23.158   7.644   6.008
98838W        W 2906  22.606   9.278   3.773
98839W        W 2907  22.261   8.311   3.952
98840W        W 2908  22.323  10.267   4.746
98841W        W 2909  21.878   9.001   4.586
98842W        W 2910  22.989   9.416   6.159
98843W        W 2911  22.413   8.590   6.115
98844W        W 2912  22.398   8.466   7.037
98845W        W 2913  22.288   7.383   5.196
98846W        W 2914  22.591  10.654   5.269
98847W        W 2915  23.249   8.371   4.255
98848W        W 2916  22.818   7.655   6.919
98849W        W 2917  22.906   7.374   4.251
98850W        W 2918  22.284   9.360   5.433
98851W        W 2919  22.598   8.198   5.502
98852W        W 2920  22.152   9.398   6.276
98853W        W 2921  22.205   8.075   5.787
98854W        W 2922  21.943   8.354   6.116
98855W        W 2923  22.470   7.770   4.000
98856W        W 2924  22.602  10.544   3.658
98857W        W 2925  22.808   7.787   4.664
98858W        W 2926  22.813   8.015   3.689
98859W        W 2927  21.882   9.333   5.838
98860W        W 2928  22.854   7.466   3.766
98861W        W 2929  23.150   9.535   6.625
98862W        W 2930  23.077   8.103   5.633
98863W        W 2931  22.503   8.059   5.031
98864W        W 2932  22.289  10.771   4.707
98865W        W 2933  22.656   9.586   4.191
98866W        W 2934  21.936  10.706   6.504
98867W        W 2935  22.353   9.932   6.036
98868W        W 2936  21.920  10.778   4.268
98869W        W 2937  23.182  10.071   3.923
98870W        W 2938  22.905   8.297   4.640
98871W        W 2939  22.004   7.526   3.935
98872W        W 2940  23.290   9.845   6.225
98873W        W 2941  23.089   9.761   5.317
98874W        W 2942  22.831   9.713   3.715
98875W        W 2943  22.072   9.954   4.483
98876W        W 2944  22.576   9.024   6.925
98877W        W 2945  23.280   7.584   7.111
98878W        W 2946  23.184   7.494   4.748
98879W        W 2947  22.188   7.503   5.830
98880W        W 2948  22.236   8.466   5.200
98881W        W 2949  22.347   8.072   4.420
98882W        W 2950  22.606   7.721   5.540
98883W        W 2951  21.868   7.983   3.958
98884W        W 2952  22.654   9.372   6.519
98885W        W 2953  22.025   9.356   3.691
98886W        W 2954  22.760   9.767   6.817
98887W        W 2955  22.281   8.934   6.448
98888W        W 2956  23.272   9.039   6.242
98889W        W 2957  22.270   9.797   7.157
98890W        W 2958  22.665   8.098   6.763
98891W        W 2959  22.925   7.777   6.425
98892W        W 2960  22.897  10.025   4.376
98893W        W 2961  22.420   8.149   6.364
98894W        W 2962  22.033  10.147   6.785
98895W        W 2963  22.776   8.139   6.023
98896W        W 2964  22.746   7.487   5.133
98897W        W 2965  22.490  10.200   6.947
98898W        W 2966  22.976   7.902   5.189
98899W        W 2967  22.745   9.395   5.279
98900W        W 2968  23.058  10.806   6.029
98901W        W 2969  22.133   8.888   3.909
98902W        W 2970  23.243   7.389   6.628
98903W        W 2971  23.095   8.420   5.207
98904W        W 2972  23.101   8.289   6.506
98905W        W 2973  22.397  10.714   6.756
98906W        W 2974  22.509  10.075   3.886
98907W        W 2975  22.630   8.625   6.582
98908W        W 2976  23.148   9.612   4.534
98909W        W 2977  22.698   8.994   6.188
98910W        W 2978  22.363   7.666   6.598
98911W        W 2979  22.702   8.689   5.651
98912W        W 2980  21.874  10.262   6.318
98913W        W 2981  23.282   7.996   3.866
98914W        W 2982  22.417   8.812   4.647
98915W        W 2983  22.188  10.664   6.084
98916W        W 2984  22.112   8.939   7.018
98917W        W 2985  22.461   8.940   5.326
98918W        W 2986  22.755   9.879   4.975
98919W        W 2987  21.960  10.606   5.084
98920W        W 2988  22.469   9.793   4.620
98921W        W 2989  22.384   7.410   7.173
98922W        W 2990  21.978   9.817   5.665
98923W        W 2991  23.231   7.779   4.306
98924W        W 2992  23.035   9.263   7.155
98925W        W 2993  22.388  10.259   6.426
98926W        W 2994  22.979  10.242   7.149
98927W        W 2995  22.830   8.039   4.163
98928W        W 2996  22.990   8.881   5.324
98929W        W 2997  22.645  10.579   6.189
98930W        W 2998  22.253   9.368   6.786
98931W        W 2999  22.684   9.279   4.716
98932W        W 3000  23.055  10.286   6.111
98933W        W 3001  22.044   9.689   4.082
98934W        W 3002  22.209   9.189   4.971
98935W        W 3003  22.623  10.891   5.724
98936W        W 3004  22.838  10.376   4.838
98937W        W 3005  23.037   7.486   5.532
98938W        W 3006  22.100  10.308   4.080
98939W        W 3007  22.791  10.467   6.677
98940W        W 3008  22.268   9.290   4.373
98941W        W 3009  22.153   7.833   5.372
98942W        W 3010  21.953   7.652   4.449
98943W        W 3011  23.084  10.504   4.338
98944W        W 3012  22.166  10.667   5.509
98945W        W 3013  22.346   7.955   7.143
98946W        W 3014  22.077   8.555   4.476
98947W        W 3015  22.768   8.544   4.201
98948W        W 3016  22.874   9.152   5.727
98949W        W 3017  23.010   8.615   6.177
98950W        W 3018  22.046   8.531   6.608
98951W        W 3019  22.163   9.766   4.991
98952W        W 3020  22.310   9.063   5.881
98953W        W 3021  23.059  10.597   5.592
98954W        W 3022  22.519   9.793   5.487
98955W        W 3023  22.484  10.347   5.753
98956W        W 3024  22.611   8.798   3.748
98957W        W 3025  21.950  10.884  10.648
98958W        W 3026  22.326   9.777  10.171
98959W        W 3027  23.079  10.583   7.494
98960W        W 3028  23.162   8.735   8.477
98961W        W 3029  22.677   8.583   8.641
98962W        W 3030  21.992   8.051  10.393
98963W        W 3031  22.754   7.331  10.195
98964W        W 3032  22.033   7.816   9.868
98965W        W 3033  22.132  10.435  10.889
98966W        W 3034  22.086   8.608   9.314
98967W        W 3035  22.979   8.499  10.551
98968W        W 3036  22.556   9.507   9.537
98969W        W 3037  21.915   9.035   9.108
98970W        W 3038  22.951   9.007  10.300
98971W        W 3039  22.838  10.234   8.999
98972W        W 3040  21.937   8.547  10.859
98973W        W 3041  22.350   7.664   8.456
98974W        W 3042  22.877   9.922   9.455
98975W        W 3043  22.373  10.818   7.658
98976W        W 3044  22.766  10.864   8.334
98977W        W 3045  22.563   7.618   9.760
98978W        W 3046  22.601  10.450   7.975
98979W        W 3047  21.972   7.949   8.574
98980W        W 3048  22.216  10.173   8.963
98981W        W 3049  21.972  10.307   9.461
98982W        W 3050  22.763   9.879   9.941
98983W        W 3051  23.136   9.239   8.560
98984W        W 3052  23.158   7.644   9.653
98985W        W 3053  22.606   9.278   7.418
98986W        W 3054  22.261   8.311   7.597
98987W        W 3055  22.323  10.267   8.391
98988W        W 3056  21.878   9.001   8.231
98989W        W 3057  22.989   9.416   9.804
98990W        W 3058  22.413   8.590   9.760
98991W        W 3059  22.398   8.466  10.682
98992W        W 3060  22.288   7.383   8.841
98993W        W 3061  22.591  10.654   8.914
98994W        W 3062  23.249   8.371   7.900
98995W        W 3063  22.818   7.655  10.564
98996W        W 3064  22.906   7.374   7.896
98997W        W 3065  22.284   9.360   9.078
98998W        W 3066  22.598   8.198   9.147
98999W        W 3067  22.152   9.398   9.921
99000W        W 3068  22.205   8.075   9.432
99001W        W 3069  21.943   8.354   9.761
99002W        W 3070  22.470   7.770   7.645
99003W        W 3071  22.602  10.544   7.303
99004W        W 3072  22.808   7.787   8.309
99005W        W 3073  22.813   8.015   7.334
99006W        W 3074  21.882   9.333   9.483
99007W        W 3075  22.854   7.466   7.411
99008W        W 3076  23.150   9.535  10.270
99009W        W 3077  23.077   8.103   9.278
99010W        W 3078  22.503   8.059   8.676
99011W        W 3079  22.289  10.771   8.352
99012W        W 3080  22.656   9.586   7.836
99013W        W 3081  21.936  10.706  10.149
99014W        W 3082  22.353   9.932   9.681
99015W        W 3083  21.920  10.778   7.913
99016W        W 3084  23.182  10.071   7.568
99017W        W 3085  22.905   8.297   8.285
99018W        W 3086  22.004   7.526   7.580
99019W        W 3087  23.290   9.845   9.870
99020W        W 3088  23.089   9.761   8.962
99021W        W 3089  22.831   9.713   7.360
99022W        W 3090  22.072   9.954   8.128
99023W        W 3091  22.576   9.024  10.570
99024W        W 3092  23.280   7.584  10.756
99025W        W 3093  23.184   7.494   8.393
99026W        W 3094  22.188   7.503   9.475
99027W        W 3095  22.236   8.466   8.845
99028W        W 3096  22.347   8.072   8.065
99029W        W 3097  22.606   7.721   9.185
99030W        W 3098  21.868   7.983   7.603
99031W        W 3099  22.654   9.372  10.164
99032W        W 3100  22.025   9.356   7.336
99033W        W 3101  22.760   9.767  10.462
99034W        W 3102  22.281   8.934  10.093
99035W        W 3103  23.272   9.039   9.887
99036W        W 3104  22.270   9.797  10.802
99037W        W 3105  22.665   8.098  10.408
99038W        W 3106  22.925   7.777  10.070
99039W        W 3107  22.897  10.025   8.021
99040W        W 3108  22.420   8.149  10.009
99041W        W 3109  22.033  10.147  10.430
99042W        W 3110  22.776   8.139   9.668
99043W        W 3111  22.746   7.487   8.778
99044W        W 3112  22.490  10.200  10.592
99045W        W 3113  22.976   7.902   8.834
99046W        W 3114  22.745   9.395   8.924
99047W        W 3115  23.058  10.806   9.674
99048W        W 3116  22.133   8.888   7.554
99049W        W 3117  23.243   7.389  10.273
99050W        W 3118  23.095   8.420   8.852
99051W        W 3119  23.101   8.289  10.151
99052W        W 3120  22.397  10.714  10.401
99053W        W 3121  22.509  10.075   7.531
99054W        W 3122  22.630   8.625  10.227
99055W        W 3123  23.148   9.612   8.179
99056W        W 3124  22.698   8.994   9.833
99057W        W 3125  22.363   7.666  10.243
99058W        W 3126  22.702   8.689   9.296
99059W        W 3127  21.874  10.262   9.963
99060W        W 3128  23.282   7.996   7.511
99061W        W 3129  22.417   8.812   8.292
99062W        W 3130  22.188  10.664   9.729
99063W        W 3131  22.112   8.939  10.663
99064W        W 3132  22.461   8.940   8.971
99065W        W 3133  22.755   9.879   8.620
99066W        W 3134  21.960  10.606   8.729
99067W        W 3135  22.469   9.793   8.265
99068W        W 3136  22.384   7.410  10.818
99069W        W 3137  21.978   9.817   9.310
99070W        W 3138  23.231   7.779   7.951
99071W        W 3139  23.035   9.263  10.800
99072W        W 3140  22.388  10.259  10.071
99073W        W 3141  22.979  10.242  10.794
99074W        W 3142  22.830   8.039   7.808
99075W        W 3143  22.990   8.881   8.969
99076W        W 3144  22.645  10.579   9.834
99077W        W 3145  22.253   9.368  10.431
99078W        W 3146  22.684   9.279   8.361
99079W        W 3147  23.055  10.286   9.756
99080W        W 3148  22.044   9.689   7.727
99081W        W 3149  22.209   9.189   8.616
99082W        W 3150  22.623  10.891   9.369
99083W        W 3151  22.838  10.376   8.483
99084W        W 3152  23.037   7.486   9.177
99085W        W 3153  22.100  10.308   7.725
99086W        W 3154  22.791  10.467  10.322
99087W        W 3155  22.268   9.290   8.018
99088W        W 3156  22.153   7.833   9.017
99089W        W 3157  21.953   7.652   8.094
99090W        W 3158  23.084  10.504   7.983
99091W        W 3159  22.166  10.667   9.154
99092W        W 3160  22.346   7.955  10.788
99093W        W 3161  22.077   8.555   8.121
99094W        W 3162  22.768   8.544   7.846
99095W        W 3163  22.874   9.152   9.372
99096W        W 3164  23.010   8.615   9.822
99097W        W 3165  22.046   8.531  10.253
99098W        W 3166  22.163   9.766   8.636
99099W        W 3167  22.310   9.063   9.526
99100W        W 3168  23.059  10.597   9.237
99101W        W 3169  22.519   9.793   9.132
99102W        W 3170  22.484  10.347   9.398
99103W        W 3171  22.611   8.798   7.393
99104W        W 3172  21.950  10.884  14.292
99105W        W 3173  22.326   9.777  13.815
99106W        W 3174  23.079  10.583  11.138
99107W        W 3175  23.162   8.735  12.121
99108W        W 3176  22.677   8.583  12.285
99109W        W 3177  21.992   8.051  14.037
99110W        W 3178  22.754   7.331  13.839
99111W        W 3179  22.033   7.816  13.512
99112W        W 3180  22.132  10.435  14.533
99113W        W 3181  22.086   8.608  12.958
99114W        W 3182  22.979   8.499  14.195
99115W        W 3183  22.556   9.507  13.181
99116W        W 3184  21.915   9.035  12.752
99117W        W 3185  22.951   9.007  13.944
99118W        W 3186  22.838  10.234  12.643
99119W        W 3187  21.937   8.547  14.503
99120W        W 3188  22.350   7.664  12.100
99121W        W 3189  22.877   9.922  13.099
99122W        W 3190  22.373  10.818  11.302
99123W        W 3191  22.766  10.864  11.978
99124W        W 3192  22.563   7.618  13.404
99125W        W 3193  22.601  10.450  11.619
99126W        W 3194  21.972   7.949  12.218
99127W        W 3195  22.216  10.173  12.607
99128W        W 3196  21.972  10.307  13.105
99129W        W 3197  22.763   9.879  13.585
99130W        W 3198  23.136   9.239  12.204
99131W        W 3199  23.158   7.644  13.297
99132W        W 3200  22.606   9.278  11.062
99133W        W 3201  22.261   8.311  11.241
99134W        W 3202  22.323  10.267  12.035
99135W        W 3203  21.878   9.001  11.875
99136W        W 3204  22.989   9.416  13.448
99137W        W 3205  22.413   8.590  13.404
99138W        W 3206  22.398   8.466  14.326
99139W        W 3207  22.288   7.383  12.485
99140W        W 3208  22.591  10.654  12.558
99141W        W 3209  23.249   8.371  11.544
99142W        W 3210  22.818   7.655  14.208
99143W        W 3211  22.906   7.374  11.540
99144W        W 3212  22.284   9.360  12.722
99145W        W 3213  22.598   8.198  12.791
99146W        W 3214  22.152   9.398  13.565
99147W        W 3215  22.205   8.075  13.076
99148W        W 3216  21.943   8.354  13.405
99149W        W 3217  22.470   7.770  11.289
99150W        W 3218  22.602  10.544  10.947
99151W        W 3219  22.808   7.787  11.953
99152W        W 3220  22.813   8.015  10.978
99153W        W 3221  21.882   9.333  13.127
99154W        W 3222  22.854   7.466  11.055
99155W        W 3223  23.150   9.535  13.914
99156W        W 3224  23.077   8.103  12.922
99157W        W 3225  22.503   8.059  12.320
99158W        W 3226  22.289  10.771  11.996
99159W        W 3227  22.656   9.586  11.480
99160W        W 3228  21.936  10.706  13.793
99161W        W 3229  22.353   9.932  13.325
99162W        W 3230  21.920  10.778  11.557
99163W        W 3231  23.182  10.071  11.212
99164W        W 3232  22.905   8.297  11.929
99165W        W 3233  22.004   7.526  11.224
99166W        W 3234  23.290   9.845  13.514
99167W        W 3235  23.089   9.761  12.606
99168W        W 3236  22.831   9.713  11.004
99169W        W 3237  22.072   9.954  11.772
99170W        W 3238  22.576   9.024  14.214
99171W        W 3239  23.280   7.584  14.400
99172W        W 3240  23.184   7.494  12.037
99173W        W 3241  22.188   7.503  13.119
99174W        W 3242  22.236   8.466  12.489
99175W        W 3243  22.347   8.072  11.709
99176W        W 3244  22.606   7.721  12.829
99177W        W 3245  21.868   7.983  11.247
99178W        W 3246  22.654   9.372  13.808
99179W        W 3247  22.025   9.356  10.980
99180W        W 3248  22.760   9.767  14.106
99181W        W 3249  22.281   8.934  13.737
99182W        W 3250  23.272   9.039  13.531
99183W        W 3251  22.270   9.797  14.446
99184W        W 3252  22.665   8.098  14.052
99185W        W 3253  22.925   7.777  13.714
99186W        W 3254  22.897  10.025  11.665
99187W        W 3255  22.420   8.149  13.653
99188W        W 3256  22.033  10.147  14.074
99189W        W 3257  22.776   8.139  13.312
99190W        W 3258  22.746   7.487  12.422
99191W        W 3259  22.490  10.200  14.236
99192W        W 3260  22.976   7.902  12.478
99193W        W 3261  22.745   9.395  12.568
99194W        W 3262  23.058  10.806  13.318
99195W        W 3263  22.133   8.888  11.198
99196W        W 3264  23.243   7.389  13.917
99197W        W 3265  23.095   8.420  12.496
99198W        W 3266  23.101   8.289  13.795
99199W        W 3267  22.397  10.714  14.045
99200W        W 3268  22.509  10.075  11.175
99201W        W 3269  22.630   8.625  13.871
99202W        W 3270  23.148   9.612  11.823
99203W        W 3271  22.698   8.994  13.477
99204W        W 3272  22.363   7.666  13.887
99205W        W 3273  22.702   8.689  12.940
99206W        W 3274  21.874  10.262  13.607
99207W        W 3275  23.282   7.996  11.155
99208W        W 3276  22.417   8.812  11.936
99209W        W 3277  22.188  10.664  13.373
99210W        W 3278  22.112   8.939  14.307
99211W        W 3279  22.461   8.940  12.615
99212W        W 3280  22.755   9.879  12.264
99213W        W 3281  21.960  10.606  12.373
99214W        W 3282  22.469   9.793  11.909
99215W        W 3283  22.384   7.410  14.462
99216W        W 3284  21.978   9.817  12.954
99217W        W 3285  23.231   7.779  11.595
99218W        W 3286  23.035   9.263  14.444
99219W        W 3287  22.388  10.259  13.715
99220W        W 3288  22.979  10.242  14.438
99221W        W 3289  22.830   8.039  11.452
99222W        W 3290  22.990   8.881  12.613
99223W        W 3291  22.645  10.579  13.478
99224W        W 3292  22.253   9.368  14.075
99225W        W 3293  22.684   9.279  12.005
99226W        W 3294  23.055  10.286  13.400
99227W        W 3295  22.044   9.689  11.371
99228W        W 3296  22.209   9.189  12.260
99229W        W 3297  22.623  10.891  13.013
99230W        W 3298  22.838  10.376  12.127
99231W        W 3299  23.037   7.486  12.821
99232W        W 3300  22.100  10.308  11.369
99233W        W 3301  22.791  10.467  13.966
99234W        W 3302  22.268   9.290  11.662
99235W        W 3303  22.153   7.833  12.661
99236W        W 3304  21.953   7.652  11.738
99237W        W 3305  23.084  10.504  11.627
99238W        W 3306  22.166  10.667  12.798
99239W        W 3307  22.346   7.955  14.432
99240W        W 3308  22.077   8.555  11.765
99241W        W 3309  22.768   8.544  11.490
99242W        W 3310  22.874   9.152  13.016
99243W        W 3311  23.010   8.615  13.466
99244W        W 3312  22.046   8.531  13.897
99245W        W 3313  22.163   9.766  12.280
99246W        W 3314  22.310   9.063  13.170
99247W        W 3315  23.059  10.597  12.881
99248W        W 3316  22.519   9.793  12.776
99249W        W 3317  22.484  10.347  13.042
99250W        W 3318  22.611   8.798  11.037
99251W        W 3319  21.950  10.884  17.936
99252W        W 3320  22.326   9.777  17.459
99253W        W 3321  23.079  10.583  14.782
99254W        W 3322  23.162   8.735  15.765
99255W        W 3323  22.677   8.583  15.929
99256W        W 3324  21.992   8.051  17.681
99257W        W 3325  22.754   7.331  17.483
99258W        W 3326  22.033   7.816  17.156
99259W        W 3327  22.132  10.435  18.177
99260W        W 3328  22.086   8.608  16.602
99261W        W 3329  22.979   8.499  17.839
99262W        W 3330  22.556   9.507  16.825
99263W        W 3331  21.915   9.035  16.396
99264W        W 3332  22.951   9.007  17.588
99265W        W 3333  22.838  10.234  16.287
99266W        W 3334  21.937   8.547  18.147
99267W        W 3335  22.350   7.664  15.744
99268W        W 3336  22.877   9.922  16.743
99269W        W 3337  22.373  10.818  14.946
99270W        W 3338  22.766  10.864  15.622
99271W        W 3339  22.563   7.618  17.048
99272W        W 3340  22.601  10.450  15.263
99273W        W 3341  21.972   7.949  15.862
99274W        W 3342  22.216  10.173  16.251
99275W        W 3343  21.972  10.307  16.749
99276W        W 3344  22.763   9.879  17.229
99277W        W 3345  23.136   9.239  15.848
99278W        W 3346  23.158   7.644  16.941
99279W        W 3347  22.606   9.278  14.706
99280W        W 3348  22.261   8.311  14.885
99281W        W 3349  22.323  10.267  15.679
99282W        W 3350  21.878   9.001  15.519
99283W        W 3351  22.989   9.416  17.092
99284W        W 3352  22.413   8.590  17.048
99285W        W 3353  22.398   8.466  17.970
99286W        W 3354  22.288   7.383  16.129
99287W        W 3355  22.591  10.654  16.202
99288W        W 3356  23.249   8.371  15.188
99289W        W 3357  22.818   7.655  17.852
99290W        W 3358  22.906   7.374  15.184
99291W        W 3359  22.284   9.360  16.366
99292W        W 3360  22.598   8.198  16.435
99293W        W 3361  22.152   9.398  17.209
99294W        W 3362  22.205   8.075  16.720
99295W        W 3363  21.943   8.354  17.049
99296W        W 3364  22.470   7.770  14.933
99297W        W 3365  22.602  10.544  14.591
99298W        W 3366  22.808   7.787  15.597
99299W        W 3367  22.813   8.015  14.622
99300W        W 3368  21.882   9.333  16.771
99301W        W 3369  22.854   7.466  14.699
99302W        W 3370  23.150   9.535  17.558
99303W        W 3371  23.077   8.103  16.566
99304W        W 3372  22.503   8.059  15.964
99305W        W 3373  22.289  10.771  15.640
99306W        W 3374  22.656   9.586  15.124
99307W        W 3375  21.936  10.706  17.437
99308W        W 3376  22.353   9.932  16.969
99309W        W 3377  21.920  10.778  15.201
99310W        W 3378  23.182  10.071  14.856
99311W        W 3379  22.905   8.297  15.573
99312W        W 3380  22.004   7.526  14.868
99313W        W 3381  23.290   9.845  17.158
99314W        W 3382  23.089   9.761  16.250
99315W        W 3383  22.831   9.713  14.648
99316W        W 3384  22.072   9.954  15.416
99317W        W 3385  22.576   9.024  17.858
99318W        W 3386  23.280   7.584  18.044
99319W        W 3387  23.184   7.494  15.681
99320W        W 3388  22.188   7.503  16.763
99321W        W 3389  22.236   8.466  16.133
99322W        W 3390  22.347   8.072  15.353
99323W        W 3391  22.606   7.721  16.473
99324W        W 3392  21.868   7.983  14.891
99325W        W 3393  22.654   9.372  17.452
99326W        W 3394  22.025   9.356  14.624
99327W        W 3395  22.760   9.767  17.750
99328W        W 3396  22.281   8.934  17.381
99329W        W 3397  23.272   9.039  17.175
99330W        W 3398  22.270   9.797  18.090
99331W        W 3399  22.665   8.098  17.696
99332W        W 3400  22.925   7.777  17.358
99333W        W 3401  22.897  10.025  15.309
99334W        W 3402  22.420   8.149  17.297
99335W        W 3403  22.033  10.147  17.718
99336W        W 3404  22.776   8.139  16.956
99337W        W 3405  22.746   7.487  16.066
99338W        W 3406  22.490  10.200  17.880
99339W        W 3407  22.976   7.902  16.122
99340W        W 3408  22.745   9.395  16.212
99341W        W 3409  23.058  10.806  16.962
99342W        W 3410  22.133   8.888  14.842
99343W        W 3411  23.243   7.389  17.561
99344W        W 3412  23.095   8.420  16.140
99345W        W 3413  23.101   8.289  17.439
99346W        W 3414  22.397  10.714  17.689
99347W        W 3415  22.509  10.075  14.819
99348W        W 3416  22.630   8.625  17.515
99349W        W 3417  23.148   9.612  15.467
99350W        W 3418  22.698   8.994  17.121
99351W        W 3419  22.363   7.666  17.531
99352W        W 3420  22.702   8.689  16.584
99353W        W 3421  21.874  10.262  17.251
99354W        W 3422  23.282   7.996  14.799
99355W        W 3423  22.417   8.812  15.580
99356W        W 3424  22.188  10.664  17.017
99357W        W 3425  22.112   8.939  17.951
99358W        W 3426  22.461   8.940  16.259
99359W        W 3427  22.755   9.879  15.908
99360W        W 3428  21.960  10.606  16.017
99361W        W 3429  22.469   9.793  15.553
99362W        W 3430  22.384   7.410  18.106
99363W        W 3431  21.978   9.817  16.598
99364W        W 3432  23.231   7.779  15.239
99365W        W 3433  23.035   9.263  18.088
99366W        W 3434  22.388  10.259  17.359
99367W        W 3435  22.979  10.242  18.082
99368W        W 3436  22.830   8.039  15.096
99369W        W 3437  22.990   8.881  16.257
99370W        W 3438  22.645  10.579  17.122
99371W        W 3439  22.253   9.368  17.719
99372W        W 3440  22.684   9.279  15.649
99373W        W 3441  23.055  10.286  17.044
99374W        W 3442  22.044   9.689  15.015
99375W        W 3443  22.209   9.189  15.904
99376W        W 3444  22.623  10.891  16.657
99377W        W 3445  22.838  10.376  15.771
99378W        W 3446  23.037   7.486  16.465
99379W        W 3447  22.100  10.308  15.013
99380W        W 3448  22.791  10.467  17.610
99381W        W 3449  22.268   9.290  15.306
99382W        W 3450  22.153   7.833  16.305
99383W        W 3451  21.953   7.652  15.382
99384W        W 3452  23.084  10.504  15.271
99385W        W 3453  22.166  10.667  16.442
99386W        W 3454  22.346   7.955  18.076
99387W        W 3455  22.077   8.555  15.409
99388W        W 3456  22.768   8.544  15.134
99389W        W 3457  22.874   9.152  16.660
99390W        W 3458  23.010   8.615  17.110
99391W        W 3459  22.046   8.531  17.541
99392W        W 3460  22.163   9.766  15.924
99393W        W 3461  22.310   9.063  16.814
99394W        W 3462  23.059  10.597  16.525
99395W        W 3463  22.519   9.793  16.420
99396W        W 3464  22.484  10.347  16.686
99397W        W 3465  22.611   8.798  14.681
99398W        W 3466  21.950  10.884  21.580
99399W        W 3467  22.326   9.777  21.103
99400W        W 3468  23.079  10.583  18.426
99401W        W 3469  23.162   8.735  19.409
99402W        W 3470  22.677   8.583  19.573
99403W        W 3471  21.992   8.051  21.325
99404W        W 3472  22.754   7.331  21.127
99405W        W 3473  22.033   7.816  20.800
99406W        W 3474  22.132  10.435  21.821
99407W        W 3475  22.086   8.608  20.246
99408W        W 3476  22.979   8.499  21.483
99409W        W 3477  22.556   9.507  20.469
99410W        W 3478  21.915   9.035  20.040
99411W        W 3479  22.951   9.007  21.232
99412W        W 3480  22.838  10.234  19.931
99413W        W 3481  21.937   8.547  21.791
99414W        W 3482  22.350   7.664  19.388
99415W        W 3483  22.877   9.922  20.387
99416W        W 3484  22.373  10.818  18.590
99417W        W 3485  22.766  10.864  19.266
99418W        W 3486  22.563   7.618  20.692
99419W        W 3487  22.601  10.450  18.907
99420W        W 3488  21.972   7.949  19.506
99421W        W 3489  22.216  10.173  19.895
99422W        W 3490  21.972  10.307  20.393
99423W        W 3491  22.763   9.879  20.873
99424W        W 3492  23.136   9.239  19.492
99425W        W 3493  23.158   7.644  20.585
99426W        W 3494  22.606   9.278  18.350
99427W        W 3495  22.261   8.311  18.529
99428W        W 3496  22.323  10.267  19.323
99429W        W 3497  21.878   9.001  19.163
99430W        W 3498  22.989   9.416  20.736
99431W        W 3499  22.413   8.590  20.692
99432W        W 3500  22.398   8.466  21.614
99433W        W 3501  22.288   7.383  19.773
99434W        W 3502  22.591  10.654  19.846
99435W        W 3503  23.249   8.371  18.832
99436W        W 3504  22.818   7.655  21.496
99437W        W 3505  22.906   7.374  18.828
99438W        W 3506  22.284   9.360  20.010
99439W        W 3507  22.598   8.198  20.079
99440W        W 3508  22.152   9.398  20.853
99441W        W 3509  22.205   8.075  20.364
99442W        W 3510  21.943   8.354  20.693
99443W        W 3511  22.470   7.770  18.577
99444W        W 3512  22.602  10.544  18.235
99445W        W 3513  22.808   7.787  19.241
99446W        W 3514  22.813   8.015  18.266
99447W        W 3515  21.882   9.333  20.415
99448W        W 3516  22.854   7.466  18.343
99449W        W 3517  23.150   9.535  21.202
99450W        W 3518  23.077   8.103  20.210
99451W        W 3519  22.503   8.059  19.608
99452W        W 3520  22.289  10.771  19.284
99453W        W 3521  22.656   9.586  18.768
99454W        W 3522  21.936  10.706  21.081
99455W        W 3523  22.353   9.932  20.613
99456W        W 3524  21.920  10.778  18.845
99457W        W 3525  23.182  10.071  18.500
99458W        W 3526  22.905   8.297  19.217
99459W        W 3527  22.004   7.526  18.512
99460W        W 3528  23.290   9.845  20.802
99461W        W 3529  23.089   9.761  19.894
99462W        W 3530  22.831   9.713  18.292
99463W        W 3531  22.072   9.954  19.060
99464W        W 3532  22.576   9.024  21.502
99465W        W 3533  23.280   7.584  21.688
99466W        W 3534  23.184   7.494  19.325
99467W        W 3535  22.188   7.503  20.407
99468W        W 3536  22.236   8.466  19.777
99469W        W 3537  22.347   8.072  18.997
99470W        W 3538  22.606   7.721  20.117
99471W        W 3539  21.868   7.983  18.535
99472W        W 3540  22.654   9.372  21.096
99473W        W 3541  22.025   9.356  18.268
99474W        W 3542  22.760   9.767  21.394
99475W        W 3543  22.281   8.934  21.025
99476W        W 3544  23.272   9.039  20.819
99477W        W 3545  22.270   9.797  21.734
99478W        W 3546  22.665   8.098  21.340
99479W        W 3547  22.925   7.777  21.002
99480W        W 3548  22.897  10.025  18.953
99481W        W 3549  22.420   8.149  20.941
99482W        W 3550  22.033  10.147  21.362
99483W        W 3551  22.776   8.139  20.600
99484W        W 3552  22.746   7.487  19.710
99485W        W 3553  22.490  10.200  21.524
99486W        W 3554  22.976   7.902  19.766
99487W        W 3555  22.745   9.395  19.856
99488W        W 3556  23.058  10.806  20.606
99489W        W 3557  22.133   8.888  18.486
99490W        W 3558  23.243   7.389  21.205
99491W        W 3559  23.095   8.420  19.784
99492W        W 3560  23.101   8.289  21.083
99493W        W 3561  22.397  10.714  21.333
99494W        W 3562  22.509  10.075  18.463
99495W        W 3563  22.630   8.625  21.159
99496W        W 3564  23.148   9.612  19.111
99497W        W 3565  22.698   8.994  20.765
99498W        W 3566  22.363   7.666  21.175
99499W        W 3567  22.702   8.689  20.228
99500W        W 3568  21.874  10.262  20.895
99501W        W 3569  23.282   7.996  18.443
99502W        W 3570  22.417   8.812  19.224
99503W        W 3571  22.188  10.664  20.661
99504W        W 3572  22.112   8.939  21.595
99505W        W 3573  22.461   8.940  19.903
99506W        W 3574  22.755   9.879  19.552
99507W        W 3575  21.960  10.606  19.661
99508W        W 3576  22.469   9.793  19.197
99509W        W 3577  22.384   7.410  21.750
99510W        W 3578  21.978   9.817  20.242
99511W        W 3579  23.231   7.779  18.883
99512W        W 3580  23.035   9.263  21.732
99513W        W 3581  22.388  10.259  21.003
99514W        W 3582  22.979  10.242  21.726
99515W        W 3583  22.830   8.039  18.740
99516W        W 3584  22.990   8.881  19.901
99517W        W 3585  22.645  10.579  20.766
99518W        W 3586  22.253   9.368  21.363
99519W        W 3587  22.684   9.279  19.293
99520W        W 3588  23.055  10.286  20.688
99521W        W 3589  22.044   9.689  18.659
99522W        W 3590  22.209   9.189  19.548
99523W        W 3591  22.623  10.891  20.301
99524W        W 3592  22.838  10.376  19.415
99525W        W 3593  23.037   7.486  20.109
99526W        W 3594  22.100  10.308  18.657
99527W        W 3595  22.791  10.467  21.254
99528W        W 3596  22.268   9.290  18.950
99529W        W 3597  22.153   7.833  19.949
99530W        W 3598  21.953   7.652  19.026
99531W        W 3599  23.084  10.504  18.915
99532W        W 3600  22.166  10.667  20.086
99533W        W 3601  22.346   7.955  21.720
99534W        W 3602  22.077   8.555  19.053
99535W        W 3603  22.768   8.544  18.778
99536W        W 3604  22.874   9.152  20.304
99537W        W 3605  23.010   8.615  20.754
99538W        W 3606  22.046   8.531  21.185
99539W        W 3607  22.163   9.766  19.568
99540W        W 3608  22.310   9.063  20.458
99541W        W 3609  23.059  10.597  20.169
99542W        W 3610  22.519   9.793  20.064
99543W        W 3611  22.484  10.347  20.330
99544W        W 3612  22.611   8.798  18.325
99545W        W 3613  23.079  10.583  22.071
99546W        W 3614  23.162   8.735  23.054
99547W        W 3615  22.677   8.583  23.218
99548W        W 3616  22.350   7.664  23.033
99549W        W 3617  22.373  10.818  22.235
99550W        W 3618  22.766  10.864  22.911
99551W        W 3619  22.601  10.450  22.552
99552W        W 3620  22.606   9.278  21.995
99553W        W 3621  22.261   8.311  22.174
99554W        W 3622  22.323  10.267  22.968
99555W        W 3623  21.878   9.001  22.808
99556W        W 3624  23.249   8.371  22.477
99557W        W 3625  22.906   7.374  22.473
99558W        W 3626  22.470   7.770  22.222
99559W        W 3627  22.602  10.544  21.880
99560W        W 3628  22.808   7.787  22.886
99561W        W 3629  22.813   8.015  21.911
99562W        W 3630  22.854   7.466  21.988
99563W        W 3631  22.503   8.059  23.253
99564W        W 3632  22.289  10.771  22.929
99565W        W 3633  22.656   9.586  22.413
99566W        W 3634  21.920  10.778  22.490
99567W        W 3635  23.182  10.071  22.145
99568W        W 3636  22.905   8.297  22.862
99569W        W 3637  22.004   7.526  22.157
99570W        W 3638  22.831   9.713  21.937
99571W        W 3639  22.072   9.954  22.705
99572W        W 3640  23.184   7.494  22.970
99573W        W 3641  22.347   8.072  22.642
99574W        W 3642  21.868   7.983  22.180
99575W        W 3643  22.025   9.356  21.913
99576W        W 3644  22.897  10.025  22.598
99577W        W 3645  22.133   8.888  22.131
99578W        W 3646  22.509  10.075  22.108
99579W        W 3647  23.148   9.612  22.756
99580W        W 3648  23.282   7.996  22.088
99581W        W 3649  22.417   8.812  22.869
99582W        W 3650  22.755   9.879  23.197
99583W        W 3651  21.960  10.606  23.306
99584W        W 3652  22.469   9.793  22.842
99585W        W 3653  23.231   7.779  22.528
99586W        W 3654  22.830   8.039  22.385
99587W        W 3655  22.044   9.689  22.304
99588W        W 3656  22.209   9.189  23.193
99589W        W 3657  22.838  10.376  23.060
99590W        W 3658  22.100  10.308  22.302
99591W        W 3659  22.268   9.290  22.595
99592W        W 3660  21.953   7.652  22.671
99593W        W 3661  23.084  10.504  22.560
99594W        W 3662  22.077   8.555  22.698
99595W        W 3663  22.768   8.544  22.423
99596W        W 3664  22.163   9.766  23.213
99597W        W 3665  22.611   8.798  21.970
99598W        W 3666  21.950  14.528   3.359
99599W        W 3667  22.326  13.421   2.882
99600W        W 3668  23.162  12.379   1.188
99601W        W 3669  22.677  12.227   1.352
99602W        W 3670  21.992  11.695   3.104
99603W        W 3671  22.754  10.975   2.906
99604W        W 3672  22.033  11.460   2.579
99605W        W 3673  22.132  14.079   3.600
99606W        W 3674  22.086  12.252   2.025
99607W        W 3675  22.979  12.143   3.262
99608W        W 3676  22.556  13.151   2.248
99609W        W 3677  21.915  12.679   1.819
99610W        W 3678  22.951  12.651   3.011
99611W        W 3679  22.838  13.878   1.710
99612W        W 3680  21.937  12.191   3.570
99613W        W 3681  22.350  11.308   1.167
99614W        W 3682  22.877  13.566   2.166
99615W        W 3683  22.373  14.462   0.369
99616W        W 3684  22.766  14.508   1.045
99617W        W 3685  22.563  11.262   2.471
99618W        W 3686  22.601  14.094   0.686
99619W        W 3687  21.972  11.593   1.285
99620W        W 3688  22.216  13.817   1.674
99621W        W 3689  21.972  13.951   2.172
99622W        W 3690  22.763  13.523   2.652
99623W        W 3691  23.136  12.883   1.271
99624W        W 3692  23.158  11.288   2.364
99625W        W 3693  22.606  12.922   0.129
99626W        W 3694  22.261  11.955   0.308
99627W        W 3695  22.323  13.911   1.102
99628W        W 3696  21.878  12.645   0.942
99629W        W 3697  22.989  13.060   2.515
99630W        W 3698  22.413  12.234   2.471
99631W        W 3699  22.398  12.110   3.393
99632W        W 3700  22.288  11.027   1.552
99633W        W 3701  22.591  14.298   1.625
99634W        W 3702  23.249  12.015   0.611
99635W        W 3703  22.818  11.299   3.275
99636W        W 3704  22.906  11.018   0.607
99637W        W 3705  22.284  13.004   1.789
99638W        W 3706  22.598  11.842   1.858
99639W        W 3707  22.152  13.042   2.632
99640W        W 3708  22.205  11.719   2.143
99641W        W 3709  21.943  11.998   2.472
99642W        W 3710  22.470  11.414   0.356
99643W        W 3711  22.602  14.188   0.014
99644W        W 3712  22.808  11.431   1.020
99645W        W 3713  22.813  11.659   0.045
99646W        W 3714  21.882  12.977   2.194
99647W        W 3715  22.854  11.110   0.122
99648W        W 3716  23.150  13.179   2.981
99649W        W 3717  23.077  11.747   1.989
99650W        W 3718  22.503  11.703   1.387
99651W        W 3719  22.289  14.415   1.063
99652W        W 3720  22.656  13.230   0.547
99653W        W 3721  21.936  14.350   2.860
99654W        W 3722  22.353  13.576   2.392
99655W        W 3723  21.920  14.422   0.624
99656W        W 3724  23.182  13.715   0.279
99657W        W 3725  22.905  11.941   0.996
99658W        W 3726  22.004  11.170   0.291
99659W        W 3727  23.290  13.489   2.581
99660W        W 3728  23.089  13.405   1.673
99661W        W 3729  22.831  13.357   0.071
99662W        W 3730  22.072  13.598   0.839
99663W        W 3731  22.576  12.668   3.281
99664W        W 3732  23.280  11.228   3.467
99665W        W 3733  23.184  11.138   1.104
99666W        W 3734  22.188  11.147   2.186
99667W        W 3735  22.236  12.110   1.556
99668W        W 3736  22.347  11.716   0.776
99669W        W 3737  22.606  11.365   1.896
99670W        W 3738  21.868  11.627   0.314
99671W        W 3739  22.654  13.016   2.875
99672W        W 3740  22.025  13.000   0.047
99673W        W 3741  22.760  13.411   3.173
99674W        W 3742  22.281  12.578   2.804
99675W        W 3743  23.272  12.683   2.598
99676W        W 3744  22.270  13.441   3.513
99677W        W 3745  22.665  11.742   3.119
99678W        W 3746  22.925  11.421   2.781
99679W        W 3747  22.897  13.669   0.732
99680W        W 3748  22.420  11.793   2.720
99681W        W 3749  22.033  13.791   3.141
99682W        W 3750  22.776  11.783   2.379
99683W        W 3751  22.746  11.131   1.489
99684W        W 3752  22.490  13.844   3.303
99685W        W 3753  22.976  11.546   1.545
99686W        W 3754  22.745  13.039   1.635
99687W        W 3755  23.058  14.450   2.385
99688W        W 3756  22.133  12.532   0.265
99689W        W 3757  23.243  11.033   2.984
99690W        W 3758  23.095  12.064   1.563
99691W        W 3759  23.101  11.933   2.862
99692W        W 3760  22.397  14.358   3.112
99693W        W 3761  22.509  13.719   0.242
99694W        W 3762  22.630  12.269   2.938
99695W        W 3763  23.148  13.256   0.890
99696W        W 3764  22.698  12.638   2.544
99697W        W 3765  22.363  11.310   2.954
99698W        W 3766  22.702  12.333   2.007
99699W        W 3767  23.071  12.147   0.129
99700W        W 3768  21.874  13.906   2.674
99701W        W 3769  23.282  11.640   0.222
99702W        W 3770  22.417  12.456   1.003
99703W        W 3771  22.188  14.308   2.440
99704W        W 3772  22.112  12.583   3.374
99705W        W 3773  22.461  12.584   1.682
99706W        W 3774  22.755  13.523   1.331
99707W        W 3775  21.960  14.250   1.440
99708W        W 3776  22.469  13.437   0.976
99709W        W 3777  22.384  11.054   3.529
99710W        W 3778  21.978  13.461   2.021
99711W        W 3779  23.231  11.423   0.662
99712W        W 3780  23.035  12.907   3.511
99713W        W 3781  22.388  13.903   2.782
99714W        W 3782  22.979  13.886   3.505
99715W        W 3783  22.830  11.683   0.519
99716W        W 3784  22.990  12.525   1.680
99717W        W 3785  22.645  14.223   2.545
99718W        W 3786  22.253  13.012   3.142
99719W        W 3787  22.684  12.923   1.072
99720W        W 3788  23.055  13.930   2.467
99721W        W 3789  22.044  13.333   0.438
99722W        W 3790  22.209  12.833   1.327
99723W        W 3791  22.623  14.535   2.080
99724W        W 3792  22.838  14.020   1.194
99725W        W 3793  23.037  11.130   1.888
99726W        W 3794  22.100  13.952   0.436
99727W        W 3795  22.791  14.111   3.033
99728W        W 3796  22.268  12.934   0.729
99729W        W 3797  22.153  11.477   1.728
99730W        W 3798  21.953  11.296   0.805
99731W        W 3799  23.084  14.148   0.694
99732W        W 3800  22.166  14.311   1.865
99733W        W 3801  22.346  11.599   3.499
99734W        W 3802  22.077  12.199   0.832
99735W        W 3803  22.768  12.188   0.557
99736W        W 3804  22.874  12.796   2.083
99737W        W 3805  23.010  12.259   2.533
99738W        W 3806  22.046  12.175   2.964
99739W        W 3807  22.163  13.410   1.347
99740W        W 3808  22.310  12.707   2.237
99741W        W 3809  23.059  14.241   1.948
99742W        W 3810  22.519  13.437   1.843
99743W        W 3811  22.484  13.991   2.109
99744W        W 3812  22.611  12.442   0.104
99745W        W 3813  21.950  14.528   7.003
99746W        W 3814  22.326  13.421   6.526
99747W        W 3815  23.079  14.227   3.849
99748W        W 3816  23.162  12.379   4.832
99749W        W 3817  22.677  12.227   4.996
99750W        W 3818  21.992  11.695   6.748
99751W        W 3819  22.754  10.975   6.550
99752W        W 3820  22.033  11.460   6.223
99753W        W 3821  22.132  14.079   7.244
99754W        W 3822  22.086  12.252   5.669
99755W        W 3823  22.979  12.143   6.906
99756W        W 3824  22.556  13.151   5.892
99757W        W 3825  21.915  12.679   5.463
99758W        W 3826  22.951  12.651   6.655
99759W        W 3827  22.838  13.878   5.354
99760W        W 3828  21.937  12.191   7.214
99761W        W 3829  22.350  11.308   4.811
99762W        W 3830  22.877  13.566   5.810
99763W        W 3831  22.373  14.462   4.013
99764W        W 3832  22.766  14.508   4.689
99765W        W 3833  22.563  11.262   6.115
99766W        W 3834  22.601  14.094   4.330
99767W        W 3835  21.972  11.593   4.929
99768W        W 3836  22.216  13.817   5.318
99769W        W 3837  21.972  13.951   5.816
99770W        W 3838  22.763  13.523   6.296
99771W        W 3839  23.136  12.883   4.915
99772W        W 3840  23.158  11.288   6.008
99773W        W 3841  22.606  12.922   3.773
99774W        W 3842  22.261  11.955   3.952
99775W        W 3843  22.323  13.911   4.746
99776W        W 3844  21.878  12.645   4.586
99777W        W 3845  22.989  13.060   6.159
99778W        W 3846  22.413  12.234   6.115
99779W        W 3847  22.398  12.110   7.037
99780W        W 3848  22.288  11.027   5.196
99781W        W 3849  22.591  14.298   5.269
99782W        W 3850  23.249  12.015   4.255
99783W        W 3851  22.818  11.299   6.919
99784W        W 3852  22.906  11.018   4.251
99785W        W 3853  22.284  13.004   5.433
99786W        W 3854  22.598  11.842   5.502
99787W        W 3855  22.152  13.042   6.276
99788W        W 3856  22.205  11.719   5.787
99789W        W 3857  21.943  11.998   6.116
99790W        W 3858  22.470  11.414   4.000
99791W        W 3859  22.602  14.188   3.658
99792W        W 3860  22.808  11.431   4.664
99793W        W 3861  22.813  11.659   3.689
99794W        W 3862  21.882  12.977   5.838
99795W        W 3863  22.854  11.110   3.766
99796W        W 3864  23.150  13.179   6.625
99797W        W 3865  23.077  11.747   5.633
99798W        W 3866  22.503  11.703   5.031
99799W        W 3867  22.289  14.415   4.707
99800W        W 3868  22.656  13.230   4.191
99801W        W 3869  21.936  14.350   6.504
99802W        W 3870  22.353  13.576   6.036
99803W        W 3871  21.920  14.422   4.268
99804W        W 3872  23.182  13.715   3.923
99805W        W 3873  22.905  11.941   4.640
99806W        W 3874  22.004  11.170   3.935
99807W        W 3875  23.290  13.489   6.225
99808W        W 3876  23.089  13.405   5.317
99809W        W 3877  22.831  13.357   3.715
99810W        W 3878  22.072  13.598   4.483
99811W        W 3879  22.576  12.668   6.925
99812W        W 3880  23.280  11.228   7.111
99813W        W 3881  23.184  11.138   4.748
99814W        W 3882  22.188  11.147   5.830
99815W        W 3883  22.236  12.110   5.200
99816W        W 3884  22.347  11.716   4.420
99817W        W 3885  22.606  11.365   5.540
99818W        W 3886  21.868  11.627   3.958
99819W        W 3887  22.654  13.016   6.519
99820W        W 3888  22.025  13.000   3.691
99821W        W 3889  22.760  13.411   6.817
99822W        W 3890  22.281  12.578   6.448
99823W        W 3891  23.272  12.683   6.242
99824W        W 3892  22.270  13.441   7.157
99825W        W 3893  22.665  11.742   6.763
99826W        W 3894  22.925  11.421   6.425
99827W        W 3895  22.897  13.669   4.376
99828W        W 3896  22.420  11.793   6.364
99829W        W 3897  22.033  13.791   6.785
99830W        W 3898  22.776  11.783   6.023
99831W        W 3899  22.746  11.131   5.133
99832W        W 3900  22.490  13.844   6.947
99833W        W 3901  22.976  11.546   5.189
99834W        W 3902  22.745  13.039   5.279
99835W        W 3903  23.058  14.450   6.029
99836W        W 3904  22.133  12.532   3.909
99837W        W 3905  23.243  11.033   6.628
99838W        W 3906  23.095  12.064   5.207
99839W        W 3907  23.101  11.933   6.506
99840W        W 3908  22.397  14.358   6.756
99841W        W 3909  22.509  13.719   3.886
99842W        W 3910  22.630  12.269   6.582
99843W        W 3911  23.148  13.256   4.534
99844W        W 3912  22.698  12.638   6.188
99845W        W 3913  22.363  11.310   6.598
99846W        W 3914  22.702  12.333   5.651
99847W        W 3915  21.874  13.906   6.318
99848W        W 3916  23.282  11.640   3.866
99849W        W 3917  22.417  12.456   4.647
99850W        W 3918  22.188  14.308   6.084
99851W        W 3919  22.112  12.583   7.018
99852W        W 3920  22.461  12.584   5.326
99853W        W 3921  22.755  13.523   4.975
99854W        W 3922  21.960  14.250   5.084
99855W        W 3923  22.469  13.437   4.620
99856W        W 3924  22.384  11.054   7.173
99857W        W 3925  21.978  13.461   5.665
99858W        W 3926  23.231  11.423   4.306
99859W        W 3927  23.035  12.907   7.155
99860W        W 3928  22.388  13.903   6.426
99861W        W 3929  22.979  13.886   7.149
99862W        W 3930  22.830  11.683   4.163
99863W        W 3931  22.990  12.525   5.324
99864W        W 3932  22.645  14.223   6.189
99865W        W 3933  22.253  13.012   6.786
99866W        W 3934  22.684  12.923   4.716
99867W        W 3935  23.055  13.930   6.111
99868W        W 3936  22.044  13.333   4.082
99869W        W 3937  22.209  12.833   4.971
99870W        W 3938  22.623  14.535   5.724
99871W        W 3939  22.838  14.020   4.838
99872W        W 3940  23.037  11.130   5.532
99873W        W 3941  22.100  13.952   4.080
99874W        W 3942  22.791  14.111   6.677
99875W        W 3943  22.268  12.934   4.373
99876W        W 3944  22.153  11.477   5.372
99877W        W 3945  21.953  11.296   4.449
99878W        W 3946  23.084  14.148   4.338
99879W        W 3947  22.166  14.311   5.509
99880W        W 3948  22.346  11.599   7.143
99881W        W 3949  22.077  12.199   4.476
99882W        W 3950  22.768  12.188   4.201
99883W        W 3951  22.874  12.796   5.727
99884W        W 3952  23.010  12.259   6.177
99885W        W 3953  22.046  12.175   6.608
99886W        W 3954  22.163  13.410   4.991
99887W        W 3955  22.310  12.707   5.881
99888W        W 3956  23.059  14.241   5.592
99889W        W 3957  22.519  13.437   5.487
99890W        W 3958  22.484  13.991   5.753
99891W        W 3959  22.611  12.442   3.748
99892W        W 3960  21.950  14.528  10.648
99893W        W 3961  22.326  13.421  10.171
99894W        W 3962  23.079  14.227   7.494
99895W        W 3963  23.162  12.379   8.477
99896W        W 3964  22.677  12.227   8.641
99897W        W 3965  21.992  11.695  10.393
99898W        W 3966  22.754  10.975  10.195
99899W        W 3967  22.033  11.460   9.868
99900W        W 3968  22.132  14.079  10.889
99901W        W 3969  22.086  12.252   9.314
99902W        W 3970  22.979  12.143  10.551
99903W        W 3971  22.556  13.151   9.537
99904W        W 3972  21.915  12.679   9.108
99905W        W 3973  22.951  12.651  10.300
99906W        W 3974  22.838  13.878   8.999
99907W        W 3975  21.937  12.191  10.859
99908W        W 3976  22.350  11.308   8.456
99909W        W 3977  22.877  13.566   9.455
99910W        W 3978  22.373  14.462   7.658
99911W        W 3979  22.766  14.508   8.334
99912W        W 3980  22.563  11.262   9.760
99913W        W 3981  22.601  14.094   7.975
99914W        W 3982  21.972  11.593   8.574
99915W        W 3983  22.216  13.817   8.963
99916W        W 3984  21.972  13.951   9.461
99917W        W 3985  22.763  13.523   9.941
99918W        W 3986  23.136  12.883   8.560
99919W        W 3987  23.158  11.288   9.653
99920W        W 3988  22.606  12.922   7.418
99921W        W 3989  22.261  11.955   7.597
99922W        W 3990  22.323  13.911   8.391
99923W        W 3991  21.878  12.645   8.231
99924W        W 3992  22.989  13.060   9.804
99925W        W 3993  22.413  12.234   9.760
99926W        W 3994  22.398  12.110  10.682
99927W        W 3995  22.288  11.027   8.841
99928W        W 3996  22.591  14.298   8.914
99929W        W 3997  23.249  12.015   7.900
99930W        W 3998  22.818  11.299  10.564
99931W        W 3999  22.906  11.018   7.896
99932W        W 4000  22.284  13.004   9.078
99933W        W 4001  22.598  11.842   9.147
99934W        W 4002  22.152  13.042   9.921
99935W        W 4003  22.205  11.719   9.432
99936W        W 4004  21.943  11.998   9.761
99937W        W 4005  22.470  11.414   7.645
99938W        W 4006  22.602  14.188   7.303
99939W        W 4007  22.808  11.431   8.309
99940W        W 4008  22.813  11.659   7.334
99941W        W 4009  21.882  12.977   9.483
99942W        W 4010  22.854  11.110   7.411
99943W        W 4011  23.150  13.179  10.270
99944W        W 4012  23.077  11.747   9.278
99945W        W 4013  22.503  11.703   8.676
99946W        W 4014  22.289  14.415   8.352
99947W        W 4015  22.656  13.230   7.836
99948W        W 4016  21.936  14.350  10.149
99949W        W 4017  22.353  13.576   9.681
99950W        W 4018  21.920  14.422   7.913
99951W        W 4019  23.182  13.715   7.568
99952W        W 4020  22.905  11.941   8.285
99953W        W 4021  22.004  11.170   7.580
99954W        W 4022  23.290  13.489   9.870
99955W        W 4023  23.089  13.405   8.962
99956W        W 4024  22.831  13.357   7.360
99957W        W 4025  22.072  13.598   8.128
99958W        W 4026  22.576  12.668  10.570
99959W        W 4027  23.280  11.228  10.756
99960W        W 4028  23.184  11.138   8.393
99961W        W 4029  22.188  11.147   9.475
99962W        W 4030  22.236  12.110   8.845
99963W        W 4031  22.347  11.716   8.065
99964W        W 4032  22.606  11.365   9.185
99965W        W 4033  21.868  11.627   7.603
99966W        W 4034  22.654  13.016  10.164
99967W        W 4035  22.025  13.000   7.336
99968W        W 4036  22.760  13.411  10.462
99969W        W 4037  22.281  12.578  10.093
99970W        W 4038  23.272  12.683   9.887
99971W        W 4039  22.270  13.441  10.802
99972W        W 4040  22.665  11.742  10.408
99973W        W 4041  22.925  11.421  10.070
99974W        W 4042  22.897  13.669   8.021
99975W        W 4043  22.420  11.793  10.009
99976W        W 4044  22.033  13.791  10.430
99977W        W 4045  22.776  11.783   9.668
99978W        W 4046  22.746  11.131   8.778
99979W        W 4047  22.490  13.844  10.592
99980W        W 4048  22.976  11.546   8.834
99981W        W 4049  22.745  13.039   8.924
99982W        W 4050  23.058  14.450   9.674
99983W        W 4051  22.133  12.532   7.554
99984W        W 4052  23.243  11.033  10.273
99985W        W 4053  23.095  12.064   8.852
99986W        W 4054  23.101  11.933  10.151
99987W        W 4055  22.397  14.358  10.401
99988W        W 4056  22.509  13.719   7.531
99989W        W 4057  22.630  12.269  10.227
99990W        W 4058  23.148  13.256   8.179
99991W        W 4059  22.698  12.638   9.833
99992W        W 4060  22.363  11.310  10.243
99993W        W 4061  22.702  12.333   9.296
99994W        W 4062  21.874  13.906   9.963
99995W        W 4063  23.282  11.640   7.511
99996W        W 4064  22.417  12.456   8.292
99997W        W 4065  22.188  14.308   9.729
99998W        W 4066  22.112  12.583  10.663
99999W        W 4067  22.461  12.584   8.971
    0W        W 4068  22.755  13.523   8.620
    1W        W 4069  21.960  14.250   8.729
    2W        W 4070  22.469  13.437   8.265
    3W        W 4071  22.384  11.054  10.818
    4W        W 4072  21.978  13.461   9.310
    5W        W 4073  23.231  11.423   7.951
    6W        W 4074  23.035  12.907  10.800
    7W        W 4075  22.388  13.903  10.071
    8W        W 4076  22.979  13.886  10.794
    9W        W 4077  22.830  11.683   7.808
   10W        W 4078  22.990  12.525   8.969
   11W        W 4079  22.645  14.223   9.834
   12W        W 4080  22.253  13.012  10.431
   13W        W 4081  22.684  12.923   8.361
   14W        W 4082  23.055  13.930   9.756
   15W        W 4083  22.044  13.333   7.727
   16W        W 4084  22.209  12.833   8.616
   17W        W 4085  22.623  14.535   9.369
   18W        W 4086  22.838  14.020   8.483
   19W        W 4087  23.037  11.130   9.177
   20W        W 4088  22.100  13.952   7.725
   21W        W 4089  22.791  14.111  10.322
   22W        W 4090  22.268  12.934   8.018
   23W        W 4091  22.153  11.477   9.017
   24W        W 4092  21.953  11.296   8.094
   25W        W 4093  23.084  14.148   7.983
   26W        W 4094  22.166  14.311   9.154
   27W        W 4095  22.346  11.599  10.788
   28W        W 4096  22.077  12.199   8.121
   29W        W 4097  22.768  12.188   7.846
   30W        W 4098  22.874  12.796   9.372
   31W        W 4099  23.010  12.259   9.822
   32W        W 4100  22.046  12.175  10.253
   33W        W 4101  22.163  13.410   8.636
   34W        W 4102  22.310  12.707   9.526
   35W        W 4103  23.059  14.241   9.237
   36W        W 4104  22.519  13.437   9.132
   37W        W 4105  22.484  13.991   9.398
   38W        W 4106  22.611  12.442   7.393
   39W        W 4107  21.950  14.528  14.292
   40W        W 4108  22.326  13.421  13.815
   41W        W 4109  23.079  14.227  11.138
   42W        W 4110  23.162  12.379  12.121
   43W        W 4111  22.677  12.227  12.285
   44W        W 4112  21.992  11.695  14.037
   45W        W 4113  22.754  10.975  13.839
   46W        W 4114  22.033  11.460  13.512
   47W        W 4115  22.132  14.079  14.533
   48W        W 4116  22.086  12.252  12.958
   49W        W 4117  22.979  12.143  14.195
   50W        W 4118  22.556  13.151  13.181
   51W        W 4119  21.915  12.679  12.752
   52W        W 4120  22.951  12.651  13.944
   53W        W 4121  22.838  13.878  12.643
   54W        W 4122  21.937  12.191  14.503
   55W        W 4123  22.350  11.308  12.100
   56W        W 4124  22.877  13.566  13.099
   57W        W 4125  22.373  14.462  11.302
   58W        W 4126  22.766  14.508  11.978
   59W        W 4127  22.563  11.262  13.404
   60W        W 4128  22.601  14.094  11.619
   61W        W 4129  21.972  11.593  12.218
   62W        W 4130  22.216  13.817  12.607
   63W        W 4131  21.972  13.951  13.105
   64W        W 4132  22.763  13.523  13.585
   65W        W 4133  23.136  12.883  12.204
   66W        W 4134  23.158  11.288  13.297
   67W        W 4135  22.606  12.922  11.062
   68W        W 4136  22.261  11.955  11.241
   69W        W 4137  22.323  13.911  12.035
   70W        W 4138  21.878  12.645  11.875
   71W        W 4139  22.989  13.060  13.448
   72W        W 4140  22.413  12.234  13.404
   73W        W 4141  22.398  12.110  14.326
   74W        W 4142  22.288  11.027  12.485
   75W        W 4143  22.591  14.298  12.558
   76W        W 4144  23.249  12.015  11.544
   77W        W 4145  22.818  11.299  14.208
   78W        W 4146  22.906  11.018  11.540
   79W        W 4147  22.284  13.004  12.722
   80W        W 4148  22.598  11.842  12.791
   81W        W 4149  22.152  13.042  13.565
   82W        W 4150  22.205  11.719  13.076
   83W        W 4151  21.943  11.998  13.405
   84W        W 4152  22.470  11.414  11.289
   85W        W 4153  22.602  14.188  10.947
   86W        W 4154  22.808  11.431  11.953
   87W        W 4155  22.813  11.659  10.978
   88W        W 4156  21.882  12.977  13.127
   89W        W 4157  22.854  11.110  11.055
   90W        W 4158  23.150  13.179  13.914
   91W        W 4159  23.077  11.747  12.922
   92W        W 4160  22.503  11.703  12.320
   93W        W 4161  22.289  14.415  11.996
   94W        W 4162  22.656  13.230  11.480
   95W        W 4163  21.936  14.350  13.793
   96W        W 4164  22.353  13.576  13.325
   97W        W 4165  21.920  14.422  11.557
   98W        W 4166  23.182  13.715  11.212
   99W        W 4167  22.905  11.941  11.929
  100W        W 4168  22.004  11.170  11.224
  101W        W 4169  23.290  13.489  13.514
  102W        W 4170  23.089  13.405  12.606
  103W        W 4171  22.831  13.357  11.004
  104W        W 4172  22.072  13.598  11.772
  105W        W 4173  22.576  12.668  14.214
  106W        W 4174  23.280  11.228  14.400
  107W        W 4175  23.184  11.138  12.037
  108W        W 4176  22.188  11.147  13.119
  109W        W 4177  22.236  12.110  12.489
  110W        W 4178  22.347  11.716  11.709
  111W        W 4179  22.606  11.365  12.829
  112W        W 4180  21.868  11.627  11.247
  113W        W 4181  22.654  13.016  13.808
  114W        W 4182  22.025  13.000  10.980
  115W        W 4183  22.760  13.411  14.106
  116W        W 4184  22.281  12.578  13.737
  117W        W 4185  23.272  12.683  13.531
  118W        W 4186  22.270  13.441  14.446
  119W        W 4187  22.665  11.742  14.052
  120W        W 4188  22.925  11.421  13.714
  121W        W 4189  22.897  13.669  11.665
  122W        W 4190  22.420  11.793  13.653
  123W        W 4191  22.033  13.791  14.074
  124W        W 4192  22.776  11.783  13.312
  125W        W 4193  22.746  11.131  12.422
  126W        W 4194  22.490  13.844  14.236
  127W        W 4195  22.976  11.546  12.478
  128W        W 4196  22.745  13.039  12.568
  129W        W 4197  23.058  14.450  13.318
  130W        W 4198  22.133  12.532  11.198
  131W        W 4199  23.243  11.033  13.917
  132W        W 4200  23.095  12.064  12.496
  133W        W 4201  23.101  11.933  13.795
  134W        W 4202  22.397  14.358  14.045
  135W        W 4203  22.509  13.719  11.175
  136W        W 4204  22.630  12.269  13.871
  137W        W 4205  23.148  13.256  11.823
  138W        W 4206  22.698  12.638  13.477
  139W        W 4207  22.363  11.310  13.887
  140W        W 4208  22.702  12.333  12.940
  141W        W 4209  21.874  13.906  13.607
  142W        W 4210  23.282  11.640  11.155
  143W        W 4211  22.417  12.456  11.936
  144W        W 4212  22.188  14.308  13.373
  145W        W 4213  22.112  12.583  14.307
  146W        W 4214  22.461  12.584  12.615
  147W        W 4215  22.755  13.523  12.264
  148W        W 4216  21.960  14.250  12.373
  149W        W 4217  22.469  13.437  11.909
  150W        W 4218  22.384  11.054  14.462
  151W        W 4219  21.978  13.461  12.954
  152W        W 4220  23.231  11.423  11.595
  153W        W 4221  23.035  12.907  14.444
  154W        W 4222  22.388  13.903  13.715
  155W        W 4223  22.979  13.886  14.438
  156W        W 4224  22.830  11.683  11.452
  157W        W 4225  22.990  12.525  12.613
  158W        W 4226  22.645  14.223  13.478
  159W        W 4227  22.253  13.012  14.075
  160W        W 4228  22.684  12.923  12.005
  161W        W 4229  23.055  13.930  13.400
  162W        W 4230  22.044  13.333  11.371
  163W        W 4231  22.209  12.833  12.260
  164W        W 4232  22.623  14.535  13.013
  165W        W 4233  22.838  14.020  12.127
  166W        W 4234  23.037  11.130  12.821
  167W        W 4235  22.100  13.952  11.369
  168W        W 4236  22.791  14.111  13.966
  169W        W 4237  22.268  12.934  11.662
  170W        W 4238  22.153  11.477  12.661
  171W        W 4239  21.953  11.296  11.738
  172W        W 4240  23.084  14.148  11.627
  173W        W 4241  22.166  14.311  12.798
  174W        W 4242  22.346  11.599  14.432
  175W        W 4243  22.077  12.199  11.765
  176W        W 4244  22.768  12.188  11.490
  177W        W 4245  22.874  12.796  13.016
  178W        W 4246  23.010  12.259  13.466
  179W        W 4247  22.046  12.175  13.897
  180W        W 4248  22.163  13.410  12.280
  181W        W 4249  22.310  12.707  13.170
  182W        W 4250  23.059  14.241  12.881
  183W        W 4251  22.519  13.437  12.776
  184W        W 4252  22.484  13.991  13.042
  185W        W 4253  22.611  12.442  11.037
  186W        W 4254  21.950  14.528  17.936
  187W        W 4255  22.326  13.421  17.459
  188W        W 4256  23.079  14.227  14.782
  189W        W 4257  23.162  12.379  15.765
  190W        W 4258  22.677  12.227  15.929
  191W        W 4259  21.992  11.695  17.681
  192W        W 4260  22.754  10.975  17.483
  193W        W 4261  22.033  11.460  17.156
  194W        W 4262  22.132  14.079  18.177
  195W        W 4263  22.086  12.252  16.602
  196W        W 4264  22.979  12.143  17.839
  197W        W 4265  22.556  13.151  16.825
  198W        W 4266  21.915  12.679  16.396
  199W        W 4267  22.951  12.651  17.588
  200W        W 4268  22.838  13.878  16.287
  201W        W 4269  21.937  12.191  18.147
  202W        W 4270  22.350  11.308  15.744
  203W        W 4271  22.877  13.566  16.743
  204W        W 4272  22.373  14.462  14.946
  205W        W 4273  22.766  14.508  15.622
  206W        W 4274  22.563  11.262  17.048
  207W        W 4275  22.601  14.094  15.263
  208W        W 4276  21.972  11.593  15.862
  209W        W 4277  22.216  13.817  16.251
  210W        W 4278  21.972  13.951  16.749
  211W        W 4279  22.763  13.523  17.229
  212W        W 4280  23.136  12.883  15.848
  213W        W 4281  23.158  11.288  16.941
  214W        W 4282  22.606  12.922  14.706
  215W        W 4283  22.261  11.955  14.885
  216W        W 4284  22.323  13.911  15.679
  217W        W 4285  21.878  12.645  15.519
  218W        W 4286  22.989  13.060  17.092
  219W        W 4287  22.413  12.234  17.048
  220W        W 4288  22.398  12.110  17.970
  221W        W 4289  22.288  11.027  16.129
  222W        W 4290  22.591  14.298  16.202
  223W        W 4291  23.249  12.015  15.188
  224W        W 4292  22.818  11.299  17.852
  225W        W 4293  22.906  11.018  15.184
  226W        W 4294  22.284  13.004  16.366
  227W        W 4295  22.598  11.842  16.435
  228W        W 4296  22.152  13.042  17.209
  229W        W 4297  22.205  11.719  16.720
  230W        W 4298  21.943  11.998  17.049
  231W        W 4299  22.470  11.414  14.933
  232W        W 4300  22.602  14.188  14.591
  233W        W 4301  22.808  11.431  15.597
  234W        W 4302  22.813  11.659  14.622
  235W        W 4303  21.882  12.977  16.771
  236W        W 4304  22.854  11.110  14.699
  237W        W 4305  23.150  13.179  17.558
  238W        W 4306  23.077  11.747  16.566
  239W        W 4307  22.503  11.703  15.964
  240W        W 4308  22.289  14.415  15.640
  241W        W 4309  22.656  13.230  15.124
  242W        W 4310  21.936  14.350  17.437
  243W        W 4311  22.353  13.576  16.969
  244W        W 4312  21.920  14.422  15.201
  245W        W 4313  23.182  13.715  14.856
  246W        W 4314  22.905  11.941  15.573
  247W        W 4315  22.004  11.170  14.868
  248W        W 4316  23.290  13.489  17.158
  249W        W 4317  23.089  13.405  16.250
  250W        W 4318  22.831  13.357  14.648
  251W        W 4319  22.072  13.598  15.416
  252W        W 4320  22.576  12.668  17.858
  253W        W 4321  23.280  11.228  18.044
  254W        W 4322  23.184  11.138  15.681
  255W        W 4323  22.188  11.147  16.763
  256W        W 4324  22.236  12.110  16.133
  257W        W 4325  22.347  11.716  15.353
  258W        W 4326  22.606  11.365  16.473
  259W        W 4327  21.868  11.627  14.891
  260W        W 4328  22.654  13.016  17.452
  261W        W 4329  22.025  13.000  14.624
  262W        W 4330  22.760  13.411  17.750
  263W        W 4331  22.281  12.578  17.381
  264W        W 4332  23.272  12.683  17.175
  265W        W 4333  22.270  13.441  18.090
  266W        W 4334  22.665  11.742  17.696
  267W        W 4335  22.925  11.421  17.358
  268W        W 4336  22.897  13.669  15.309
  269W        W 4337  22.420  11.793  17.297
  270W        W 4338  22.033  13.791  17.718
  271W        W 4339  22.776  11.783  16.956
  272W        W 4340  22.746  11.131  16.066
  273W        W 4341  22.490  13.844  17.880
  274W        W 4342  22.976  11.546  16.122
  275W        W 4343  22.745  13.039  16.212
  276W        W 4344  23.058  14.450  16.962
  277W        W 4345  22.133  12.532  14.842
  278W        W 4346  23.243  11.033  17.561
  279W        W 4347  23.095  12.064  16.140
  280W        W 4348  23.101  11.933  17.439
  281W        W 4349  22.397  14.358  17.689
  282W        W 4350  22.509  13.719  14.819
  283W        W 4351  22.630  12.269  17.515
  284W        W 4352  23.148  13.256  15.467
  285W        W 4353  22.698  12.638  17.121
  286W        W 4354  22.363  11.310  17.531
  287W        W 4355  22.702  12.333  16.584
  288W        W 4356  21.874  13.906  17.251
  289W        W 4357  23.282  11.640  14.799
  290W        W 4358  22.417  12.456  15.580
  291W        W 4359  22.188  14.308  17.017
  292W        W 4360  22.112  12.583  17.951
  293W        W 4361  22.461  12.584  16.259
  294W        W 4362  22.755  13.523  15.908
  295W        W 4363  21.960  14.250  16.017
  296W        W 4364  22.469  13.437  15.553
  297W        W 4365  22.384  11.054  18.106
  298W        W 4366  21.978  13.461  16.598
  299W        W 4367  23.231  11.423  15.239
  300W        W 4368  23.035  12.907  18.088
  301W        W 4369  22.388  13.903  17.359
  302W        W 4370  22.979  13.886  18.082
  303W        W 4371  22.830  11.683  15.096
  304W        W 4372  22.990  12.525  16.257
  305W        W 4373  22.645  14.223  17.122
  306W        W 4374  22.253  13.012  17.719
  307W        W 4375  22.684  12.923  15.649
  308W        W 4376  23.055  13.930  17.044
  309W        W 4377  22.044  13.333  15.015
  310W        W 4378  22.209  12.833  15.904
  311W        W 4379  22.623  14.535  16.657
  312W        W 4380  22.838  14.020  15.771
  313W        W 4381  23.037  11.130  16.465
  314W        W 4382  22.100  13.952  15.013
  315W        W 4383  22.791  14.111  17.610
  316W        W 4384  22.268  12.934  15.306
  317W        W 4385  22.153  11.477  16.305
  318W        W 4386  21.953  11.296  15.382
  319W        W 4387  23.084  14.148  15.271
  320W        W 4388  22.166  14.311  16.442
  321W        W 4389  22.346  11.599  18.076
  322W        W 4390  22.077  12.199  15.409
  323W        W 4391  22.768  12.188  15.134
  324W        W 4392  22.874  12.796  16.660
  325W        W 4393  23.010  12.259  17.110
  326W        W 4394  22.046  12.175  17.541
  327W        W 4395  22.163  13.410  15.924
  328W        W 4396  22.310  12.707  16.814
  329W        W 4397  23.059  14.241  16.525
  330W        W 4398  22.519  13.437  16.420
  331W        W 4399  22.484  13.991  16.686
  332W        W 4400  22.611  12.442  14.681
  333W        W 4401  21.950  14.528  21.580
  334W        W 4402  22.326  13.421  21.103
  335W        W 4403  23.079  14.227  18.426
  336W        W 4404  23.162  12.379  19.409
  337W        W 4405  22.677  12.227  19.573
  338W        W 4406  21.992  11.695  21.325
  339W        W 4407  22.754  10.975  21.127
  340W        W 4408  22.033  11.460  20.800
  341W        W 4409  22.132  14.079  21.821
  342W        W 4410  22.086  12.252  20.246
  343W        W 4411  22.979  12.143  21.483
  344W        W 4412  22.556  13.151  20.469
  345W        W 4413  21.915  12.679  20.040
  346W        W 4414  22.951  12.651  21.232
  347W        W 4415  22.838  13.878  19.931
  348W        W 4416  21.937  12.191  21.791
  349W        W 4417  22.350  11.308  19.388
  350W        W 4418  22.877  13.566  20.387
  351W        W 4419  22.373  14.462  18.590
  352W        W 4420  22.766  14.508  19.266
  353W        W 4421  22.563  11.262  20.692
  354W        W 4422  22.601  14.094  18.907
  355W        W 4423  21.972  11.593  19.506
  356W        W 4424  22.216  13.817  19.895
  357W        W 4425  21.972  13.951  20.393
  358W        W 4426  22.763  13.523  20.873
  359W        W 4427  23.136  12.883  19.492
  360W        W 4428  23.158  11.288  20.585
  361W        W 4429  22.606  12.922  18.350
  362W        W 4430  22.261  11.955  18.529
  363W        W 4431  22.323  13.911  19.323
  364W        W 4432  21.878  12.645  19.163
  365W        W 4433  22.989  13.060  20.736
  366W        W 4434  22.413  12.234  20.692
  367W        W 4435  22.398  12.110  21.614
  368W        W 4436  22.288  11.027  19.773
  369W        W 4437  22.591  14.298  19.846
  370W        W 4438  23.249  12.015  18.832
  371W        W 4439  22.818  11.299  21.496
  372W        W 4440  22.906  11.018  18.828
  373W        W 4441  22.284  13.004  20.010
  374W        W 4442  22.598  11.842  20.079
  375W        W 4443  22.152  13.042  20.853
  376W        W 4444  22.205  11.719  20.364
  377W        W 4445  21.943  11.998  20.693
  378W        W 4446  22.470  11.414  18.577
  379W        W 4447  22.602  14.188  18.235
  380W        W 4448  22.808  11.431  19.241
  381W        W 4449  22.813  11.659  18.266
  382W        W 4450  21.882  12.977  20.415
  383W        W 4451  22.854  11.110  18.343
  384W        W 4452  23.150  13.179  21.202
  385W        W 4453  23.077  11.747  20.210
  386W        W 4454  22.503  11.703  19.608
  387W        W 4455  22.289  14.415  19.284
  388W        W 4456  22.656  13.230  18.768
  389W        W 4457  21.936  14.350  21.081
  390W        W 4458  22.353  13.576  20.613
  391W        W 4459  21.920  14.422  18.845
  392W        W 4460  23.182  13.715  18.500
  393W        W 4461  22.905  11.941  19.217
  394W        W 4462  22.004  11.170  18.512
  395W        W 4463  23.290  13.489  20.802
  396W        W 4464  23.089  13.405  19.894
  397W        W 4465  22.831  13.357  18.292
  398W        W 4466  22.072  13.598  19.060
  399W        W 4467  22.576  12.668  21.502
  400W        W 4468  23.280  11.228  21.688
  401W        W 4469  23.184  11.138  19.325
  402W        W 4470  22.188  11.147  20.407
  403W        W 4471  22.236  12.110  19.777
  404W        W 4472  22.347  11.716  18.997
  405W        W 4473  22.606  11.365  20.117
  406W        W 4474  21.868  11.627  18.535
  407W        W 4475  22.654  13.016  21.096
  408W        W 4476  22.025  13.000  18.268
  409W        W 4477  22.760  13.411  21.394
  410W        W 4478  22.281  12.578  21.025
  411W        W 4479  23.272  12.683  20.819
  412W        W 4480  22.270  13.441  21.734
  413W        W 4481  22.665  11.742  21.340
  414W        W 4482  22.925  11.421  21.002
  415W        W 4483  22.897  13.669  18.953
  416W        W 4484  22.420  11.793  20.941
  417W        W 4485  22.033  13.791  21.362
  418W        W 4486  22.776  11.783  20.600
  419W        W 4487  22.746  11.131  19.710
  420W        W 4488  22.490  13.844  21.524
  421W        W 4489  22.976  11.546  19.766
  422W        W 4490  22.745  13.039  19.856
  423W        W 4491  23.058  14.450  20.606
  424W        W 4492  22.133  12.532  18.486
  425W        W 4493  23.243  11.033  21.205
  426W        W 4494  23.095  12.064  19.784
  427W        W 4495  23.101  11.933  21.083
  428W        W 4496  22.397  14.358  21.333
  429W        W 4497  22.509  13.719  18.463
  430W        W 4498  22.630  12.269  21.159
  431W        W 4499  23.148  13.256  19.111
  432W        W 4500  22.698  12.638  20.765
  433W        W 4501  22.363  11.310  21.175
  434W        W 4502  22.702  12.333  20.228
  435W        W 4503  21.874  13.906  20.895
  436W        W 4504  23.282  11.640  18.443
  437W        W 4505  22.417  12.456  19.224
  438W        W 4506  22.188  14.308  20.661
  439W        W 4507  22.112  12.583  21.595
  440W        W 4508  22.461  12.584  19.903
  441W        W 4509  22.755  13.523  19.552
  442W        W 4510  21.960  14.250  19.661
  443W        W 4511  22.469  13.437  19.197
  444W        W 4512  22.384  11.054  21.750
  445W        W 4513  21.978  13.461  20.242
  446W        W 4514  23.231  11.423  18.883
  447W        W 4515  23.035  12.907  21.732
  448W        W 4516  22.388  13.903  21.003
  449W        W 4517  22.979  13.886  21.726
  450W        W 4518  22.830  11.683  18.740
  451W        W 4519  22.990  12.525  19.901
  452W        W 4520  22.645  14.223  20.766
  453W        W 4521  22.253  13.012  21.363
  454W        W 4522  22.684  12.923  19.293
  455W        W 4523  23.055  13.930  20.688
  456W        W 4524  22.044  13.333  18.659
  457W        W 4525  22.209  12.833  19.548
  458W        W 4526  22.623  14.535  20.301
  459W        W 4527  22.838  14.020  19.415
  460W        W 4528  23.037  11.130  20.109
  461W        W 4529  22.100  13.952  18.657
  462W        W 4530  22.791  14.111  21.254
  463W        W 4531  22.268  12.934  18.950
  464W        W 4532  22.153  11.477  19.949
  465W        W 4533  21.953  11.296  19.026
  466W        W 4534  23.084  14.148  18.915
  467W        W 4535  22.166  14.311  20.086
  468W        W 4536  22.346  11.599  21.720
  469W        W 4537  22.077  12.199  19.053
  470W        W 4538  22.768  12.188  18.778
  471W        W 4539  22.874  12.796  20.304
  472W        W 4540  23.010  12.259  20.754
  473W        W 4541  22.046  12.175  21.185
  474W        W 4542  22.163  13.410  19.568
  475W        W 4543  22.310  12.707  20.458
  476W        W 4544  23.059  14.241  20.169
  477W        W 4545  22.519  13.437  20.064
  478W        W 4546  22.484  13.991  20.330
  479W        W 4547  22.611  12.442  18.325
  480W        W 4548  23.079  14.227  22.071
  481W        W 4549  23.162  12.379  23.054
  482W        W 4550  22.677  12.227  23.218
  483W        W 4551  22.350  11.308  23.033
  484W        W 4552  22.373  14.462  22.235
  485W        W 4553  22.766  14.508  22.911
  486W        W 4554  22.601  14.094  22.552
  487W        W 4555  22.606  12.922  21.995
  488W        W 4556  22.261  11.955  22.174
  489W        W 4557  22.323  13.911  22.968
  490W        W 4558  21.878  12.645  22.808
  491W        W 4559  23.249  12.015  22.477
  492W        W 4560  22.906  11.018  22.473
  493W        W 4561  22.470  11.414  22.222
  494W        W 4562  22.602  14.188  21.880
  495W        W 4563  22.808  11.431  22.886
  496W        W 4564  22.813  11.659  21.911
  497W        W 4565  22.854  11.110  21.988
  498W        W 4566  22.503  11.703  23.253
  499W        W 4567  22.289  14.415  22.929
  500W        W 4568  22.656  13.230  22.413
  501W        W 4569  21.920  14.422  22.490
  502W        W 4570  23.182  13.715  22.145
  503W        W 4571  22.905  11.941  22.862
  504W        W 4572  22.004  11.170  22.157
  505W        W 4573  22.831  13.357  21.937
  506W        W 4574  22.072  13.598  22.705
  507W        W 4575  23.184  11.138  22.970
  508W        W 4576  22.347  11.716  22.642
  509W        W 4577  21.868  11.627  22.180
  510W        W 4578  22.025  13.000  21.913
  511W        W 4579  22.897  13.669  22.598
  512W        W 4580  22.133  12.532  22.131
  513W        W 4581  22.509  13.719  22.108
  514W        W 4582  23.148  13.256  22.756
  515W        W 4583  23.282  11.640  22.088
  516W        W 4584  22.417  12.456  22.869
  517W        W 4585  22.755  13.523  23.197
  518W        W 4586  21.960  14.250  23.306
  519W        W 4587  22.469  13.437  22.842
  520W        W 4588  23.231  11.423  22.528
  521W        W 4589  22.830  11.683  22.385
  522W        W 4590  22.044  13.333  22.304
  523W        W 4591  22.209  12.833  23.193
  524W        W 4592  22.838  14.020  23.060
  525W        W 4593  22.100  13.952  22.302
  526W        W 4594  22.268  12.934  22.595
  527W        W 4595  21.953  11.296  22.671
  528W        W 4596  23.084  14.148  22.560
  529W        W 4597  22.077  12.199  22.698
  530W        W 4598  22.768  12.188  22.423
  531W        W 4599  22.163  13.410  23.213
  532W        W 4600  22.611  12.442  21.970
  533W        W 4601  21.950  18.172   3.359
  534W        W 4602  22.326  17.065   2.882
  535W        W 4603  23.162  16.023   1.188
  536W        W 4604  22.677  15.871   1.352
  537W        W 4605  21.992  15.339   3.104
  538W        W 4606  22.754  14.619   2.906
  539W        W 4607  22.033  15.104   2.579
  540W        W 4608  22.132  17.723   3.600
  541W        W 4609  22.086  15.896   2.025
  542W        W 4610  22.979  15.787   3.262
  543W        W 4611  22.556  16.795   2.248
  544W        W 4612  21.915  16.323   1.819
  545W        W 4613  22.951  16.295   3.011
  546W        W 4614  22.838  17.522   1.710
  547W        W 4615  21.937  15.835   3.570
  548W        W 4616  22.350  14.952   1.167
  549W        W 4617  22.877  17.210   2.166
  550W        W 4618  22.373  18.106   0.369
  551W        W 4619  22.766  18.152   1.045
  552W        W 4620  22.563  14.906   2.471
  553W        W 4621  22.601  17.738   0.686
  554W        W 4622  21.972  15.237   1.285
  555W        W 4623  22.216  17.461   1.674
  556W        W 4624  21.972  17.595   2.172
  557W        W 4625  22.763  17.167   2.652
  558W        W 4626  23.136  16.527   1.271
  559W        W 4627  23.158  14.932   2.364
  560W        W 4628  22.606  16.566   0.129
  561W        W 4629  22.261  15.599   0.308
  562W        W 4630  22.323  17.555   1.102
  563W        W 4631  21.878  16.289   0.942
  564W        W 4632  22.989  16.704   2.515
  565W        W 4633  22.413  15.878   2.471
  566W        W 4634  22.398  15.754   3.393
  567W        W 4635  22.288  14.671   1.552
  568W        W 4636  22.591  17.942   1.625
  569W        W 4637  23.249  15.659   0.611
  570W        W 4638  22.818  14.943   3.275
  571W        W 4639  22.906  14.662   0.607
  572W        W 4640  22.284  16.648   1.789
  573W        W 4641  22.598  15.486   1.858
  574W        W 4642  22.152  16.686   2.632
  575W        W 4643  22.205  15.363   2.143
  576W        W 4644  21.943  15.642   2.472
  577W        W 4645  22.470  15.058   0.356
  578W        W 4646  22.602  17.832   0.014
  579W        W 4647  22.808  15.075   1.020
  580W        W 4648  22.813  15.303   0.045
  581W        W 4649  21.882  16.621   2.194
  582W        W 4650  22.854  14.754   0.122
  583W        W 4651  23.150  16.823   2.981
  584W        W 4652  23.077  15.391   1.989
  585W        W 4653  22.503  15.347   1.387
  586W        W 4654  22.289  18.059   1.063
  587W        W 4655  22.656  16.874   0.547
  588W        W 4656  21.936  17.994   2.860
  589W        W 4657  22.353  17.220   2.392
  590W        W 4658  21.920  18.066   0.624
  591W        W 4659  23.182  17.359   0.279
  592W        W 4660  22.905  15.585   0.996
  593W        W 4661  22.004  14.814   0.291
  594W        W 4662  23.290  17.133   2.581
  595W        W 4663  23.089  17.049   1.673
  596W        W 4664  22.831  17.001   0.071
  597W        W 4665  22.072  17.242   0.839
  598W        W 4666  22.576  16.312   3.281
  599W        W 4667  23.280  14.872   3.467
  600W        W 4668  23.184  14.782   1.104
  601W        W 4669  22.188  14.791   2.186
  602W        W 4670  22.236  15.754   1.556
  603W        W 4671  22.347  15.360   0.776
  604W        W 4672  22.606  15.009   1.896
  605W        W 4673  21.868  15.271   0.314
  606W        W 4674  22.654  16.660   2.875
  607W        W 4675  22.025  16.644   0.047
  608W        W 4676  22.760  17.055   3.173
  609W        W 4677  22.281  16.222   2.804
  610W        W 4678  23.272  16.327   2.598
  611W        W 4679  22.270  17.085   3.513
  612W        W 4680  22.665  15.386   3.119
  613W        W 4681  22.925  15.065   2.781
  614W        W 4682  22.897  17.313   0.732
  615W        W 4683  22.420  15.437   2.720
  616W        W 4684  22.033  17.435   3.141
  617W        W 4685  22.776  15.427   2.379
  618W        W 4686  22.746  14.775   1.489
  619W        W 4687  22.490  17.488   3.303
  620W        W 4688  22.976  15.190   1.545
  621W        W 4689  22.745  16.683   1.635
  622W        W 4690  23.058  18.094   2.385
  623W        W 4691  22.133  16.176   0.265
  624W        W 4692  23.243  14.677   2.984
  625W        W 4693  23.095  15.708   1.563
  626W        W 4694  23.101  15.577   2.862
  627W        W 4695  22.397  18.002   3.112
  628W        W 4696  22.509  17.363   0.242
  629W        W 4697  22.630  15.913   2.938
  630W        W 4698  23.148  16.900   0.890
  631W        W 4699  22.698  16.282   2.544
  632W        W 4700  22.363  14.954   2.954
  633W        W 4701  22.702  15.977   2.007
  634W        W 4702  23.071  15.791   0.129
  635W        W 4703  21.874  17.550   2.674
  636W        W 4704  23.282  15.284   0.222
  637W        W 4705  22.417  16.100   1.003
  638W        W 4706  22.188  17.952   2.440
  639W        W 4707  22.112  16.227   3.374
  640W        W 4708  22.461  16.228   1.682
  641W        W 4709  22.755  17.167   1.331
  642W        W 4710  21.960  17.894   1.440
  643W        W 4711  22.469  17.081   0.976
  644W        W 4712  22.384  14.698   3.529
  645W        W 4713  21.978  17.105   2.021
  646W        W 4714  23.231  15.067   0.662
  647W        W 4715  23.035  16.551   3.511
  648W        W 4716  22.388  17.547   2.782
  649W        W 4717  22.979  17.530   3.505
  650W        W 4718  22.830  15.327   0.519
  651W        W 4719  22.990  16.169   1.680
  652W        W 4720  22.645  17.867   2.545
  653W        W 4721  22.253  16.656   3.142
  654W        W 4722  22.684  16.567   1.072
  655W        W 4723  23.055  17.574   2.467
  656W        W 4724  22.044  16.977   0.438
  657W        W 4725  22.209  16.477   1.327
  658W        W 4726  22.623  18.179   2.080
  659W        W 4727  22.838  17.664   1.194
  660W        W 4728  23.037  14.774   1.888
  661W        W 4729  22.100  17.596   0.436
  662W        W 4730  22.791  17.755   3.033
  663W        W 4731  22.268  16.578   0.729
  664W        W 4732  22.153  15.121   1.728
  665W        W 4733  21.953  14.940   0.805
  666W        W 4734  23.084  17.792   0.694
  667W        W 4735  22.166  17.955   1.865
  668W        W 4736  22.346  15.243   3.499
  669W        W 4737  22.077  15.843   0.832
  670W        W 4738  22.768  15.832   0.557
  671W        W 4739  22.874  16.440   2.083
  672W        W 4740  23.010  15.903   2.533
  673W        W 4741  22.046  15.819   2.964
  674W        W 4742  22.163  17.054   1.347
  675W        W 4743  22.310  16.351   2.237
  676W        W 4744  23.059  17.885   1.948
  677W        W 4745  22.519  17.081   1.843
  678W        W 4746  22.484  17.635   2.109
  679W        W 4747  22.611  16.086   0.104
  680W        W 4748  21.950  18.172   7.003
  681W        W 4749  22.326  17.065   6.526
  682W        W 4750  23.079  17.871   3.849
  683W        W 4751  23.162  16.023   4.832
  684W        W 4752  22.677  15.871   4.996
  685W        W 4753  21.992  15.339   6.748
  686W        W 4754  22.754  14.619   6.550
  687W        W 4755  22.033  15.104   6.223
  688W        W 4756  22.132  17.723   7.244
  689W        W 4757  22.086  15.896   5.669
  690W        W 4758  22.979  15.787   6.906
  691W        W 4759  22.556  16.795   5.892
  692W        W 4760  21.915  16.323   5.463
  693W        W 4761  22.951  16.295   6.655
  694W        W 4762  22.838  17.522   5.354
  695W        W 4763  21.937  15.835   7.214
  696W        W 4764  22.350  14.952   4.811
  697W        W 4765  22.877  17.210   5.810
  698W        W 4766  22.373  18.106   4.013
  699W        W 4767  22.766  18.152   4.689
  700W        W 4768  22.563  14.906   6.115
  701W        W 4769  22.601  17.738   4.330
  702W        W 4770  21.972  15.237   4.929
  703W        W 4771  22.216  17.461   5.318
  704W        W 4772  21.972  17.595   5.816
  705W        W 4773  22.763  17.167   6.296
  706W        W 4774  23.136  16.527   4.915
  707W        W 4775  23.158  14.932   6.008
  708W        W 4776  22.606  16.566   3.773
  709W        W 4777  22.261  15.599   3.952
  710W        W 4778  22.323  17.555   4.746
  711W        W 4779  21.878  16.289   4.586
  712W        W 4780  22.989  16.704   6.159
  713W        W 4781  22.413  15.878   6.115
  714W        W 4782  22.398  15.754   7.037
  715W        W 4783  22.288  14.671   5.196
  716W        W 4784  22.591  17.942   5.269
  717W        W 4785  23.249  15.659   4.255
  718W        W 4786  22.818  14.943   6.919
  719W        W 4787  22.906  14.662   4.251
  720W        W 4788  22.284  16.648   5.433
  721W        W 4789  22.598  15.486   5.502
  722W        W 4790  22.152  16.686   6.276
  723W        W 4791  22.205  15.363   5.787
  724W        W 4792  21.943  15.642   6.116
  725W        W 4793  22.470  15.058   4.000
  726W        W 4794  22.602  17.832   3.658
  727W        W 4795  22.808  15.075   4.664
  728W        W 4796  22.813  15.303   3.689
  729W        W 4797  21.882  16.621   5.838
  730W        W 4798  22.854  14.754   3.766
  731W        W 4799  23.150  16.823   6.625
  732W        W 4800  23.077  15.391   5.633
  733W        W 4801  22.503  15.347   5.031
  734W        W 4802  22.289  18.059   4.707
  735W        W 4803  22.656  16.874   4.191
  736W        W 4804  21.936  17.994   6.504
  737W        W 4805  22.353  17.220   6.036
  738W        W 4806  21.920  18.066   4.268
  739W        W 4807  23.182  17.359   3.923
  740W        W 4808  22.905  15.585   4.640
  741W        W 4809  22.004  14.814   3.935
  742W        W 4810  23.290  17.133   6.225
  743W        W 4811  23.089  17.049   5.317
  744W        W 4812  22.831  17.001   3.715
  745W        W 4813  22.072  17.242   4.483
  746W        W 4814  22.576  16.312   6.925
  747W        W 4815  23.280  14.872   7.111
  748W        W 4816  23.184  14.782   4.748
  749W        W 4817  22.188  14.791   5.830
  750W        W 4818  22.236  15.754   5.200
  751W        W 4819  22.347  15.360   4.420
  752W        W 4820  22.606  15.009   5.540
  753W        W 4821  21.868  15.271   3.958
  754W        W 4822  22.654  16.660   6.519
  755W        W 4823  22.025  16.644   3.691
  756W        W 4824  22.760  17.055   6.817
  757W        W 4825  22.281  16.222   6.448
  758W        W 4826  23.272  16.327   6.242
  759W        W 4827  22.270  17.085   7.157
  760W        W 4828  22.665  15.386   6.763
  761W        W 4829  22.925  15.065   6.425
  762W        W 4830  22.897  17.313   4.376
  763W        W 4831  22.420  15.437   6.364
  764W        W 4832  22.033  17.435   6.785
  765W        W 4833  22.776  15.427   6.023
  766W        W 4834  22.746  14.775   5.133
  767W        W 4835  22.490  17.488   6.947
  768W        W 4836  22.976  15.190   5.189
  769W        W 4837  22.745  16.683   5.279
  770W        W 4838  23.058  18.094   6.029
  771W        W 4839  22.133  16.176   3.909
  772W        W 4840  23.243  14.677   6.628
  773W        W 4841  23.095  15.708   5.207
  774W        W 4842  23.101  15.577   6.506
  775W        W 4843  22.397  18.002   6.756
  776W        W 4844  22.509  17.363   3.886
  777W        W 4845  22.630  15.913   6.582
  778W        W 4846  23.148  16.900   4.534
  779W        W 4847  22.698  16.282   6.188
  780W        W 4848  22.363  14.954   6.598
  781W        W 4849  22.702  15.977   5.651
  782W        W 4850  21.874  17.550   6.318
  783W        W 4851  23.282  15.284   3.866
  784W        W 4852  22.417  16.100   4.647
  785W        W 4853  22.188  17.952   6.084
  786W        W 4854  22.112  16.227   7.018
  787W        W 4855  22.461  16.228   5.326
  788W        W 4856  22.755  17.167   4.975
  789W        W 4857  21.960  17.894   5.084
  790W        W 4858  22.469  17.081   4.620
  791W        W 4859  22.384  14.698   7.173
  792W        W 4860  21.978  17.105   5.665
  793W        W 4861  23.231  15.067   4.306
  794W        W 4862  23.035  16.551   7.155
  795W        W 4863  22.388  17.547   6.426
  796W        W 4864  22.979  17.530   7.149
  797W        W 4865  22.830  15.327   4.163
  798W        W 4866  22.990  16.169   5.324
  799W        W 4867  22.645  17.867   6.189
  800W        W 4868  22.253  16.656   6.786
  801W        W 4869  22.684  16.567   4.716
  802W        W 4870  23.055  17.574   6.111
  803W        W 4871  22.044  16.977   4.082
  804W        W 4872  22.209  16.477   4.971
  805W        W 4873  22.623  18.179   5.724
  806W        W 4874  22.838  17.664   4.838
  807W        W 4875  23.037  14.774   5.532
  808W        W 4876  22.100  17.596   4.080
  809W        W 4877  22.791  17.755   6.677
  810W        W 4878  22.268  16.578   4.373
  811W        W 4879  22.153  15.121   5.372
  812W        W 4880  21.953  14.940   4.449
  813W        W 4881  23.084  17.792   4.338
  814W        W 4882  22.166  17.955   5.509
  815W        W 4883  22.346  15.243   7.143
  816W        W 4884  22.077  15.843   4.476
  817W        W 4885  22.768  15.832   4.201
  818W        W 4886  22.874  16.440   5.727
  819W        W 4887  23.010  15.903   6.177
  820W        W 4888  22.046  15.819   6.608
  821W        W 4889  22.163  17.054   4.991
  822W        W 4890  22.310  16.351   5.881
  823W        W 4891  23.059  17.885   5.592
  824W        W 4892  22.519  17.081   5.487
  825W        W 4893  22.484  17.635   5.753
  826W        W 4894  22.611  16.086   3.748
  827W        W 4895  21.950  18.172  10.648
  828W        W 4896  22.326  17.065  10.171
  829W        W 4897  23.079  17.871   7.494
  830W        W 4898  23.162  16.023   8.477
  831W        W 4899  22.677  15.871   8.641
  832W        W 4900  21.992  15.339  10.393
  833W        W 4901  22.754  14.619  10.195
  834W        W 4902  22.033  15.104   9.868
  835W        W 4903  22.132  17.723  10.889
  836W        W 4904  22.086  15.896   9.314
  837W        W 4905  22.979  15.787  10.551
  838W        W 4906  22.556  16.795   9.537
  839W        W 4907  21.915  16.323   9.108
  840W        W 4908  22.951  16.295  10.300
  841W        W 4909  22.838  17.522   8.999
  842W        W 4910  21.937  15.835  10.859
  843W        W 4911  22.350  14.952   8.456
  844W        W 4912  22.877  17.210   9.455
  845W        W 4913  22.373  18.106   7.658
  846W        W 4914  22.766  18.152   8.334
  847W        W 4915  22.563  14.906   9.760
  848W        W 4916  22.601  17.738   7.975
  849W        W 4917  21.972  15.237   8.574
  850W        W 4918  22.216  17.461   8.963
  851W        W 4919  21.972  17.595   9.461
  852W        W 4920  22.763  17.167   9.941
  853W        W 4921  23.136  16.527   8.560
  854W        W 4922  23.158  14.932   9.653
  855W        W 4923  22.606  16.566   7.418
  856W        W 4924  22.261  15.599   7.597
  857W        W 4925  22.323  17.555   8.391
  858W        W 4926  21.878  16.289   8.231
  859W        W 4927  22.989  16.704   9.804
  860W        W 4928  22.413  15.878   9.760
  861W        W 4929  22.398  15.754  10.682
  862W        W 4930  22.288  14.671   8.841
  863W        W 4931  22.591  17.942   8.914
  864W        W 4932  23.249  15.659   7.900
  865W        W 4933  22.818  14.943  10.564
  866W        W 4934  22.906  14.662   7.896
  867W        W 4935  22.284  16.648   9.078
  868W        W 4936  22.598  15.486   9.147
  869W        W 4937  22.152  16.686   9.921
  870W        W 4938  22.205  15.363   9.432
  871W        W 4939  21.943  15.642   9.761
  872W        W 4940  22.470  15.058   7.645
  873W        W 4941  22.602  17.832   7.303
  874W        W 4942  22.808  15.075   8.309
  875W        W 4943  22.813  15.303   7.334
  876W        W 4944  21.882  16.621   9.483
  877W        W 4945  22.854  14.754   7.411
  878W        W 4946  23.150  16.823  10.270
  879W        W 4947  23.077  15.391   9.278
  880W        W 4948  22.503  15.347   8.676
  881W        W 4949  22.289  18.059   8.352
  882W        W 4950  22.656  16.874   7.836
  883W        W 4951  21.936  17.994  10.149
  884W        W 4952  22.353  17.220   9.681
  885W        W 4953  21.920  18.066   7.913
  886W        W 4954  23.182  17.359   7.568
  887W        W 4955  22.905  15.585   8.285
  888W        W 4956  22.004  14.814   7.580
  889W        W 4957  23.290  17.133   9.870
  890W        W 4958  23.089  17.049   8.962
  891W        W 4959  22.831  17.001   7.360
  892W        W 4960  22.072  17.242   8.128
  893W        W 4961  22.576  16.312  10.570
  894W        W 4962  23.280  14.872  10.756
  895W        W 4963  23.184  14.782   8.393
  896W        W 4964  22.188  14.791   9.475
  897W        W 4965  22.236  15.754   8.845
  898W        W 4966  22.347  15.360   8.065
  899W        W 4967  22.606  15.009   9.185
  900W        W 4968  21.868  15.271   7.603
  901W        W 4969  22.654  16.660  10.164
  902W        W 4970  22.025  16.644   7.336
  903W        W 4971  22.760  17.055  10.462
  904W        W 4972  22.281  16.222  10.093
  905W        W 4973  23.272  16.327   9.887
  906W        W 4974  22.270  17.085  10.802
  907W        W 4975  22.665  15.386  10.408
  908W        W 4976  22.925  15.065  10.070
  909W        W 4977  22.897  17.313   8.021
  910W        W 4978  22.420  15.437  10.009
  911W        W 4979  22.033  17.435  10.430
  912W        W 4980  22.776  15.427   9.668
  913W        W 4981  22.746  14.775   8.778
  914W        W 4982  22.490  17.488  10.592
  915W        W 4983  22.976  15.190   8.834
  916W        W 4984  22.745  16.683   8.924
  917W        W 4985  23.058  18.094   9.674
  918W        W 4986  22.133  16.176   7.554
  919W        W 4987  23.243  14.677  10.273
  920W        W 4988  23.095  15.708   8.852
  921W        W 4989  23.101  15.577  10.151
  922W        W 4990  22.397  18.002  10.401
  923W        W 4991  22.509  17.363   7.531
  924W        W 4992  22.630  15.913  10.227
  925W        W 4993  23.148  16.900   8.179
  926W        W 4994  22.698  16.282   9.833
  927W        W 4995  22.363  14.954  10.243
  928W        W 4996  22.702  15.977   9.296
  929W        W 4997  21.874  17.550   9.963
  930W        W 4998  23.282  15.284   7.511
  931W        W 4999  22.417  16.100   8.292
  932W        W 5000  22.188  17.952   9.729
  933W        W 5001  22.112  16.227  10.663
  934W        W 5002  22.461  16.228   8.971
  935W        W 5003  22.755  17.167   8.620
  936W        W 5004  21.960  17.894   8.729
  937W        W 5005  22.469  17.081   8.265
  938W        W 5006  22.384  14.698  10.818
  939W        W 5007  21.978  17.105   9.310
  940W        W 5008  23.231  15.067   7.951
  941W        W 5009  23.035  16.551  10.800
  942W        W 5010  22.388  17.547  10.071
  943W        W 5011  22.979  17.530  10.794
  944W        W 5012  22.830  15.327   7.808
  945W        W 5013  22.990  16.169   8.969
  946W        W 5014  22.645  17.867   9.834
  947W        W 5015  22.253  16.656  10.431
  948W        W 5016  22.684  16.567   8.361
  949W        W 5017  23.055  17.574   9.756
  950W        W 5018  22.044  16.977   7.727
  951W        W 5019  22.209  16.477   8.616
  952W        W 5020  22.623  18.179   9.369
  953W        W 5021  22.838  17.664   8.483
  954W        W 5022  23.037  14.774   9.177
  955W        W 5023  22.100  17.596   7.725
  956W        W 5024  22.791  17.755  10.322
  957W        W 5025  22.268  16.578   8.018
  958W        W 5026  22.153  15.121   9.017
  959W        W 5027  21.953  14.940   8.094
  960W        W 5028  23.084  17.792   7.983
  961W        W 5029  22.166  17.955   9.154
  962W        W 5030  22.346  15.243  10.788
  963W        W 5031  22.077  15.843   8.121
  964W        W 5032  22.768  15.832   7.846
  965W        W 5033  22.874  16.440   9.372
  966W        W 5034  23.010  15.903   9.822
  967W        W 5035  22.046  15.819  10.253
  968W        W 5036  22.163  17.054   8.636
  969W        W 5037  22.310  16.351   9.526
  970W        W 5038  23.059  17.885   9.237
  971W        W 5039  22.519  17.081   9.132
  972W        W 5040  22.484  17.635   9.398
  973W        W 5041  22.611  16.086   7.393
  974W        W 5042  21.950  18.172  14.292
  975W        W 5043  22.326  17.065  13.815
  976W        W 5044  23.079  17.871  11.138
  977W        W 5045  23.162  16.023  12.121
  978W        W 5046  22.677  15.871  12.285
  979W        W 5047  21.992  15.339  14.037
  980W        W 5048  22.754  14.619  13.839
  981W        W 5049  22.033  15.104  13.512
  982W        W 5050  22.132  17.723  14.533
  983W        W 5051  22.086  15.896  12.958
  984W        W 5052  22.979  15.787  14.195
  985W        W 5053  22.556  16.795  13.181
  986W        W 5054  21.915  16.323  12.752
  987W        W 5055  22.951  16.295  13.944
  988W        W 5056  22.838  17.522  12.643
  989W        W 5057  21.937  15.835  14.503
  990W        W 5058  22.350  14.952  12.100
  991W        W 5059  22.877  17.210  13.099
  992W        W 5060  22.373  18.106  11.302
  993W        W 5061  22.766  18.152  11.978
  994W        W 5062  22.563  14.906  13.404
  995W        W 5063  22.601  17.738  11.619
  996W        W 5064  21.972  15.237  12.218
  997W        W 5065  22.216  17.461  12.607
  998W        W 5066  21.972  17.595  13.105
  999W        W 5067  22.763  17.167  13.585
 1000W        W 5068  23.136  16.527  12.204
 1001W        W 5069  23.158  14.932  13.297
 1002W        W 5070  22.606  16.566  11.062
 1003W        W 5071  22.261  15.599  11.241
 1004W        W 5072  22.323  17.555  12.035
 1005W        W 5073  21.878  16.289  11.875
 1006W        W 5074  22.989  16.704  13.448
 1007W        W 5075  22.413  15.878  13.404
 1008W        W 5076  22.398  15.754  14.326
 1009W        W 5077  22.288  14.671  12.485
 1010W        W 5078  22.591  17.942  12.558
 1011W        W 5079  23.249  15.659  11.544
 1012W        W 5080  22.818  14.943  14.208
 1013W        W 5081  22.906  14.662  11.540
 1014W        W 5082  22.284  16.648  12.722
 1015W        W 5083  22.598  15.486  12.791
 1016W        W 5084  22.152  16.686  13.565
 1017W        W 5085  22.205  15.363  13.076
 1018W        W 5086  21.943  15.642  13.405
 1019W        W 5087  22.470  15.058  11.289
 1020W        W 5088  22.602  17.832  10.947
 1021W        W 5089  22.808  15.075  11.953
 1022W        W 5090  22.813  15.303  10.978
 1023W        W 5091  21.882  16.621  13.127
 1024W        W 5092  22.854  14.754  11.055
 1025W        W 5093  23.150  16.823  13.914
 1026W        W 5094  23.077  15.391  12.922
 1027W        W 5095  22.503  15.347  12.320
 1028W        W 5096  22.289  18.059  11.996
 1029W        W 5097  22.656  16.874  11.480
 1030W        W 5098  21.936  17.994  13.793
 1031W        W 5099  22.353  17.220  13.325
 1032W        W 5100  21.920  18.066  11.557
 1033W        W 5101  23.182  17.359  11.212
 1034W        W 5102  22.905  15.585  11.929
 1035W        W 5103  22.004  14.814  11.224
 1036W        W 5104  23.290  17.133  13.514
 1037W        W 5105  23.089  17.049  12.606
 1038W        W 5106  22.831  17.001  11.004
 1039W        W 5107  22.072  17.242  11.772
 1040W        W 5108  22.576  16.312  14.214
 1041W        W 5109  23.280  14.872  14.400
 1042W        W 5110  23.184  14.782  12.037
 1043W        W 5111  22.188  14.791  13.119
 1044W        W 5112  22.236  15.754  12.489
 1045W        W 5113  22.347  15.360  11.709
 1046W        W 5114  22.606  15.009  12.829
 1047W        W 5115  21.868  15.271  11.247
 1048W        W 5116  22.654  16.660  13.808
 1049W        W 5117  22.025  16.644  10.980
 1050W        W 5118  22.760  17.055  14.106
 1051W        W 5119  22.281  16.222  13.737
 1052W        W 5120  23.272  16.327  13.531
 1053W        W 5121  22.270  17.085  14.446
 1054W        W 5122  22.665  15.386  14.052
 1055W        W 5123  22.925  15.065  13.714
 1056W        W 5124  22.897  17.313  11.665
 1057W        W 5125  22.420  15.437  13.653
 1058W        W 5126  22.033  17.435  14.074
 1059W        W 5127  22.776  15.427  13.312
 1060W        W 5128  22.746  14.775  12.422
 1061W        W 5129  22.490  17.488  14.236
 1062W        W 5130  22.976  15.190  12.478
 1063W        W 5131  22.745  16.683  12.568
 1064W        W 5132  23.058  18.094  13.318
 1065W        W 5133  22.133  16.176  11.198
 1066W        W 5134  23.243  14.677  13.917
 1067W        W 5135  23.095  15.708  12.496
 1068W        W 5136  23.101  15.577  13.795
 1069W        W 5137  22.397  18.002  14.045
 1070W        W 5138  22.509  17.363  11.175
 1071W        W 5139  22.630  15.913  13.871
 1072W        W 5140  23.148  16.900  11.823
 1073W        W 5141  22.698  16.282  13.477
 1074W        W 5142  22.363  14.954  13.887
 1075W        W 5143  22.702  15.977  12.940
 1076W        W 5144  21.874  17.550  13.607
 1077W        W 5145  23.282  15.284  11.155
 1078W        W 5146  22.417  16.100  11.936
 1079W        W 5147  22.188  17.952  13.373
 1080W        W 5148  22.112  16.227  14.307
 1081W        W 5149  22.461  16.228  12.615
 1082W        W 5150  22.755  17.167  12.264
 1083W        W 5151  21.960  17.894  12.373
 1084W        W 5152  22.469  17.081  11.909
 1085W        W 5153  22.384  14.698  14.462
 1086W        W 5154  21.978  17.105  12.954
 1087W        W 5155  23.231  15.067  11.595
 1088W        W 5156  23.035  16.551  14.444
 1089W        W 5157  22.388  17.547  13.715
 1090W        W 5158  22.979  17.530  14.438
 1091W        W 5159  22.830  15.327  11.452
 1092W        W 5160  22.990  16.169  12.613
 1093W        W 5161  22.645  17.867  13.478
 1094W        W 5162  22.253  16.656  14.075
 1095W        W 5163  22.684  16.567  12.005
 1096W        W 5164  23.055  17.574  13.400
 1097W        W 5165  22.044  16.977  11.371
 1098W        W 5166  22.209  16.477  12.260
 1099W        W 5167  22.623  18.179  13.013
 1100W        W 5168  22.838  17.664  12.127
 1101W        W 5169  23.037  14.774  12.821
 1102W        W 5170  22.100  17.596  11.369
 1103W        W 5171  22.791  17.755  13.966
 1104W        W 5172  22.268  16.578  11.662
 1105W        W 5173  22.153  15.121  12.661
 1106W        W 5174  21.953  14.940  11.738
 1107W        W 5175  23.084  17.792  11.627
 1108W        W 5176  22.166  17.955  12.798
 1109W        W 5177  22.346  15.243  14.432
 1110W        W 5178  22.077  15.843  11.765
 1111W        W 5179  22.768  15.832  11.490
 1112W        W 5180  22.874  16.440  13.016
 1113W        W 5181  23.010  15.903  13.466
 1114W        W 5182  22.046  15.819  13.897
 1115W        W 5183  22.163  17.054  12.280
 1116W        W 5184  22.310  16.351  13.170
 1117W        W 5185  23.059  17.885  12.881
 1118W        W 5186  22.519  17.081  12.776
 1119W        W 5187  22.484  17.635  13.042
 1120W        W 5188  22.611  16.086  11.037
 1121W        W 5189  21.950  18.172  17.936
 1122W        W 5190  22.326  17.065  17.459
 1123W        W 5191  23.079  17.871  14.782
 1124W        W 5192  23.162  16.023  15.765
 1125W        W 5193  22.677  15.871  15.929
 1126W        W 5194  21.992  15.339  17.681
 1127W        W 5195  22.754  14.619  17.483
 1128W        W 5196  22.033  15.104  17.156
 1129W        W 5197  22.132  17.723  18.177
 1130W        W 5198  22.086  15.896  16.602
 1131W        W 5199  22.979  15.787  17.839
 1132W        W 5200  22.556  16.795  16.825
 1133W        W 5201  21.915  16.323  16.396
 1134W        W 5202  22.951  16.295  17.588
 1135W        W 5203  22.838  17.522  16.287
 1136W        W 5204  21.937  15.835  18.147
 1137W        W 5205  22.350  14.952  15.744
 1138W        W 5206  22.877  17.210  16.743
 1139W        W 5207  22.373  18.106  14.946
 1140W        W 5208  22.766  18.152  15.622
 1141W        W 5209  22.563  14.906  17.048
 1142W        W 5210  22.601  17.738  15.263
 1143W        W 5211  21.972  15.237  15.862
 1144W        W 5212  22.216  17.461  16.251
 1145W        W 5213  21.972  17.595  16.749
 1146W        W 5214  22.763  17.167  17.229
 1147W        W 5215  23.136  16.527  15.848
 1148W        W 5216  23.158  14.932  16.941
 1149W        W 5217  22.606  16.566  14.706
 1150W        W 5218  22.261  15.599  14.885
 1151W        W 5219  22.323  17.555  15.679
 1152W        W 5220  21.878  16.289  15.519
 1153W        W 5221  22.989  16.704  17.092
 1154W        W 5222  22.413  15.878  17.048
 1155W        W 5223  22.398  15.754  17.970
 1156W        W 5224  22.288  14.671  16.129
 1157W        W 5225  22.591  17.942  16.202
 1158W        W 5226  23.249  15.659  15.188
 1159W        W 5227  22.818  14.943  17.852
 1160W        W 5228  22.906  14.662  15.184
 1161W        W 5229  22.284  16.648  16.366
 1162W        W 5230  22.598  15.486  16.435
 1163W        W 5231  22.152  16.686  17.209
 1164W        W 5232  22.205  15.363  16.720
 1165W        W 5233  21.943  15.642  17.049
 1166W        W 5234  22.470  15.058  14.933
 1167W        W 5235  22.602  17.832  14.591
 1168W        W 5236  22.808  15.075  15.597
 1169W        W 5237  22.813  15.303  14.622
 1170W        W 5238  21.882  16.621  16.771
 1171W        W 5239  22.854  14.754  14.699
 1172W        W 5240  23.150  16.823  17.558
 1173W        W 5241  23.077  15.391  16.566
 1174W        W 5242  22.503  15.347  15.964
 1175W        W 5243  22.289  18.059  15.640
 1176W        W 5244  22.656  16.874  15.124
 1177W        W 5245  21.936  17.994  17.437
 1178W        W 5246  22.353  17.220  16.969
 1179W        W 5247  21.920  18.066  15.201
 1180W        W 5248  23.182  17.359  14.856
 1181W        W 5249  22.905  15.585  15.573
 1182W        W 5250  22.004  14.814  14.868
 1183W        W 5251  23.290  17.133  17.158
 1184W        W 5252  23.089  17.049  16.250
 1185W        W 5253  22.831  17.001  14.648
 1186W        W 5254  22.072  17.242  15.416
 1187W        W 5255  22.576  16.312  17.858
 1188W        W 5256  23.280  14.872  18.044
 1189W        W 5257  23.184  14.782  15.681
 1190W        W 5258  22.188  14.791  16.763
 1191W        W 5259  22.236  15.754  16.133
 1192W        W 5260  22.347  15.360  15.353
 1193W        W 5261  22.606  15.009  16.473
 1194W        W 5262  21.868  15.271  14.891
 1195W        W 5263  22.654  16.660  17.452
 1196W        W 5264  22.025  16.644  14.624
 1197W        W 5265  22.760  17.055  17.750
 1198W        W 5266  22.281  16.222  17.381
 1199W        W 5267  23.272  16.327  17.175
 1200W        W 5268  22.270  17.085  18.090
 1201W        W 5269  22.665  15.386  17.696
 1202W        W 5270  22.925  15.065  17.358
 1203W        W 5271  22.897  17.313  15.309
 1204W        W 5272  22.420  15.437  17.297
 1205W        W 5273  22.033  17.435  17.718
 1206W        W 5274  22.776  15.427  16.956
 1207W        W 5275  22.746  14.775  16.066
 1208W        W 5276  22.490  17.488  17.880
 1209W        W 5277  22.976  15.190  16.122
 1210W        W 5278  22.745  16.683  16.212
 1211W        W 5279  23.058  18.094  16.962
 1212W        W 5280  22.133  16.176  14.842
 1213W        W 5281  23.243  14.677  17.561
 1214W        W 5282  23.095  15.708  16.140
 1215W        W 5283  23.101  15.577  17.439
 1216W        W 5284  22.397  18.002  17.689
 1217W        W 5285  22.509  17.363  14.819
 1218W        W 5286  22.630  15.913  17.515
 1219W        W 5287  23.148  16.900  15.467
 1220W        W 5288  22.698  16.282  17.121
 1221W        W 5289  22.363  14.954  17.531
 1222W        W 5290  22.702  15.977  16.584
 1223W        W 5291  21.874  17.550  17.251
 1224W        W 5292  23.282  15.284  14.799
 1225W        W 5293  22.417  16.100  15.580
 1226W        W 5294  22.188  17.952  17.017
 1227W        W 5295  22.112  16.227  17.951
 1228W        W 5296  22.461  16.228  16.259
 1229W        W 5297  22.755  17.167  15.908
 1230W        W 5298  21.960  17.894  16.017
 1231W        W 5299  22.469  17.081  15.553
 1232W        W 5300  22.384  14.698  18.106
 1233W        W 5301  21.978  17.105  16.598
 1234W        W 5302  23.231  15.067  15.239
 1235W        W 5303  23.035  16.551  18.088
 1236W        W 5304  22.388  17.547  17.359
 1237W        W 5305  22.979  17.530  18.082
 1238W        W 5306  22.830  15.327  15.096
 1239W        W 5307  22.990  16.169  16.257
 1240W        W 5308  22.645  17.867  17.122
 1241W        W 5309  22.253  16.656  17.719
 1242W        W 5310  22.684  16.567  15.649
 1243W        W 5311  23.055  17.574  17.044
 1244W        W 5312  22.044  16.977  15.015
 1245W        W 5313  22.209  16.477  15.904
 1246W        W 5314  22.623  18.179  16.657
 1247W        W 5315  22.838  17.664  15.771
 1248W        W 5316  23.037  14.774  16.465
 1249W        W 5317  22.100  17.596  15.013
 1250W        W 5318  22.791  17.755  17.610
 1251W        W 5319  22.268  16.578  15.306
 1252W        W 5320  22.153  15.121  16.305
 1253W        W 5321  21.953  14.940  15.382
 1254W        W 5322  23.084  17.792  15.271
 1255W        W 5323  22.166  17.955  16.442
 1256W        W 5324  22.346  15.243  18.076
 1257W        W 5325  22.077  15.843  15.409
 1258W        W 5326  22.768  15.832  15.134
 1259W        W 5327  22.874  16.440  16.660
 1260W        W 5328  23.010  15.903  17.110
 1261W        W 5329  22.046  15.819  17.541
 1262W        W 5330  22.163  17.054  15.924
 1263W        W 5331  22.310  16.351  16.814
 1264W        W 5332  23.059  17.885  16.525
 1265W        W 5333  22.519  17.081  16.420
 1266W        W 5334  22.484  17.635  16.686
 1267W        W 5335  22.611  16.086  14.681
 1268W        W 5336  21.950  18.172  21.580
 1269W        W 5337  22.326  17.065  21.103
 1270W        W 5338  23.079  17.871  18.426
 1271W        W 5339  23.162  16.023  19.409
 1272W        W 5340  22.677  15.871  19.573
 1273W        W 5341  21.992  15.339  21.325
 1274W        W 5342  22.754  14.619  21.127
 1275W        W 5343  22.033  15.104  20.800
 1276W        W 5344  22.132  17.723  21.821
 1277W        W 5345  22.086  15.896  20.246
 1278W        W 5346  22.979  15.787  21.483
 1279W        W 5347  22.556  16.795  20.469
 1280W        W 5348  21.915  16.323  20.040
 1281W        W 5349  22.951  16.295  21.232
 1282W        W 5350  22.838  17.522  19.931
 1283W        W 5351  21.937  15.835  21.791
 1284W        W 5352  22.350  14.952  19.388
 1285W        W 5353  22.877  17.210  20.387
 1286W        W 5354  22.373  18.106  18.590
 1287W        W 5355  22.766  18.152  19.266
 1288W        W 5356  22.563  14.906  20.692
 1289W        W 5357  22.601  17.738  18.907
 1290W        W 5358  21.972  15.237  19.506
 1291W        W 5359  22.216  17.461  19.895
 1292W        W 5360  21.972  17.595  20.393
 1293W        W 5361  22.763  17.167  20.873
 1294W        W 5362  23.136  16.527  19.492
 1295W        W 5363  23.158  14.932  20.585
 1296W        W 5364  22.606  16.566  18.350
 1297W        W 5365  22.261  15.599  18.529
 1298W        W 5366  22.323  17.555  19.323
 1299W        W 5367  21.878  16.289  19.163
 1300W        W 5368  22.989  16.704  20.736
 1301W        W 5369  22.413  15.878  20.692
 1302W        W 5370  22.398  15.754  21.614
 1303W        W 5371  22.288  14.671  19.773
 1304W        W 5372  22.591  17.942  19.846
 1305W        W 5373  23.249  15.659  18.832
 1306W        W 5374  22.818  14.943  21.496
 1307W        W 5375  22.906  14.662  18.828
 1308W        W 5376  22.284  16.648  20.010
 1309W        W 5377  22.598  15.486  20.079
 1310W        W 5378  22.152  16.686  20.853
 1311W        W 5379  22.205  15.363  20.364
 1312W        W 5380  21.943  15.642  20.693
 1313W        W 5381  22.470  15.058  18.577
 1314W        W 5382  22.602  17.832  18.235
 1315W        W 5383  22.808  15.075  19.241
 1316W        W 5384  22.813  15.303  18.266
 1317W        W 5385  21.882  16.621  20.415
 1318W        W 5386  22.854  14.754  18.343
 1319W        W 5387  23.150  16.823  21.202
 1320W        W 5388  23.077  15.391  20.210
 1321W        W 5389  22.503  15.347  19.608
 1322W        W 5390  22.289  18.059  19.284
 1323W        W 5391  22.656  16.874  18.768
 1324W        W 5392  21.936  17.994  21.081
 1325W        W 5393  22.353  17.220  20.613
 1326W        W 5394  21.920  18.066  18.845
 1327W        W 5395  23.182  17.359  18.500
 1328W        W 5396  22.905  15.585  19.217
 1329W        W 5397  22.004  14.814  18.512
 1330W        W 5398  23.290  17.133  20.802
 1331W        W 5399  23.089  17.049  19.894
 1332W        W 5400  22.831  17.001  18.292
 1333W        W 5401  22.072  17.242  19.060
 1334W        W 5402  22.576  16.312  21.502
 1335W        W 5403  23.280  14.872  21.688
 1336W        W 5404  23.184  14.782  19.325
 1337W        W 5405  22.188  14.791  20.407
 1338W        W 5406  22.236  15.754  19.777
 1339W        W 5407  22.347  15.360  18.997
 1340W        W 5408  22.606  15.009  20.117
 1341W        W 5409  21.868  15.271  18.535
 1342W        W 5410  22.654  16.660  21.096
 1343W        W 5411  22.025  16.644  18.268
 1344W        W 5412  22.760  17.055  21.394
 1345W        W 5413  22.281  16.222  21.025
 1346W        W 5414  23.272  16.327  20.819
 1347W        W 5415  22.270  17.085  21.734
 1348W        W 5416  22.665  15.386  21.340
 1349W        W 5417  22.925  15.065  21.002
 1350W        W 5418  22.897  17.313  18.953
 1351W        W 5419  22.420  15.437  20.941
 1352W        W 5420  22.033  17.435  21.362
 1353W        W 5421  22.776  15.427  20.600
 1354W        W 5422  22.746  14.775  19.710
 1355W        W 5423  22.490  17.488  21.524
 1356W        W 5424  22.976  15.190  19.766
 1357W        W 5425  22.745  16.683  19.856
 1358W        W 5426  23.058  18.094  20.606
 1359W        W 5427  22.133  16.176  18.486
 1360W        W 5428  23.243  14.677  21.205
 1361W        W 5429  23.095  15.708  19.784
 1362W        W 5430  23.101  15.577  21.083
 1363W        W 5431  22.397  18.002  21.333
 1364W        W 5432  22.509  17.363  18.463
 1365W        W 5433  22.630  15.913  21.159
 1366W        W 5434  23.148  16.900  19.111
 1367W        W 5435  22.698  16.282  20.765
 1368W        W 5436  22.363  14.954  21.175
 1369W        W 5437  22.702  15.977  20.228
 1370W        W 5438  21.874  17.550  20.895
 1371W        W 5439  23.282  15.284  18.443
 1372W        W 5440  22.417  16.100  19.224
 1373W        W 5441  22.188  17.952  20.661
 1374W        W 5442  22.112  16.227  21.595
 1375W        W 5443  22.461  16.228  19.903
 1376W        W 5444  22.755  17.167  19.552
 1377W        W 5445  21.960  17.894  19.661
 1378W        W 5446  22.469  17.081  19.197
 1379W        W 5447  22.384  14.698  21.750
 1380W        W 5448  21.978  17.105  20.242
 1381W        W 5449  23.231  15.067  18.883
 1382W        W 5450  23.035  16.551  21.732
 1383W        W 5451  22.388  17.547  21.003
 1384W        W 5452  22.979  17.530  21.726
 1385W        W 5453  22.830  15.327  18.740
 1386W        W 5454  22.990  16.169  19.901
 1387W        W 5455  22.645  17.867  20.766
 1388W        W 5456  22.253  16.656  21.363
 1389W        W 5457  22.684  16.567  19.293
 1390W        W 5458  23.055  17.574  20.688
 1391W        W 5459  22.044  16.977  18.659
 1392W        W 5460  22.209  16.477  19.548
 1393W        W 5461  22.623  18.179  20.301
 1394W        W 5462  22.838  17.664  19.415
 1395W        W 5463  23.037  14.774  20.109
 1396W        W 5464  22.100  17.596  18.657
 1397W        W 5465  22.791  17.755  21.254
 1398W        W 5466  22.268  16.578  18.950
 1399W        W 5467  22.153  15.121  19.949
 1400W        W 5468  21.953  14.940  19.026
 1401W        W 5469  23.084  17.792  18.915
 1402W        W 5470  22.166  17.955  20.086
 1403W        W 5471  22.346  15.243  21.720
 1404W        W 5472  22.077  15.843  19.053
 1405W        W 5473  22.768  15.832  18.778
 1406W        W 5474  22.874  16.440  20.304
 1407W        W 5475  23.010  15.903  20.754
 1408W        W 5476  22.046  15.819  21.185
 1409W        W 5477  22.163  17.054  19.568
 1410W        W 5478  22.310  16.351  20.458
 1411W        W 5479  23.059  17.885  20.169
 1412W        W 5480  22.519  17.081  20.064
 1413W        W 5481  22.484  17.635  20.330
 1414W        W 5482  22.611  16.086  18.325
 1415W        W 5483  23.079  17.871  22.071
 1416W        W 5484  23.162  16.023  23.054
 1417W        W 5485  22.677  15.871  23.218
 1418W        W 5486  22.350  14.952  23.033
 1419W        W 5487  22.373  18.106  22.235
 1420W        W 5488  22.766  18.152  22.911
 1421W        W 5489  22.601  17.738  22.552
 1422W        W 5490  22.606  16.566  21.995
 1423W        W 5491  22.261  15.599  22.174
 1424W        W 5492  22.323  17.555  22.968
 1425W        W 5493  21.878  16.289  22.808
 1426W        W 5494  23.249  15.659  22.477
 1427W        W 5495  22.906  14.662  22.473
 1428W        W 5496  22.470  15.058  22.222
 1429W        W 5497  22.602  17.832  21.880
 1430W        W 5498  22.808  15.075  22.886
 1431W        W 5499  22.813  15.303  21.911
 1432W        W 5500  22.854  14.754  21.988
 1433W        W 5501  22.503  15.347  23.253
 1434W        W 5502  22.289  18.059  22.929
 1435W        W 5503  22.656  16.874  22.413
 1436W        W 5504  21.920  18.066  22.490
 1437W        W 5505  23.182  17.359  22.145
 1438W        W 5506  22.905  15.585  22.862
 1439W        W 5507  22.004  14.814  22.157
 1440W        W 5508  22.831  17.001  21.937
 1441W        W 5509  22.072  17.242  22.705
 1442W        W 5510  23.184  14.782  22.970
 1443W        W 5511  22.347  15.360  22.642
 1444W        W 5512  21.868  15.271  22.180
 1445W        W 5513  22.025  16.644  21.913
 1446W        W 5514  22.897  17.313  22.598
 1447W        W 5515  22.133  16.176  22.131
 1448W        W 5516  22.509  17.363  22.108
 1449W        W 5517  23.148  16.900  22.756
 1450W        W 5518  23.282  15.284  22.088
 1451W        W 5519  22.417  16.100  22.869
 1452W        W 5520  22.755  17.167  23.197
 1453W        W 5521  21.960  17.894  23.306
 1454W        W 5522  22.469  17.081  22.842
 1455W        W 5523  23.231  15.067  22.528
 1456W        W 5524  22.830  15.327  22.385
 1457W        W 5525  22.044  16.977  22.304
 1458W        W 5526  22.209  16.477  23.193
 1459W        W 5527  22.838  17.664  23.060
 1460W        W 5528  22.100  17.596  22.302
 1461W        W 5529  22.268  16.578  22.595
 1462W        W 5530  21.953  14.940  22.671
 1463W        W 5531  23.084  17.792  22.560
 1464W        W 5532  22.077  15.843  22.698
 1465W        W 5533  22.768  15.832  22.423
 1466W        W 5534  22.163  17.054  23.213
 1467W        W 5535  22.611  16.086  21.970
 1468W        W 5536  21.950  21.816   3.359
 1469W        W 5537  22.326  20.709   2.882
 1470W        W 5538  23.162  19.667   1.188
 1471W        W 5539  22.677  19.515   1.352
 1472W        W 5540  21.992  18.983   3.104
 1473W        W 5541  22.754  18.263   2.906
 1474W        W 5542  22.033  18.748   2.579
 1475W        W 5543  22.132  21.367   3.600
 1476W        W 5544  22.086  19.540   2.025
 1477W        W 5545  22.979  19.431   3.262
 1478W        W 5546  22.556  20.439   2.248
 1479W        W 5547  21.915  19.967   1.819
 1480W        W 5548  22.951  19.939   3.011
 1481W        W 5549  22.838  21.166   1.710
 1482W        W 5550  21.937  19.479   3.570
 1483W        W 5551  22.350  18.596   1.167
 1484W        W 5552  22.877  20.854   2.166
 1485W        W 5553  22.373  21.750   0.369
 1486W        W 5554  22.766  21.796   1.045
 1487W        W 5555  22.563  18.550   2.471
 1488W        W 5556  22.601  21.382   0.686
 1489W        W 5557  21.972  18.881   1.285
 1490W        W 5558  22.216  21.105   1.674
 1491W        W 5559  21.972  21.239   2.172
 1492W        W 5560  22.763  20.811   2.652
 1493W        W 5561  23.136  20.171   1.271
 1494W        W 5562  23.158  18.576   2.364
 1495W        W 5563  22.606  20.210   0.129
 1496W        W 5564  22.261  19.243   0.308
 1497W        W 5565  22.323  21.199   1.102
 1498W        W 5566  21.878  19.933   0.942
 1499W        W 5567  22.989  20.348   2.515
 1500W        W 5568  22.413  19.522   2.471
 1501W        W 5569  22.398  19.398   3.393
 1502W        W 5570  22.288  18.315   1.552
 1503W        W 5571  22.591  21.586   1.625
 1504W        W 5572  23.249  19.303   0.611
 1505W        W 5573  22.818  18.587   3.275
 1506W        W 5574  22.906  18.306   0.607
 1507W        W 5575  22.284  20.292   1.789
 1508W        W 5576  22.598  19.130   1.858
 1509W        W 5577  22.152  20.330   2.632
 1510W        W 5578  22.205  19.007   2.143
 1511W        W 5579  21.943  19.286   2.472
 1512W        W 5580  22.470  18.702   0.356
 1513W        W 5581  22.602  21.476   0.014
 1514W        W 5582  22.808  18.719   1.020
 1515W        W 5583  22.813  18.947   0.045
 1516W        W 5584  21.882  20.265   2.194
 1517W        W 5585  22.854  18.398   0.122
 1518W        W 5586  23.150  20.467   2.981
 1519W        W 5587  23.077  19.035   1.989
 1520W        W 5588  22.503  18.991   1.387
 1521W        W 5589  22.289  21.703   1.063
 1522W        W 5590  22.656  20.518   0.547
 1523W        W 5591  21.936  21.638   2.860
 1524W        W 5592  22.353  20.864   2.392
 1525W        W 5593  21.920  21.710   0.624
 1526W        W 5594  23.182  21.003   0.279
 1527W        W 5595  22.905  19.229   0.996
 1528W        W 5596  22.004  18.458   0.291
 1529W        W 5597  23.290  20.777   2.581
 1530W        W 5598  23.089  20.693   1.673
 1531W        W 5599  22.831  20.645   0.071
 1532W        W 5600  22.072  20.886   0.839
 1533W        W 5601  22.576  19.956   3.281
 1534W        W 5602  23.280  18.516   3.467
 1535W        W 5603  23.184  18.426   1.104
 1536W        W 5604  22.188  18.435   2.186
 1537W        W 5605  22.236  19.398   1.556
 1538W        W 5606  22.347  19.004   0.776
 1539W        W 5607  22.606  18.653   1.896
 1540W        W 5608  21.868  18.915   0.314
 1541W        W 5609  22.654  20.304   2.875
 1542W        W 5610  22.025  20.288   0.047
 1543W        W 5611  22.760  20.699   3.173
 1544W        W 5612  22.281  19.866   2.804
 1545W        W 5613  23.272  19.971   2.598
 1546W        W 5614  22.270  20.729   3.513
 1547W        W 5615  22.665  19.030   3.119
 1548W        W 5616  22.925  18.709   2.781
 1549W        W 5617  22.897  20.957   0.732
 1550W        W 5618  22.420  19.081   2.720
 1551W        W 5619  22.033  21.079   3.141
 1552W        W 5620  22.776  19.071   2.379
 1553W        W 5621  22.746  18.419   1.489
 1554W        W 5622  22.490  21.132   3.303
 1555W        W 5623  22.976  18.834   1.545
 1556W        W 5624  22.745  20.327   1.635
 1557W        W 5625  23.058  21.738   2.385
 1558W        W 5626  22.133  19.820   0.265
 1559W        W 5627  23.243  18.321   2.984
 1560W        W 5628  23.095  19.352   1.563
 1561W        W 5629  23.101  19.221   2.862
 1562W        W 5630  22.397  21.646   3.112
 1563W        W 5631  22.509  21.007   0.242
 1564W        W 5632  22.630  19.557   2.938
 1565W        W 5633  23.148  20.544   0.890
 1566W        W 5634  22.698  19.926   2.544
 1567W        W 5635  22.363  18.598   2.954
 1568W        W 5636  22.702  19.621   2.007
 1569W        W 5637  23.071  19.435   0.129
 1570W        W 5638  21.874  21.194   2.674
 1571W        W 5639  23.282  18.928   0.222
 1572W        W 5640  22.417  19.744   1.003
 1573W        W 5641  22.188  21.596   2.440
 1574W        W 5642  22.112  19.871   3.374
 1575W        W 5643  22.461  19.872   1.682
 1576W        W 5644  22.755  20.811   1.331
 1577W        W 5645  21.960  21.538   1.440
 1578W        W 5646  22.469  20.725   0.976
 1579W        W 5647  22.384  18.342   3.529
 1580W        W 5648  21.978  20.749   2.021
 1581W        W 5649  23.231  18.711   0.662
 1582W        W 5650  23.035  20.195   3.511
 1583W        W 5651  22.388  21.191   2.782
 1584W        W 5652  22.979  21.174   3.505
 1585W        W 5653  22.830  18.971   0.519
 1586W        W 5654  22.990  19.813   1.680
 1587W        W 5655  22.645  21.511   2.545
 1588W        W 5656  22.253  20.300   3.142
 1589W        W 5657  22.684  20.211   1.072
 1590W        W 5658  23.055  21.218   2.467
 1591W        W 5659  22.044  20.621   0.438
 1592W        W 5660  22.209  20.121   1.327
 1593W        W 5661  22.623  21.823   2.080
 1594W        W 5662  22.838  21.308   1.194
 1595W        W 5663  23.037  18.418   1.888
 1596W        W 5664  22.100  21.240   0.436
 1597W        W 5665  22.791  21.399   3.033
 1598W        W 5666  22.268  20.222   0.729
 1599W        W 5667  22.153  18.765   1.728
 1600W        W 5668  21.953  18.584   0.805
 1601W        W 5669  23.084  21.436   0.694
 1602W        W 5670  22.166  21.599   1.865
 1603W        W 5671  22.346  18.887   3.499
 1604W        W 5672  22.077  19.487   0.832
 1605W        W 5673  22.768  19.476   0.557
 1606W        W 5674  22.874  20.084   2.083
 1607W        W 5675  23.010  19.547   2.533
 1608W        W 5676  22.046  19.463   2.964
 1609W        W 5677  22.163  20.698   1.347
 1610W        W 5678  22.310  19.995   2.237
 1611W        W 5679  23.059  21.529   1.948
 1612W        W 5680  22.519  20.725   1.843
 1613W        W 5681  22.484  21.279   2.109
 1614W        W 5682  22.611  19.730   0.104
 1615W        W 5683  21.950  21.816   7.003
 1616W        W 5684  22.326  20.709   6.526
 1617W        W 5685  23.079  21.515   3.849
 1618W        W 5686  23.162  19.667   4.832
 1619W        W 5687  22.677  19.515   4.996
 1620W        W 5688  21.992  18.983   6.748
 1621W        W 5689  22.754  18.263   6.550
 1622W        W 5690  22.033  18.748   6.223
 1623W        W 5691  22.132  21.367   7.244
 1624W        W 5692  22.086  19.540   5.669
 1625W        W 5693  22.979  19.431   6.906
 1626W        W 5694  22.556  20.439   5.892
 1627W        W 5695  21.915  19.967   5.463
 1628W        W 5696  22.951  19.939   6.655
 1629W        W 5697  22.838  21.166   5.354
 1630W        W 5698  21.937  19.479   7.214
 1631W        W 5699  22.350  18.596   4.811
 1632W        W 5700  22.877  20.854   5.810
 1633W        W 5701  22.373  21.750   4.013
 1634W        W 5702  22.766  21.796   4.689
 1635W        W 5703  22.563  18.550   6.115
 1636W        W 5704  22.601  21.382   4.330
 1637W        W 5705  21.972  18.881   4.929
 1638W        W 5706  22.216  21.105   5.318
 1639W        W 5707  21.972  21.239   5.816
 1640W        W 5708  22.763  20.811   6.296
 1641W        W 5709  23.136  20.171   4.915
 1642W        W 5710  23.158  18.576   6.008
 1643W        W 5711  22.606  20.210   3.773
 1644W        W 5712  22.261  19.243   3.952
 1645W        W 5713  22.323  21.199   4.746
 1646W        W 5714  21.878  19.933   4.586
 1647W        W 5715  22.989  20.348   6.159
 1648W        W 5716  22.413  19.522   6.115
 1649W        W 5717  22.398  19.398   7.037
 1650W        W 5718  22.288  18.315   5.196
 1651W        W 5719  22.591  21.586   5.269
 1652W        W 5720  23.249  19.303   4.255
 1653W        W 5721  22.818  18.587   6.919
 1654W        W 5722  22.906  18.306   4.251
 1655W        W 5723  22.284  20.292   5.433
 1656W        W 5724  22.598  19.130   5.502
 1657W        W 5725  22.152  20.330   6.276
 1658W        W 5726  22.205  19.007   5.787
 1659W        W 5727  21.943  19.286   6.116
 1660W        W 5728  22.470  18.702   4.000
 1661W        W 5729  22.602  21.476   3.658
 1662W        W 5730  22.808  18.719   4.664
 1663W        W 5731  22.813  18.947   3.689
 1664W        W 5732  21.882  20.265   5.838
 1665W        W 5733  22.854  18.398   3.766
 1666W        W 5734  23.150  20.467   6.625
 1667W        W 5735  23.077  19.035   5.633
 1668W        W 5736  22.503  18.991   5.031
 1669W        W 5737  22.289  21.703   4.707
 1670W        W 5738  22.656  20.518   4.191
 1671W        W 5739  21.936  21.638   6.504
 1672W        W 5740  22.353  20.864   6.036
 1673W        W 5741  21.920  21.710   4.268
 1674W        W 5742  23.182  21.003   3.923
 1675W        W 5743  22.905  19.229   4.640
 1676W        W 5744  22.004  18.458   3.935
 1677W        W 5745  23.290  20.777   6.225
 1678W        W 5746  23.089  20.693   5.317
 1679W        W 5747  22.831  20.645   3.715
 1680W        W 5748  22.072  20.886   4.483
 1681W        W 5749  22.576  19.956   6.925
 1682W        W 5750  23.280  18.516   7.111
 1683W        W 5751  23.184  18.426   4.748
 1684W        W 5752  22.188  18.435   5.830
 1685W        W 5753  22.236  19.398   5.200
 1686W        W 5754  22.347  19.004   4.420
 1687W        W 5755  22.606  18.653   5.540
 1688W        W 5756  21.868  18.915   3.958
 1689W        W 5757  22.654  20.304   6.519
 1690W        W 5758  22.025  20.288   3.691
 1691W        W 5759  22.760  20.699   6.817
 1692W        W 5760  22.281  19.866   6.448
 1693W        W 5761  23.272  19.971   6.242
 1694W        W 5762  22.270  20.729   7.157
 1695W        W 5763  22.665  19.030   6.763
 1696W        W 5764  22.925  18.709   6.425
 1697W        W 5765  22.897  20.957   4.376
 1698W        W 5766  22.420  19.081   6.364
 1699W        W 5767  22.033  21.079   6.785
 1700W        W 5768  22.776  19.071   6.023
 1701W        W 5769  22.746  18.419   5.133
 1702W        W 5770  22.490  21.132   6.947
 1703W        W 5771  22.976  18.834   5.189
 1704W        W 5772  22.745  20.327   5.279
 1705W        W 5773  23.058  21.738   6.029
 1706W        W 5774  22.133  19.820   3.909
 1707W        W 5775  23.243  18.321   6.628
 1708W        W 5776  23.095  19.352   5.207
 1709W        W 5777  23.101  19.221   6.506
 1710W        W 5778  22.397  21.646   6.756
 1711W        W 5779  22.509  21.007   3.886
 1712W        W 5780  22.630  19.557   6.582
 1713W        W 5781  23.148  20.544   4.534
 1714W        W 5782  22.698  19.926   6.188
 1715W        W 5783  22.363  18.598   6.598
 1716W        W 5784  22.702  19.621   5.651
 1717W        W 5785  21.874  21.194   6.318
 1718W        W 5786  23.282  18.928   3.866
 1719W        W 5787  22.417  19.744   4.647
 1720W        W 5788  22.188  21.596   6.084
 1721W        W 5789  22.112  19.871   7.018
 1722W        W 5790  22.461  19.872   5.326
 1723W        W 5791  22.755  20.811   4.975
 1724W        W 5792  21.960  21.538   5.084
 1725W        W 5793  22.469  20.725   4.620
 1726W        W 5794  22.384  18.342   7.173
 1727W        W 5795  21.978  20.749   5.665
 1728W        W 5796  23.231  18.711   4.306
 1729W        W 5797  23.035  20.195   7.155
 1730W        W 5798  22.388  21.191   6.426
 1731W        W 5799  22.979  21.174   7.149
 1732W        W 5800  22.830  18.971   4.163
 1733W        W 5801  22.990  19.813   5.324
 1734W        W 5802  22.645  21.511   6.189
 1735W        W 5803  22.253  20.300   6.786
 1736W        W 5804  22.684  20.211   4.716
 1737W        W 5805  23.055  21.218   6.111
 1738W        W 5806  22.044  20.621   4.082
 1739W        W 5807  22.209  20.121   4.971
 1740W        W 5808  22.623  21.823   5.724
 1741W        W 5809  22.838  21.308   4.838
 1742W        W 5810  23.037  18.418   5.532
 1743W        W 5811  22.100  21.240   4.080
 1744W        W 5812  22.791  21.399   6.677
 1745W        W 5813  22.268  20.222   4.373
 1746W        W 5814  22.153  18.765   5.372
 1747W        W 5815  21.953  18.584   4.449
 1748W        W 5816  23.084  21.436   4.338
 1749W        W 5817  22.166  21.599   5.509
 1750W        W 5818  22.346  18.887   7.143
 1751W        W 5819  22.077  19.487   4.476
 1752W        W 5820  22.768  19.476   4.201
 1753W        W 5821  22.874  20.084   5.727
 1754W        W 5822  23.010  19.547   6.177
 1755W        W 5823  22.046  19.463   6.608
 1756W        W 5824  22.163  20.698   4.991
 1757W        W 5825  22.310  19.995   5.881
 1758W        W 5826  23.059  21.529   5.592
 1759W        W 5827  22.519  20.725   5.487
 1760W        W 5828  22.484  21.279   5.753
 1761W        W 5829  22.611  19.730   3.748
 1762W        W 5830  21.950  21.816  10.648
 1763W        W 5831  22.326  20.709  10.171
 1764W        W 5832  23.079  21.515   7.494
 1765W        W 5833  23.162  19.667   8.477
 1766W        W 5834  22.677  19.515   8.641
 1767W        W 5835  21.992  18.983  10.393
 1768W        W 5836  22.754  18.263  10.195
 1769W        W 5837  22.033  18.748   9.868
 1770W        W 5838  22.132  21.367  10.889
 1771W        W 5839  22.086  19.540   9.314
 1772W        W 5840  22.979  19.431  10.551
 1773W        W 5841  22.556  20.439   9.537
 1774W        W 5842  21.915  19.967   9.108
 1775W        W 5843  22.951  19.939  10.300
 1776W        W 5844  22.838  21.166   8.999
 1777W        W 5845  21.937  19.479  10.859
 1778W        W 5846  22.350  18.596   8.456
 1779W        W 5847  22.877  20.854   9.455
 1780W        W 5848  22.373  21.750   7.658
 1781W        W 5849  22.766  21.796   8.334
 1782W        W 5850  22.563  18.550   9.760
 1783W        W 5851  22.601  21.382   7.975
 1784W        W 5852  21.972  18.881   8.574
 1785W        W 5853  22.216  21.105   8.963
 1786W        W 5854  21.972  21.239   9.461
 1787W        W 5855  22.763  20.811   9.941
 1788W        W 5856  23.136  20.171   8.560
 1789W        W 5857  23.158  18.576   9.653
 1790W        W 5858  22.606  20.210   7.418
 1791W        W 5859  22.261  19.243   7.597
 1792W        W 5860  22.323  21.199   8.391
 1793W        W 5861  21.878  19.933   8.231
 1794W        W 5862  22.989  20.348   9.804
 1795W        W 5863  22.413  19.522   9.760
 1796W        W 5864  22.398  19.398  10.682
 1797W        W 5865  22.288  18.315   8.841
 1798W        W 5866  22.591  21.586   8.914
 1799W        W 5867  23.249  19.303   7.900
 1800W        W 5868  22.818  18.587  10.564
 1801W        W 5869  22.906  18.306   7.896
 1802W        W 5870  22.284  20.292   9.078
 1803W        W 5871  22.598  19.130   9.147
 1804W        W 5872  22.152  20.330   9.921
 1805W        W 5873  22.205  19.007   9.432
 1806W        W 5874  21.943  19.286   9.761
 1807W        W 5875  22.470  18.702   7.645
 1808W        W 5876  22.602  21.476   7.303
 1809W        W 5877  22.808  18.719   8.309
 1810W        W 5878  22.813  18.947   7.334
 1811W        W 5879  21.882  20.265   9.483
 1812W        W 5880  22.854  18.398   7.411
 1813W        W 5881  23.150  20.467  10.270
 1814W        W 5882  23.077  19.035   9.278
 1815W        W 5883  22.503  18.991   8.676
 1816W        W 5884  22.289  21.703   8.352
 1817W        W 5885  22.656  20.518   7.836
 1818W        W 5886  21.936  21.638  10.149
 1819W        W 5887  22.353  20.864   9.681
 1820W        W 5888  21.920  21.710   7.913
 1821W        W 5889  23.182  21.003   7.568
 1822W        W 5890  22.905  19.229   8.285
 1823W        W 5891  22.004  18.458   7.580
 1824W        W 5892  23.290  20.777   9.870
 1825W        W 5893  23.089  20.693   8.962
 1826W        W 5894  22.831  20.645   7.360
 1827W        W 5895  22.072  20.886   8.128
 1828W        W 5896  22.576  19.956  10.570
 1829W        W 5897  23.280  18.516  10.756
 1830W        W 5898  23.184  18.426   8.393
 1831W        W 5899  22.188  18.435   9.475
 1832W        W 5900  22.236  19.398   8.845
 1833W        W 5901  22.347  19.004   8.065
 1834W        W 5902  22.606  18.653   9.185
 1835W        W 5903  21.868  18.915   7.603
 1836W        W 5904  22.654  20.304  10.164
 1837W        W 5905  22.025  20.288   7.336
 1838W        W 5906  22.760  20.699  10.462
 1839W        W 5907  22.281  19.866  10.093
 1840W        W 5908  23.272  19.971   9.887
 1841W        W 5909  22.270  20.729  10.802
 1842W        W 5910  22.665  19.030  10.408
 1843W        W 5911  22.925  18.709  10.070
 1844W        W 5912  22.897  20.957   8.021
 1845W        W 5913  22.420  19.081  10.009
 1846W        W 5914  22.033  21.079  10.430
 1847W        W 5915  22.776  19.071   9.668
 1848W        W 5916  22.746  18.419   8.778
 1849W        W 5917  22.490  21.132  10.592
 1850W        W 5918  22.976  18.834   8.834
 1851W        W 5919  22.745  20.327   8.924
 1852W        W 5920  23.058  21.738   9.674
 1853W        W 5921  22.133  19.820   7.554
 1854W        W 5922  23.243  18.321  10.273
 1855W        W 5923  23.095  19.352   8.852
 1856W        W 5924  23.101  19.221  10.151
 1857W        W 5925  22.397  21.646  10.401
 1858W        W 5926  22.509  21.007   7.531
 1859W        W 5927  22.630  19.557  10.227
 1860W        W 5928  23.148  20.544   8.179
 1861W        W 5929  22.698  19.926   9.833
 1862W        W 5930  22.363  18.598  10.243
 1863W        W 5931  22.702  19.621   9.296
 1864W        W 5932  21.874  21.194   9.963
 1865W        W 5933  23.282  18.928   7.511
 1866W        W 5934  22.417  19.744   8.292
 1867W        W 5935  22.188  21.596   9.729
 1868W        W 5936  22.112  19.871  10.663
 1869W        W 5937  22.461  19.872   8.971
 1870W        W 5938  22.755  20.811   8.620
 1871W        W 5939  21.960  21.538   8.729
 1872W        W 5940  22.469  20.725   8.265
 1873W        W 5941  22.384  18.342  10.818
 1874W        W 5942  21.978  20.749   9.310
 1875W        W 5943  23.231  18.711   7.951
 1876W        W 5944  23.035  20.195  10.800
 1877W        W 5945  22.388  21.191  10.071
 1878W        W 5946  22.979  21.174  10.794
 1879W        W 5947  22.830  18.971   7.808
 1880W        W 5948  22.990  19.813   8.969
 1881W        W 5949  22.645  21.511   9.834
 1882W        W 5950  22.253  20.300  10.431
 1883W        W 5951  22.684  20.211   8.361
 1884W        W 5952  23.055  21.218   9.756
 1885W        W 5953  22.044  20.621   7.727
 1886W        W 5954  22.209  20.121   8.616
 1887W        W 5955  22.623  21.823   9.369
 1888W        W 5956  22.838  21.308   8.483
 1889W        W 5957  23.037  18.418   9.177
 1890W        W 5958  22.100  21.240   7.725
 1891W        W 5959  22.791  21.399  10.322
 1892W        W 5960  22.268  20.222   8.018
 1893W        W 5961  22.153  18.765   9.017
 1894W        W 5962  21.953  18.584   8.094
 1895W        W 5963  23.084  21.436   7.983
 1896W        W 5964  22.166  21.599   9.154
 1897W        W 5965  22.346  18.887  10.788
 1898W        W 5966  22.077  19.487   8.121
 1899W        W 5967  22.768  19.476   7.846
 1900W        W 5968  22.874  20.084   9.372
 1901W        W 5969  23.010  19.547   9.822
 1902W        W 5970  22.046  19.463  10.253
 1903W        W 5971  22.163  20.698   8.636
 1904W        W 5972  22.310  19.995   9.526
 1905W        W 5973  23.059  21.529   9.237
 1906W        W 5974  22.519  20.725   9.132
 1907W        W 5975  22.484  21.279   9.398
 1908W        W 5976  22.611  19.730   7.393
 1909W        W 5977  21.950  21.816  14.292
 1910W        W 5978  22.326  20.709  13.815
 1911W        W 5979  23.079  21.515  11.138
 1912W        W 5980  23.162  19.667  12.121
 1913W        W 5981  22.677  19.515  12.285
 1914W        W 5982  21.992  18.983  14.037
 1915W        W 5983  22.754  18.263  13.839
 1916W        W 5984  22.033  18.748  13.512
 1917W        W 5985  22.132  21.367  14.533
 1918W        W 5986  22.086  19.540  12.958
 1919W        W 5987  22.979  19.431  14.195
 1920W        W 5988  22.556  20.439  13.181
 1921W        W 5989  21.915  19.967  12.752
 1922W        W 5990  22.951  19.939  13.944
 1923W        W 5991  22.838  21.166  12.643
 1924W        W 5992  21.937  19.479  14.503
 1925W        W 5993  22.350  18.596  12.100
 1926W        W 5994  22.877  20.854  13.099
 1927W        W 5995  22.373  21.750  11.302
 1928W        W 5996  22.766  21.796  11.978
 1929W        W 5997  22.563  18.550  13.404
 1930W        W 5998  22.601  21.382  11.619
 1931W        W 5999  21.972  18.881  12.218
 1932W        W 6000  22.216  21.105  12.607
 1933W        W 6001  21.972  21.239  13.105
 1934W        W 6002  22.763  20.811  13.585
 1935W        W 6003  23.136  20.171  12.204
 1936W        W 6004  23.158  18.576  13.297
 1937W        W 6005  22.606  20.210  11.062
 1938W        W 6006  22.261  19.243  11.241
 1939W        W 6007  22.323  21.199  12.035
 1940W        W 6008  21.878  19.933  11.875
 1941W        W 6009  22.989  20.348  13.448
 1942W        W 6010  22.413  19.522  13.404
 1943W        W 6011  22.398  19.398  14.326
 1944W        W 6012  22.288  18.315  12.485
 1945W        W 6013  22.591  21.586  12.558
 1946W        W 6014  23.249  19.303  11.544
 1947W        W 6015  22.818  18.587  14.208
 1948W        W 6016  22.906  18.306  11.540
 1949W        W 6017  22.284  20.292  12.722
 1950W        W 6018  22.598  19.130  12.791
 1951W        W 6019  22.152  20.330  13.565
 1952W        W 6020  22.205  19.007  13.076
 1953W        W 6021  21.943  19.286  13.405
 1954W        W 6022  22.470  18.702  11.289
 1955W        W 6023  22.602  21.476  10.947
 1956W        W 6024  22.808  18.719  11.953
 1957W        W 6025  22.813  18.947  10.978
 1958W        W 6026  21.882  20.265  13.127
 1959W        W 6027  22.854  18.398  11.055
 1960W        W 6028  23.150  20.467  13.914
 1961W        W 6029  23.077  19.035  12.922
 1962W        W 6030  22.503  18.991  12.320
 1963W        W 6031  22.289  21.703  11.996
 1964W        W 6032  22.656  20.518  11.480
 1965W        W 6033  21.936  21.638  13.793
 1966W        W 6034  22.353  20.864  13.325
 1967W        W 6035  21.920  21.710  11.557
 1968W        W 6036  23.182  21.003  11.212
 1969W        W 6037  22.905  19.229  11.929
 1970W        W 6038  22.004  18.458  11.224
 1971W        W 6039  23.290  20.777  13.514
 1972W        W 6040  23.089  20.693  12.606
 1973W        W 6041  22.831  20.645  11.004
 1974W        W 6042  22.072  20.886  11.772
 1975W        W 6043  22.576  19.956  14.214
 1976W        W 6044  23.280  18.516  14.400
 1977W        W 6045  23.184  18.426  12.037
 1978W        W 6046  22.188  18.435  13.119
 1979W        W 6047  22.236  19.398  12.489
 1980W        W 6048  22.347  19.004  11.709
 1981W        W 6049  22.606  18.653  12.829
 1982W        W 6050  21.868  18.915  11.247
 1983W        W 6051  22.654  20.304  13.808
 1984W        W 6052  22.025  20.288  10.980
 1985W        W 6053  22.760  20.699  14.106
 1986W        W 6054  22.281  19.866  13.737
 1987W        W 6055  23.272  19.971  13.531
 1988W        W 6056  22.270  20.729  14.446
 1989W        W 6057  22.665  19.030  14.052
 1990W        W 6058  22.925  18.709  13.714
 1991W        W 6059  22.897  20.957  11.665
 1992W        W 6060  22.420  19.081  13.653
 1993W        W 6061  22.033  21.079  14.074
 1994W        W 6062  22.776  19.071  13.312
 1995W        W 6063  22.746  18.419  12.422
 1996W        W 6064  22.490  21.132  14.236
 1997W        W 6065  22.976  18.834  12.478
 1998W        W 6066  22.745  20.327  12.568
 1999W        W 6067  23.058  21.738  13.318
 2000W        W 6068  22.133  19.820  11.198
 2001W        W 6069  23.243  18.321  13.917
 2002W        W 6070  23.095  19.352  12.496
 2003W        W 6071  23.101  19.221  13.795
 2004W        W 6072  22.397  21.646  14.045
 2005W        W 6073  22.509  21.007  11.175
 2006W        W 6074  22.630  19.557  13.871
 2007W        W 6075  23.148  20.544  11.823
 2008W        W 6076  22.698  19.926  13.477
 2009W        W 6077  22.363  18.598  13.887
 2010W        W 6078  22.702  19.621  12.940
 2011W        W 6079  21.874  21.194  13.607
 2012W        W 6080  23.282  18.928  11.155
 2013W        W 6081  22.417  19.744  11.936
 2014W        W 6082  22.188  21.596  13.373
 2015W        W 6083  22.112  19.871  14.307
 2016W        W 6084  22.461  19.872  12.615
 2017W        W 6085  22.755  20.811  12.264
 2018W        W 6086  21.960  21.538  12.373
 2019W        W 6087  22.469  20.725  11.909
 2020W        W 6088  22.384  18.342  14.462
 2021W        W 6089  21.978  20.749  12.954
 2022W        W 6090  23.231  18.711  11.595
 2023W        W 6091  23.035  20.195  14.444
 2024W        W 6092  22.388  21.191  13.715
 2025W        W 6093  22.979  21.174  14.438
 2026W        W 6094  22.830  18.971  11.452
 2027W        W 6095  22.990  19.813  12.613
 2028W        W 6096  22.645  21.511  13.478
 2029W        W 6097  22.253  20.300  14.075
 2030W        W 6098  22.684  20.211  12.005
 2031W        W 6099  23.055  21.218  13.400
 2032W        W 6100  22.044  20.621  11.371
 2033W        W 6101  22.209  20.121  12.260
 2034W        W 6102  22.623  21.823  13.013
 2035W        W 6103  22.838  21.308  12.127
 2036W        W 6104  23.037  18.418  12.821
 2037W        W 6105  22.100  21.240  11.369
 2038W        W 6106  22.791  21.399  13.966
 2039W        W 6107  22.268  20.222  11.662
 2040W        W 6108  22.153  18.765  12.661
 2041W        W 6109  21.953  18.584  11.738
 2042W        W 6110  23.084  21.436  11.627
 2043W        W 6111  22.166  21.599  12.798
 2044W        W 6112  22.346  18.887  14.432
 2045W        W 6113  22.077  19.487  11.765
 2046W        W 6114  22.768  19.476  11.490
 2047W        W 6115  22.874  20.084  13.016
 2048W        W 6116  23.010  19.547  13.466
 2049W        W 6117  22.046  19.463  13.897
 2050W        W 6118  22.163  20.698  12.280
 2051W        W 6119  22.310  19.995  13.170
 2052W        W 6120  23.059  21.529  12.881
 2053W        W 6121  22.519  20.725  12.776
 2054W        W 6122  22.484  21.279  13.042
 2055W        W 6123  22.611  19.730  11.037
 2056W        W 6124  21.950  21.816  17.936
 2057W        W 6125  22.326  20.709  17.459
 2058W        W 6126  23.079  21.515  14.782
 2059W        W 6127  23.162  19.667  15.765
 2060W        W 6128  22.677  19.515  15.929
 2061W        W 6129  21.992  18.983  17.681
 2062W        W 6130  22.754  18.263  17.483
 2063W        W 6131  22.033  18.748  17.156
 2064W        W 6132  22.132  21.367  18.177
 2065W        W 6133  22.086  19.540  16.602
 2066W        W 6134  22.979  19.431  17.839
 2067W        W 6135  22.556  20.439  16.825
 2068W        W 6136  21.915  19.967  16.396
 2069W        W 6137  22.951  19.939  17.588
 2070W        W 6138  22.838  21.166  16.287
 2071W        W 6139  21.937  19.479  18.147
 2072W        W 6140  22.350  18.596  15.744
 2073W        W 6141  22.877  20.854  16.743
 2074W        W 6142  22.373  21.750  14.946
 2075W        W 6143  22.766  21.796  15.622
 2076W        W 6144  22.563  18.550  17.048
 2077W        W 6145  22.601  21.382  15.263
 2078W        W 6146  21.972  18.881  15.862
 2079W        W 6147  22.216  21.105  16.251
 2080W        W 6148  21.972  21.239  16.749
 2081W        W 6149  22.763  20.811  17.229
 2082W        W 6150  23.136  20.171  15.848
 2083W        W 6151  23.158  18.576  16.941
 2084W        W 6152  22.606  20.210  14.706
 2085W        W 6153  22.261  19.243  14.885
 2086W        W 6154  22.323  21.199  15.679
 2087W        W 6155  21.878  19.933  15.519
 2088W        W 6156  22.989  20.348  17.092
 2089W        W 6157  22.413  19.522  17.048
 2090W        W 6158  22.398  19.398  17.970
 2091W        W 6159  22.288  18.315  16.129
 2092W        W 6160  22.591  21.586  16.202
 2093W        W 6161  23.249  19.303  15.188
 2094W        W 6162  22.818  18.587  17.852
 2095W        W 6163  22.906  18.306  15.184
 2096W        W 6164  22.284  20.292  16.366
 2097W        W 6165  22.598  19.130  16.435
 2098W        W 6166  22.152  20.330  17.209
 2099W        W 6167  22.205  19.007  16.720
 2100W        W 6168  21.943  19.286  17.049
 2101W        W 6169  22.470  18.702  14.933
 2102W        W 6170  22.602  21.476  14.591
 2103W        W 6171  22.808  18.719  15.597
 2104W        W 6172  22.813  18.947  14.622
 2105W        W 6173  21.882  20.265  16.771
 2106W        W 6174  22.854  18.398  14.699
 2107W        W 6175  23.150  20.467  17.558
 2108W        W 6176  23.077  19.035  16.566
 2109W        W 6177  22.503  18.991  15.964
 2110W        W 6178  22.289  21.703  15.640
 2111W        W 6179  22.656  20.518  15.124
 2112W        W 6180  21.936  21.638  17.437
 2113W        W 6181  22.353  20.864  16.969
 2114W        W 6182  21.920  21.710  15.201
 2115W        W 6183  23.182  21.003  14.856
 2116W        W 6184  22.905  19.229  15.573
 2117W        W 6185  22.004  18.458  14.868
 2118W        W 6186  23.290  20.777  17.158
 2119W        W 6187  23.089  20.693  16.250
 2120W        W 6188  22.831  20.645  14.648
 2121W        W 6189  22.072  20.886  15.416
 2122W        W 6190  22.576  19.956  17.858
 2123W        W 6191  23.280  18.516  18.044
 2124W        W 6192  23.184  18.426  15.681
 2125W        W 6193  22.188  18.435  16.763
 2126W        W 6194  22.236  19.398  16.133
 2127W        W 6195  22.347  19.004  15.353
 2128W        W 6196  22.606  18.653  16.473
 2129W        W 6197  21.868  18.915  14.891
 2130W        W 6198  22.654  20.304  17.452
 2131W        W 6199  22.025  20.288  14.624
 2132W        W 6200  22.760  20.699  17.750
 2133W        W 6201  22.281  19.866  17.381
 2134W        W 6202  23.272  19.971  17.175
 2135W        W 6203  22.270  20.729  18.090
 2136W        W 6204  22.665  19.030  17.696
 2137W        W 6205  22.925  18.709  17.358
 2138W        W 6206  22.897  20.957  15.309
 2139W        W 6207  22.420  19.081  17.297
 2140W        W 6208  22.033  21.079  17.718
 2141W        W 6209  22.776  19.071  16.956
 2142W        W 6210  22.746  18.419  16.066
 2143W        W 6211  22.490  21.132  17.880
 2144W        W 6212  22.976  18.834  16.122
 2145W        W 6213  22.745  20.327  16.212
 2146W        W 6214  23.058  21.738  16.962
 2147W        W 6215  22.133  19.820  14.842
 2148W        W 6216  23.243  18.321  17.561
 2149W        W 6217  23.095  19.352  16.140
 2150W        W 6218  23.101  19.221  17.439
 2151W        W 6219  22.397  21.646  17.689
 2152W        W 6220  22.509  21.007  14.819
 2153W        W 6221  22.630  19.557  17.515
 2154W        W 6222  23.148  20.544  15.467
 2155W        W 6223  22.698  19.926  17.121
 2156W        W 6224  22.363  18.598  17.531
 2157W        W 6225  22.702  19.621  16.584
 2158W        W 6226  21.874  21.194  17.251
 2159W        W 6227  23.282  18.928  14.799
 2160W        W 6228  22.417  19.744  15.580
 2161W        W 6229  22.188  21.596  17.017
 2162W        W 6230  22.112  19.871  17.951
 2163W        W 6231  22.461  19.872  16.259
 2164W        W 6232  22.755  20.811  15.908
 2165W        W 6233  21.960  21.538  16.017
 2166W        W 6234  22.469  20.725  15.553
 2167W        W 6235  22.384  18.342  18.106
 2168W        W 6236  21.978  20.749  16.598
 2169W        W 6237  23.231  18.711  15.239
 2170W        W 6238  23.035  20.195  18.088
 2171W        W 6239  22.388  21.191  17.359
 2172W        W 6240  22.979  21.174  18.082
 2173W        W 6241  22.830  18.971  15.096
 2174W        W 6242  22.990  19.813  16.257
 2175W        W 6243  22.645  21.511  17.122
 2176W        W 6244  22.253  20.300  17.719
 2177W        W 6245  22.684  20.211  15.649
 2178W        W 6246  23.055  21.218  17.044
 2179W        W 6247  22.044  20.621  15.015
 2180W        W 6248  22.209  20.121  15.904
 2181W        W 6249  22.623  21.823  16.657
 2182W        W 6250  22.838  21.308  15.771
 2183W        W 6251  23.037  18.418  16.465
 2184W        W 6252  22.100  21.240  15.013
 2185W        W 6253  22.791  21.399  17.610
 2186W        W 6254  22.268  20.222  15.306
 2187W        W 6255  22.153  18.765  16.305
 2188W        W 6256  21.953  18.584  15.382
 2189W        W 6257  23.084  21.436  15.271
 2190W        W 6258  22.166  21.599  16.442
 2191W        W 6259  22.346  18.887  18.076
 2192W        W 6260  22.077  19.487  15.409
 2193W        W 6261  22.768  19.476  15.134
 2194W        W 6262  22.874  20.084  16.660
 2195W        W 6263  23.010  19.547  17.110
 2196W        W 6264  22.046  19.463  17.541
 2197W        W 6265  22.163  20.698  15.924
 2198W        W 6266  22.310  19.995  16.814
 2199W        W 6267  23.059  21.529  16.525
 2200W        W 6268  22.519  20.725  16.420
 2201W        W 6269  22.484  21.279  16.686
 2202W        W 6270  22.611  19.730  14.681
 2203W        W 6271  21.950  21.816  21.580
 2204W        W 6272  22.326  20.709  21.103
 2205W        W 6273  23.079  21.515  18.426
 2206W        W 6274  23.162  19.667  19.409
 2207W        W 6275  22.677  19.515  19.573
 2208W        W 6276  21.992  18.983  21.325
 2209W        W 6277  22.754  18.263  21.127
 2210W        W 6278  22.033  18.748  20.800
 2211W        W 6279  22.132  21.367  21.821
 2212W        W 6280  22.086  19.540  20.246
 2213W        W 6281  22.979  19.431  21.483
 2214W        W 6282  22.556  20.439  20.469
 2215W        W 6283  21.915  19.967  20.040
 2216W        W 6284  22.951  19.939  21.232
 2217W        W 6285  22.838  21.166  19.931
 2218W        W 6286  21.937  19.479  21.791
 2219W        W 6287  22.350  18.596  19.388
 2220W        W 6288  22.877  20.854  20.387
 2221W        W 6289  22.373  21.750  18.590
 2222W        W 6290  22.766  21.796  19.266
 2223W        W 6291  22.563  18.550  20.692
 2224W        W 6292  22.601  21.382  18.907
 2225W        W 6293  21.972  18.881  19.506
 2226W        W 6294  22.216  21.105  19.895
 2227W        W 6295  21.972  21.239  20.393
 2228W        W 6296  22.763  20.811  20.873
 2229W        W 6297  23.136  20.171  19.492
 2230W        W 6298  23.158  18.576  20.585
 2231W        W 6299  22.606  20.210  18.350
 2232W        W 6300  22.261  19.243  18.529
 2233W        W 6301  22.323  21.199  19.323
 2234W        W 6302  21.878  19.933  19.163
 2235W        W 6303  22.989  20.348  20.736
 2236W        W 6304  22.413  19.522  20.692
 2237W        W 6305  22.398  19.398  21.614
 2238W        W 6306  22.288  18.315  19.773
 2239W        W 6307  22.591  21.586  19.846
 2240W        W 6308  23.249  19.303  18.832
 2241W        W 6309  22.818  18.587  21.496
 2242W        W 6310  22.906  18.306  18.828
 2243W        W 6311  22.284  20.292  20.010
 2244W        W 6312  22.598  19.130  20.079
 2245W        W 6313  22.152  20.330  20.853
 2246W        W 6314  22.205  19.007  20.364
 2247W        W 6315  21.943  19.286  20.693
 2248W        W 6316  22.470  18.702  18.577
 2249W        W 6317  22.602  21.476  18.235
 2250W        W 6318  22.808  18.719  19.241
 2251W        W 6319  22.813  18.947  18.266
 2252W        W 6320  21.882  20.265  20.415
 2253W        W 6321  22.854  18.398  18.343
 2254W        W 6322  23.150  20.467  21.202
 2255W        W 6323  23.077  19.035  20.210
 2256W        W 6324  22.503  18.991  19.608
 2257W        W 6325  22.289  21.703  19.284
 2258W        W 6326  22.656  20.518  18.768
 2259W        W 6327  21.936  21.638  21.081
 2260W        W 6328  22.353  20.864  20.613
 2261W        W 6329  21.920  21.710  18.845
 2262W        W 6330  23.182  21.003  18.500
 2263W        W 6331  22.905  19.229  19.217
 2264W        W 6332  22.004  18.458  18.512
 2265W        W 6333  23.290  20.777  20.802
 2266W        W 6334  23.089  20.693  19.894
 2267W        W 6335  22.831  20.645  18.292
 2268W        W 6336  22.072  20.886  19.060
 2269W        W 6337  22.576  19.956  21.502
 2270W        W 6338  23.280  18.516  21.688
 2271W        W 6339  23.184  18.426  19.325
 2272W        W 6340  22.188  18.435  20.407
 2273W        W 6341  22.236  19.398  19.777
 2274W        W 6342  22.347  19.004  18.997
 2275W        W 6343  22.606  18.653  20.117
 2276W        W 6344  21.868  18.915  18.535
 2277W        W 6345  22.654  20.304  21.096
 2278W        W 6346  22.025  20.288  18.268
 2279W        W 6347  22.760  20.699  21.394
 2280W        W 6348  22.281  19.866  21.025
 2281W        W 6349  23.272  19.971  20.819
 2282W        W 6350  22.270  20.729  21.734
 2283W        W 6351  22.665  19.030  21.340
 2284W        W 6352  22.925  18.709  21.002
 2285W        W 6353  22.897  20.957  18.953
 2286W        W 6354  22.420  19.081  20.941
 2287W        W 6355  22.033  21.079  21.362
 2288W        W 6356  22.776  19.071  20.600
 2289W        W 6357  22.746  18.419  19.710
 2290W        W 6358  22.490  21.132  21.524
 2291W        W 6359  22.976  18.834  19.766
 2292W        W 6360  22.745  20.327  19.856
 2293W        W 6361  23.058  21.738  20.606
 2294W        W 6362  22.133  19.820  18.486
 2295W        W 6363  23.243  18.321  21.205
 2296W        W 6364  23.095  19.352  19.784
 2297W        W 6365  23.101  19.221  21.083
 2298W        W 6366  22.397  21.646  21.333
 2299W        W 6367  22.509  21.007  18.463
 2300W        W 6368  22.630  19.557  21.159
 2301W        W 6369  23.148  20.544  19.111
 2302W        W 6370  22.698  19.926  20.765
 2303W        W 6371  22.363  18.598  21.175
 2304W        W 6372  22.702  19.621  20.228
 2305W        W 6373  21.874  21.194  20.895
 2306W        W 6374  23.282  18.928  18.443
 2307W        W 6375  22.417  19.744  19.224
 2308W        W 6376  22.188  21.596  20.661
 2309W        W 6377  22.112  19.871  21.595
 2310W        W 6378  22.461  19.872  19.903
 2311W        W 6379  22.755  20.811  19.552
 2312W        W 6380  21.960  21.538  19.661
 2313W        W 6381  22.469  20.725  19.197
 2314W        W 6382  22.384  18.342  21.750
 2315W        W 6383  21.978  20.749  20.242
 2316W        W 6384  23.231  18.711  18.883
 2317W        W 6385  23.035  20.195  21.732
 2318W        W 6386  22.388  21.191  21.003
 2319W        W 6387  22.979  21.174  21.726
 2320W        W 6388  22.830  18.971  18.740
 2321W        W 6389  22.990  19.813  19.901
 2322W        W 6390  22.645  21.511  20.766
 2323W        W 6391  22.253  20.300  21.363
 2324W        W 6392  22.684  20.211  19.293
 2325W        W 6393  23.055  21.218  20.688
 2326W        W 6394  22.044  20.621  18.659
 2327W        W 6395  22.209  20.121  19.548
 2328W        W 6396  22.623  21.823  20.301
 2329W        W 6397  22.838  21.308  19.415
 2330W        W 6398  23.037  18.418  20.109
 2331W        W 6399  22.100  21.240  18.657
 2332W        W 6400  22.791  21.399  21.254
 2333W        W 6401  22.268  20.222  18.950
 2334W        W 6402  22.153  18.765  19.949
 2335W        W 6403  21.953  18.584  19.026
 2336W        W 6404  23.084  21.436  18.915
 2337W        W 6405  22.166  21.599  20.086
 2338W        W 6406  22.346  18.887  21.720
 2339W        W 6407  22.077  19.487  19.053
 2340W        W 6408  22.768  19.476  18.778
 2341W        W 6409  22.874  20.084  20.304
 2342W        W 6410  23.010  19.547  20.754
 2343W        W 6411  22.046  19.463  21.185
 2344W        W 6412  22.163  20.698  19.568
 2345W        W 6413  22.310  19.995  20.458
 2346W        W 6414  23.059  21.529  20.169
 2347W        W 6415  22.519  20.725  20.064
 2348W        W 6416  22.484  21.279  20.330
 2349W        W 6417  22.611  19.730  18.325
 2350W        W 6418  23.079  21.515  22.071
 2351W        W 6419  23.162  19.667  23.054
 2352W        W 6420  22.677  19.515  23.218
 2353W        W 6421  22.350  18.596  23.033
 2354W        W 6422  22.373  21.750  22.235
 2355W        W 6423  22.766  21.796  22.911
 2356W        W 6424  22.601  21.382  22.552
 2357W        W 6425  22.606  20.210  21.995
 2358W        W 6426  22.261  19.243  22.174
 2359W        W 6427  22.323  21.199  22.968
 2360W        W 6428  21.878  19.933  22.808
 2361W        W 6429  23.249  19.303  22.477
 2362W        W 6430  22.906  18.306  22.473
 2363W        W 6431  22.470  18.702  22.222
 2364W        W 6432  22.602  21.476  21.880
 2365W        W 6433  22.808  18.719  22.886
 2366W        W 6434  22.813  18.947  21.911
 2367W        W 6435  22.854  18.398  21.988
 2368W        W 6436  22.503  18.991  23.253
 2369W        W 6437  22.289  21.703  22.929
 2370W        W 6438  22.656  20.518  22.413
 2371W        W 6439  21.920  21.710  22.490
 2372W        W 6440  23.182  21.003  22.145
 2373W        W 6441  22.905  19.229  22.862
 2374W        W 6442  22.004  18.458  22.157
 2375W        W 6443  22.831  20.645  21.937
 2376W        W 6444  22.072  20.886  22.705
 2377W        W 6445  23.184  18.426  22.970
 2378W        W 6446  22.347  19.004  22.642
 2379W        W 6447  21.868  18.915  22.180
 2380W        W 6448  22.025  20.288  21.913
 2381W        W 6449  22.897  20.957  22.598
 2382W        W 6450  22.133  19.820  22.131
 2383W        W 6451  22.509  21.007  22.108
 2384W        W 6452  23.148  20.544  22.756
 2385W        W 6453  23.282  18.928  22.088
 2386W        W 6454  22.417  19.744  22.869
 2387W        W 6455  22.755  20.811  23.197
 2388W        W 6456  21.960  21.538  23.306
 2389W        W 6457  22.469  20.725  22.842
 2390W        W 6458  23.231  18.711  22.528
 2391W        W 6459  22.830  18.971  22.385
 2392W        W 6460  22.044  20.621  22.304
 2393W        W 6461  22.209  20.121  23.193
 2394W        W 6462  22.838  21.308  23.060
 2395W        W 6463  22.100  21.240  22.302
 2396W        W 6464  22.268  20.222  22.595
 2397W        W 6465  21.953  18.584  22.671
 2398W        W 6466  23.084  21.436  22.560
 2399W        W 6467  22.077  19.487  22.698
 2400W        W 6468  22.768  19.476  22.423
 2401W        W 6469  22.163  20.698  23.213
 2402W        W 6470  22.611  19.730  21.970
 2403W        W 6471  21.992  22.628   3.104
 2404W        W 6472  22.754  21.908   2.906
 2405W        W 6473  22.033  22.393   2.579
 2406W        W 6474  22.979  23.076   3.262
 2407W        W 6475  21.937  23.124   3.570
 2408W        W 6476  22.350  22.241   1.167
 2409W        W 6477  22.563  22.195   2.471
 2410W        W 6478  21.972  22.526   1.285
 2411W        W 6479  23.158  22.221   2.364
 2412W        W 6480  22.261  22.888   0.308
 2413W        W 6481  22.413  23.167   2.471
 2414W        W 6482  22.288  21.960   1.552
 2415W        W 6483  23.249  22.948   0.611
 2416W        W 6484  22.818  22.232   3.275
 2417W        W 6485  22.906  21.951   0.607
 2418W        W 6486  22.598  22.775   1.858
 2419W        W 6487  22.205  22.652   2.143
 2420W        W 6488  21.943  22.931   2.472
 2421W        W 6489  22.470  22.347   0.356
 2422W        W 6490  22.808  22.364   1.020
 2423W        W 6491  22.813  22.592   0.045
 2424W        W 6492  22.854  22.043   0.122
 2425W        W 6493  23.077  22.680   1.989
 2426W        W 6494  22.503  22.636   1.387
 2427W        W 6495  22.905  22.874   0.996
 2428W        W 6496  22.004  22.103   0.291
 2429W        W 6497  23.280  22.161   3.467
 2430W        W 6498  23.184  22.071   1.104
 2431W        W 6499  22.188  22.080   2.186
 2432W        W 6500  22.347  22.649   0.776
 2433W        W 6501  22.606  22.298   1.896
 2434W        W 6502  21.868  22.560   0.314
 2435W        W 6503  22.665  22.675   3.119
 2436W        W 6504  22.925  22.354   2.781
 2437W        W 6505  22.420  22.726   2.720
 2438W        W 6506  22.776  22.716   2.379
 2439W        W 6507  22.746  22.064   1.489
 2440W        W 6508  22.976  22.479   1.545
 2441W        W 6509  23.243  21.966   2.984
 2442W        W 6510  23.095  22.997   1.563
 2443W        W 6511  23.101  22.866   2.862
 2444W        W 6512  22.363  22.243   2.954
 2445W        W 6513  22.702  23.266   2.007
 2446W        W 6514  23.071  23.080   0.129
 2447W        W 6515  23.282  22.573   0.222
 2448W        W 6516  22.384  21.987   3.529
 2449W        W 6517  23.231  22.356   0.662
 2450W        W 6518  22.830  22.616   0.519
 2451W        W 6519  23.037  22.063   1.888
 2452W        W 6520  22.153  22.410   1.728
 2453W        W 6521  21.953  22.229   0.805
 2454W        W 6522  22.346  22.532   3.499
 2455W        W 6523  22.077  23.132   0.832
 2456W        W 6524  23.010  23.192   2.533
 2457W        W 6525  22.046  23.108   2.964
 2458W        W 6526  21.992  22.628   6.748
 2459W        W 6527  22.754  21.908   6.550
 2460W        W 6528  22.033  22.393   6.223
 2461W        W 6529  22.979  23.076   6.906
 2462W        W 6530  21.937  23.124   7.214
 2463W        W 6531  22.350  22.241   4.811
 2464W        W 6532  22.563  22.195   6.115
 2465W        W 6533  21.972  22.526   4.929
 2466W        W 6534  23.158  22.221   6.008
 2467W        W 6535  22.261  22.888   3.952
 2468W        W 6536  22.413  23.167   6.115
 2469W        W 6537  22.288  21.960   5.196
 2470W        W 6538  23.249  22.948   4.255
 2471W        W 6539  22.818  22.232   6.919
 2472W        W 6540  22.906  21.951   4.251
 2473W        W 6541  22.598  22.775   5.502
 2474W        W 6542  22.205  22.652   5.787
 2475W        W 6543  21.943  22.931   6.116
 2476W        W 6544  22.470  22.347   4.000
 2477W        W 6545  22.808  22.364   4.664
 2478W        W 6546  22.813  22.592   3.689
 2479W        W 6547  22.854  22.043   3.766
 2480W        W 6548  23.077  22.680   5.633
 2481W        W 6549  22.503  22.636   5.031
 2482W        W 6550  22.905  22.874   4.640
 2483W        W 6551  22.004  22.103   3.935
 2484W        W 6552  23.280  22.161   7.111
 2485W        W 6553  23.184  22.071   4.748
 2486W        W 6554  22.188  22.080   5.830
 2487W        W 6555  22.347  22.649   4.420
 2488W        W 6556  22.606  22.298   5.540
 2489W        W 6557  21.868  22.560   3.958
 2490W        W 6558  22.665  22.675   6.763
 2491W        W 6559  22.925  22.354   6.425
 2492W        W 6560  22.420  22.726   6.364
 2493W        W 6561  22.776  22.716   6.023
 2494W        W 6562  22.746  22.064   5.133
 2495W        W 6563  22.976  22.479   5.189
 2496W        W 6564  23.243  21.966   6.628
 2497W        W 6565  23.095  22.997   5.207
 2498W        W 6566  23.101  22.866   6.506
 2499W        W 6567  22.363  22.243   6.598
 2500W        W 6568  22.702  23.266   5.651
 2501W        W 6569  23.282  22.573   3.866
 2502W        W 6570  22.384  21.987   7.173
 2503W        W 6571  23.231  22.356   4.306
 2504W        W 6572  22.830  22.616   4.163
 2505W        W 6573  23.037  22.063   5.532
 2506W        W 6574  22.153  22.410   5.372
 2507W        W 6575  21.953  22.229   4.449
 2508W        W 6576  22.346  22.532   7.143
 2509W        W 6577  22.077  23.132   4.476
 2510W        W 6578  23.010  23.192   6.177
 2511W        W 6579  22.046  23.108   6.608
 2512W        W 6580  21.992  22.628  10.393
 2513W        W 6581  22.754  21.908  10.195
 2514W        W 6582  22.033  22.393   9.868
 2515W        W 6583  22.979  23.076  10.551
 2516W        W 6584  21.937  23.124  10.859
 2517W        W 6585  22.350  22.241   8.456
 2518W        W 6586  22.563  22.195   9.760
 2519W        W 6587  21.972  22.526   8.574
 2520W        W 6588  23.158  22.221   9.653
 2521W        W 6589  22.261  22.888   7.597
 2522W        W 6590  22.413  23.167   9.760
 2523W        W 6591  22.288  21.960   8.841
 2524W        W 6592  23.249  22.948   7.900
 2525W        W 6593  22.818  22.232  10.564
 2526W        W 6594  22.906  21.951   7.896
 2527W        W 6595  22.598  22.775   9.147
 2528W        W 6596  22.205  22.652   9.432
 2529W        W 6597  21.943  22.931   9.761
 2530W        W 6598  22.470  22.347   7.645
 2531W        W 6599  22.808  22.364   8.309
 2532W        W 6600  22.813  22.592   7.334
 2533W        W 6601  22.854  22.043   7.411
 2534W        W 6602  23.077  22.680   9.278
 2535W        W 6603  22.503  22.636   8.676
 2536W        W 6604  22.905  22.874   8.285
 2537W        W 6605  22.004  22.103   7.580
 2538W        W 6606  23.280  22.161  10.756
 2539W        W 6607  23.184  22.071   8.393
 2540W        W 6608  22.188  22.080   9.475
 2541W        W 6609  22.347  22.649   8.065
 2542W        W 6610  22.606  22.298   9.185
 2543W        W 6611  21.868  22.560   7.603
 2544W        W 6612  22.665  22.675  10.408
 2545W        W 6613  22.925  22.354  10.070
 2546W        W 6614  22.420  22.726  10.009
 2547W        W 6615  22.776  22.716   9.668
 2548W        W 6616  22.746  22.064   8.778
 2549W        W 6617  22.976  22.479   8.834
 2550W        W 6618  23.243  21.966  10.273
 2551W        W 6619  23.095  22.997   8.852
 2552W        W 6620  23.101  22.866  10.151
 2553W        W 6621  22.363  22.243  10.243
 2554W        W 6622  22.702  23.266   9.296
 2555W        W 6623  23.282  22.573   7.511
 2556W        W 6624  22.384  21.987  10.818
 2557W        W 6625  23.231  22.356   7.951
 2558W        W 6626  22.830  22.616   7.808
 2559W        W 6627  23.037  22.063   9.177
 2560W        W 6628  22.153  22.410   9.017
 2561W        W 6629  21.953  22.229   8.094
 2562W        W 6630  22.346  22.532  10.788
 2563W        W 6631  22.077  23.132   8.121
 2564W        W 6632  23.010  23.192   9.822
 2565W        W 6633  22.046  23.108  10.253
 2566W        W 6634  21.992  22.628  14.037
 2567W        W 6635  22.754  21.908  13.839
 2568W        W 6636  22.033  22.393  13.512
 2569W        W 6637  22.979  23.076  14.195
 2570W        W 6638  21.937  23.124  14.503
 2571W        W 6639  22.350  22.241  12.100
 2572W        W 6640  22.563  22.195  13.404
 2573W        W 6641  21.972  22.526  12.218
 2574W        W 6642  23.158  22.221  13.297
 2575W        W 6643  22.261  22.888  11.241
 2576W        W 6644  22.413  23.167  13.404
 2577W        W 6645  22.288  21.960  12.485
 2578W        W 6646  23.249  22.948  11.544
 2579W        W 6647  22.818  22.232  14.208
 2580W        W 6648  22.906  21.951  11.540
 2581W        W 6649  22.598  22.775  12.791
 2582W        W 6650  22.205  22.652  13.076
 2583W        W 6651  21.943  22.931  13.405
 2584W        W 6652  22.470  22.347  11.289
 2585W        W 6653  22.808  22.364  11.953
 2586W        W 6654  22.813  22.592  10.978
 2587W        W 6655  22.854  22.043  11.055
 2588W        W 6656  23.077  22.680  12.922
 2589W        W 6657  22.503  22.636  12.320
 2590W        W 6658  22.905  22.874  11.929
 2591W        W 6659  22.004  22.103  11.224
 2592W        W 6660  23.280  22.161  14.400
 2593W        W 6661  23.184  22.071  12.037
 2594W        W 6662  22.188  22.080  13.119
 2595W        W 6663  22.347  22.649  11.709
 2596W        W 6664  22.606  22.298  12.829
 2597W        W 6665  21.868  22.560  11.247
 2598W        W 6666  22.665  22.675  14.052
 2599W        W 6667  22.925  22.354  13.714
 2600W        W 6668  22.420  22.726  13.653
 2601W        W 6669  22.776  22.716  13.312
 2602W        W 6670  22.746  22.064  12.422
 2603W        W 6671  22.976  22.479  12.478
 2604W        W 6672  23.243  21.966  13.917
 2605W        W 6673  23.095  22.997  12.496
 2606W        W 6674  23.101  22.866  13.795
 2607W        W 6675  22.363  22.243  13.887
 2608W        W 6676  22.702  23.266  12.940
 2609W        W 6677  23.282  22.573  11.155
 2610W        W 6678  22.384  21.987  14.462
 2611W        W 6679  23.231  22.356  11.595
 2612W        W 6680  22.830  22.616  11.452
 2613W        W 6681  23.037  22.063  12.821
 2614W        W 6682  22.153  22.410  12.661
 2615W        W 6683  21.953  22.229  11.738
 2616W        W 6684  22.346  22.532  14.432
 2617W        W 6685  22.077  23.132  11.765
 2618W        W 6686  23.010  23.192  13.466
 2619W        W 6687  22.046  23.108  13.897
 2620W        W 6688  21.992  22.628  17.681
 2621W        W 6689  22.754  21.908  17.483
 2622W        W 6690  22.033  22.393  17.156
 2623W        W 6691  22.979  23.076  17.839
 2624W        W 6692  21.937  23.124  18.147
 2625W        W 6693  22.350  22.241  15.744
 2626W        W 6694  22.563  22.195  17.048
 2627W        W 6695  21.972  22.526  15.862
 2628W        W 6696  23.158  22.221  16.941
 2629W        W 6697  22.261  22.888  14.885
 2630W        W 6698  22.413  23.167  17.048
 2631W        W 6699  22.288  21.960  16.129
 2632W        W 6700  23.249  22.948  15.188
 2633W        W 6701  22.818  22.232  17.852
 2634W        W 6702  22.906  21.951  15.184
 2635W        W 6703  22.598  22.775  16.435
 2636W        W 6704  22.205  22.652  16.720
 2637W        W 6705  21.943  22.931  17.049
 2638W        W 6706  22.470  22.347  14.933
 2639W        W 6707  22.808  22.364  15.597
 2640W        W 6708  22.813  22.592  14.622
 2641W        W 6709  22.854  22.043  14.699
 2642W        W 6710  23.077  22.680  16.566
 2643W        W 6711  22.503  22.636  15.964
 2644W        W 6712  22.905  22.874  15.573
 2645W        W 6713  22.004  22.103  14.868
 2646W        W 6714  23.280  22.161  18.044
 2647W        W 6715  23.184  22.071  15.681
 2648W        W 6716  22.188  22.080  16.763
 2649W        W 6717  22.347  22.649  15.353
 2650W        W 6718  22.606  22.298  16.473
 2651W        W 6719  21.868  22.560  14.891
 2652W        W 6720  22.665  22.675  17.696
 2653W        W 6721  22.925  22.354  17.358
 2654W        W 6722  22.420  22.726  17.297
 2655W        W 6723  22.776  22.716  16.956
 2656W        W 6724  22.746  22.064  16.066
 2657W        W 6725  22.976  22.479  16.122
 2658W        W 6726  23.243  21.966  17.561
 2659W        W 6727  23.095  22.997  16.140
 2660W        W 6728  23.101  22.866  17.439
 2661W        W 6729  22.363  22.243  17.531
 2662W        W 6730  22.702  23.266  16.584
 2663W        W 6731  23.282  22.573  14.799
 2664W        W 6732  22.384  21.987  18.106
 2665W        W 6733  23.231  22.356  15.239
 2666W        W 6734  22.830  22.616  15.096
 2667W        W 6735  23.037  22.063  16.465
 2668W        W 6736  22.153  22.410  16.305
 2669W        W 6737  21.953  22.229  15.382
 2670W        W 6738  22.346  22.532  18.076
 2671W        W 6739  22.077  23.132  15.409
 2672W        W 6740  23.010  23.192  17.110
 2673W        W 6741  22.046  23.108  17.541
 2674W        W 6742  21.992  22.628  21.325
 2675W        W 6743  22.754  21.908  21.127
 2676W        W 6744  22.033  22.393  20.800
 2677W        W 6745  22.979  23.076  21.483
 2678W        W 6746  21.937  23.124  21.791
 2679W        W 6747  22.350  22.241  19.388
 2680W        W 6748  22.563  22.195  20.692
 2681W        W 6749  21.972  22.526  19.506
 2682W        W 6750  23.158  22.221  20.585
 2683W        W 6751  22.261  22.888  18.529
 2684W        W 6752  22.413  23.167  20.692
 2685W        W 6753  22.288  21.960  19.773
 2686W        W 6754  23.249  22.948  18.832
 2687W        W 6755  22.818  22.232  21.496
 2688W        W 6756  22.906  21.951  18.828
 2689W        W 6757  22.598  22.775  20.079
 2690W        W 6758  22.205  22.652  20.364
 2691W        W 6759  21.943  22.931  20.693
 2692W        W 6760  22.470  22.347  18.577
 2693W        W 6761  22.808  22.364  19.241
 2694W        W 6762  22.813  22.592  18.266
 2695W        W 6763  22.854  22.043  18.343
 2696W        W 6764  23.077  22.680  20.210
 2697W        W 6765  22.503  22.636  19.608
 2698W        W 6766  22.905  22.874  19.217
 2699W        W 6767  22.004  22.103  18.512
 2700W        W 6768  23.280  22.161  21.688
 2701W        W 6769  23.184  22.071  19.325
 2702W        W 6770  22.188  22.080  20.407
 2703W        W 6771  22.347  22.649  18.997
 2704W        W 6772  22.606  22.298  20.117
 2705W        W 6773  21.868  22.560  18.535
 2706W        W 6774  22.665  22.675  21.340
 2707W        W 6775  22.925  22.354  21.002
 2708W        W 6776  22.420  22.726  20.941
 2709W        W 6777  22.776  22.716  20.600
 2710W        W 6778  22.746  22.064  19.710
 2711W        W 6779  22.976  22.479  19.766
 2712W        W 6780  23.243  21.966  21.205
 2713W        W 6781  23.095  22.997  19.784
 2714W        W 6782  23.101  22.866  21.083
 2715W        W 6783  22.363  22.243  21.175
 2716W        W 6784  22.702  23.266  20.228
 2717W        W 6785  23.282  22.573  18.443
 2718W        W 6786  22.384  21.987  21.750
 2719W        W 6787  23.231  22.356  18.883
 2720W        W 6788  22.830  22.616  18.740
 2721W        W 6789  23.037  22.063  20.109
 2722W        W 6790  22.153  22.410  19.949
 2723W        W 6791  21.953  22.229  19.026
 2724W        W 6792  22.346  22.532  21.720
 2725W        W 6793  22.077  23.132  19.053
 2726W        W 6794  23.010  23.192  20.754
 2727W        W 6795  22.046  23.108  21.185
 2728W        W 6796  22.350  22.241  23.033
 2729W        W 6797  22.261  22.888  22.174
 2730W        W 6798  23.249  22.948  22.477
 2731W        W 6799  22.906  21.951  22.473
 2732W        W 6800  22.470  22.347  22.222
 2733W        W 6801  22.808  22.364  22.886
 2734W        W 6802  22.813  22.592  21.911
 2735W        W 6803  22.854  22.043  21.988
 2736W        W 6804  22.503  22.636  23.253
 2737W        W 6805  22.905  22.874  22.862
 2738W        W 6806  22.004  22.103  22.157
 2739W        W 6807  23.184  22.071  22.970
 2740W        W 6808  22.347  22.649  22.642
 2741W        W 6809  21.868  22.560  22.180
 2742W        W 6810  23.282  22.573  22.088
 2743W        W 6811  23.231  22.356  22.528
 2744W        W 6812  22.830  22.616  22.385
 2745W        W 6813  21.953  22.229  22.671
 2746W        W 6814  22.077  23.132  22.698
  23.00000  23.00000  23.00000
