/home/3770/.conda/envs/md/bin/polyply gen_coords -p top/system_surfactant.top -o surfactant.gro -name surfactant -box 3 3 3
 4080
    0PS8B    C0    1   2.269   0.728  15.503
    0PS8B    C1    2   2.428   0.697  15.568
    0PS8B    C2    3   2.524   0.797  15.675
    0PS8B    C3    4   2.706   0.820  15.698
    0PS8B    B4    5   2.806   0.728  15.730
    0PS8B    B5    6   2.945   0.708  15.790
    0PS8B    B6    7   3.012   0.795  15.859
    0PS8B    B7    8   2.982   0.895  15.934
    0PS8B    B8    9   2.898   0.915  16.030
    0PS8B    B9   10   2.839   0.840  16.118
    0PS8B   B10   11   2.856   0.726  16.159
    0PS8B   B11   12   2.895   0.620  16.110
    0PS8B   B12   13   3.000   0.583  16.044
    0PS8B   B13   14   3.116   0.634  16.023
    0PS8B   B14   15   3.163   0.754  16.017
    0PS8B   B15   16   3.121   0.871  16.050
    0PS8B   B16   17   2.938   0.655  16.158
    0PS8B   B17   18   2.982   0.739  16.159
    0PS8B   B18   19   3.032   0.662  16.156
    0PS8B   B19   20   2.978   0.845  16.202
    0PS8B   B20   21   2.937   0.887  16.317
    0PS8B   B21   22   2.920   0.835  16.433
    0PS8B   B22   23   2.820   0.818  16.512
    0PS8B   B23   24   2.802   0.757  16.625
    0PS8B   B24   25   3.124   0.615  16.191
    0PS8B   B25   26   3.165   0.500  16.231
    0PS8B   B26   27   3.109   0.386  16.251
    0PS8B   B27   28   3.095   0.278  16.183
    0PS8B   B28   29   3.118   0.153  16.202
    0PS8B   B29   30   3.204   0.989  16.097
    0PS8B   C30   31   3.310   1.076  16.066
    0PS8B   C31   32   3.393   1.110  15.905
    0PS8B   C32   33   3.560   1.105  15.853
    0PS8B   C33   34   3.699   1.189  15.919
    1PS8B    C0   35  18.033   5.399  15.633
    1PS8B    C1   36  17.884   5.475  15.685
    1PS8B    C2   37  17.789   5.443  15.828
    1PS8B    C3   38  17.609   5.456  15.866
    1PS8B    B4   39  17.522   5.565  15.860
    1PS8B    B5   40  17.392   5.626  15.910
    1PS8B    B6   41  17.322   5.586  16.013
    1PS8B    B7   42  17.350   5.524  16.122
    1PS8B    B8   43  17.439   5.536  16.214
    1PS8B    B9   44  17.514   5.632  16.259
    1PS8B   B10   45  17.512   5.754  16.248
    1PS8B   B11   46  17.479   5.834  16.159
    1PS8B   B12   47  17.374   5.852  16.089
    1PS8B   B13   48  17.251   5.813  16.096
    1PS8B   B14   49  17.192   5.709  16.143
    1PS8B   B15   50  17.225   5.612  16.222
    1PS8B   B16   51  17.438   5.828  16.219
    1PS8B   B17   52  17.386   5.759  16.258
    1PS8B   B18   53  17.344   5.833  16.225
    1PS8B   B19   54  17.383   5.681  16.342
    1PS8B   B20   55  17.430   5.686  16.462
    1PS8B   B21   56  17.463   5.780  16.544
    1PS8B   B22   57  17.570   5.815  16.605
    1PS8B   B23   58  17.605   5.915  16.679
    1PS8B   B24   59  17.260   5.902  16.239
    1PS8B   B25   60  17.236   6.027  16.228
    1PS8B   B26   61  17.304   6.131  16.195
    1PS8B   B27   62  17.323   6.197  16.087
    1PS8B   B28   63  17.314   6.320  16.051
    1PS8B   B29   64  17.135   5.537  16.318
    1PS8B   C30   65  17.019   5.459  16.332
    1PS8B   C31   66  16.918   5.372  16.205
    1PS8B   C32   67  16.748   5.376  16.162
    1PS8B   C33   68  16.608   5.347  16.264
    2PS8B    C0   69  12.206   1.260   3.682
    2PS8B    C1   70  12.038   1.228   3.643
    2PS8B    C2   71  11.963   1.076   3.596
    2PS8B    C3   72  11.819   1.033   3.489
    2PS8B    B4   73  11.685   1.072   3.498
    2PS8B    B5   74  11.541   1.037   3.461
    2PS8B    B6   75  11.498   0.923   3.416
    2PS8B    B7   76  11.538   0.801   3.427
    2PS8B    B8   77  11.575   0.725   3.524
    2PS8B    B9   78  11.554   0.721   3.651
    2PS8B   B10   79  11.473   0.773   3.726
    2PS8B   B11   80  11.413   0.882   3.730
    2PS8B   B12   81  11.340   0.947   3.648
    2PS8B   B13   82  11.278   0.919   3.538
    2PS8B   B14   83  11.296   0.835   3.443
    2PS8B   B15   84  11.370   0.730   3.425
    2PS8B   B16   85  11.376   0.821   3.714
    2PS8B   B17   86  11.378   0.757   3.644
    2PS8B   B18   87  11.305   0.812   3.654
    2PS8B   B19   88  11.411   0.651   3.616
    2PS8B   B20   89  11.418   0.544   3.687
    2PS8B   B21   90  11.361   0.502   3.795
    2PS8B   B22   91  11.401   0.464   3.911
    2PS8B   B23   92  11.343   0.432   4.021
    2PS8B   B24   93  11.196   0.816   3.644
    2PS8B   B25   94  11.096   0.869   3.705
    2PS8B   B26   95  11.081   0.940   3.811
    2PS8B   B27   96  11.072   1.065   3.836
    2PS8B   B28   97  10.990   1.140   3.900
    2PS8B   B29   98  11.337   0.608   3.341
    2PS8B   C30   99  11.304   0.561   3.213
    2PS8B   C31  100  11.317   0.643   3.049
    2PS8B   C32  101  11.202   0.673   2.920
    2PS8B   C33  102  11.102   0.559   2.832
    3PS8B    C0  103   8.783   8.405   2.121
    3PS8B    C1  104   8.610   8.412   2.099
    3PS8B    C2  105   8.484   8.417   2.220
    3PS8B    C3  106   8.309   8.357   2.225
    3PS8B    B4  107   8.201   8.386   2.143
    3PS8B    B5  108   8.049   8.391   2.131
    3PS8B    B6  109   7.963   8.383   2.228
    3PS8B    B7  110   7.966   8.410   2.354
    3PS8B    B8  111   8.006   8.510   2.425
    3PS8B    B9  112   8.021   8.637   2.405
    3PS8B   B10  113   7.983   8.715   2.319
    3PS8B   B11  114   7.962   8.708   2.197
    3PS8B   B12  115   7.891   8.633   2.122
    3PS8B   B13  116   7.795   8.549   2.141
    3PS8B   B14  117   7.760   8.472   2.238
    3PS8B   B15  118   7.792   8.461   2.363
    3PS8B   B16  119   7.905   8.715   2.243
    3PS8B   B17  120   7.869   8.662   2.312
    3PS8B   B18  121   7.821   8.676   2.235
    3PS8B   B19  122   7.860   8.651   2.426
    3PS8B   B20  123   7.854   8.740   2.519
    3PS8B   B21  124   7.820   8.864   2.524
    3PS8B   B22  125   7.879   8.973   2.558
    3PS8B   B23  126   7.848   9.098   2.554
    3PS8B   B24  127   7.720   8.690   2.195
    3PS8B   B25  128   7.661   8.759   2.104
    3PS8B   B26  129   7.698   8.848   2.019
    3PS8B   B27  130   7.734   8.846   1.896
    3PS8B   B28  131   7.699   8.909   1.790
    3PS8B   B29  132   7.702   8.415   2.477
    3PS8B   C30  133   7.622   8.311   2.527
    3PS8B   C31  134   7.612   8.134   2.476
    3PS8B   C32  135   7.479   8.031   2.425
    3PS8B   C33  136   7.330   7.994   2.509
    4PS8B    C0  137  18.928  19.053  21.778
    4PS8B    C1  138  18.899  18.882  21.753
    4PS8B    C2  139  18.749  18.800  21.713
    4PS8B    C3  140  18.683  18.632  21.749
    4PS8B    B4  141  18.734  18.506  21.719
    4PS8B    B5  142  18.702  18.358  21.697
    4PS8B    B6  143  18.584  18.307  21.680
    4PS8B    B7  144  18.472  18.350  21.634
    4PS8B    B8  145  18.435  18.417  21.530
    4PS8B    B9  146  18.482  18.435  21.411
    4PS8B   B10  147  18.567  18.378  21.342
    4PS8B   B11  148  18.674  18.320  21.365
    4PS8B   B12  149  18.710  18.224  21.442
    4PS8B   B13  150  18.648  18.133  21.509
    4PS8B   B14  151  18.532  18.124  21.565
    4PS8B   B15  152  18.422  18.192  21.560
    4PS8B   B16  153  18.616  18.281  21.344
    4PS8B   B17  154  18.530  18.263  21.381
    4PS8B   B18  155  18.590  18.195  21.373
    4PS8B   B19  156  18.419  18.290  21.373
    4PS8B   B20  157  18.346  18.319  21.271
    4PS8B   B21  158  18.354  18.298  21.144
    4PS8B   B22  159  18.360  18.372  21.040
    4PS8B   B23  160  18.377  18.350  20.914
    4PS8B   B24  161  18.601  18.088  21.353
    4PS8B   B25  162  18.682  18.010  21.291
    4PS8B   B26  163  18.789  18.025  21.222
    4PS8B   B27  164  18.915  18.021  21.247
    4PS8B   B28  165  19.016  17.959  21.198
    4PS8B   B29  166  18.281  18.138  21.576
    4PS8B   C30  167  18.192  18.070  21.661
    4PS8B   C31  168  18.204  18.031  21.841
    4PS8B   C32  169  18.194  17.882  21.933
    4PS8B   C33  170  18.065  17.764  21.937
    5PS8B    C0  171  17.156  10.563  15.615
    5PS8B    C1  172  17.050  10.481  15.727
    5PS8B    C2  173  16.965  10.329  15.708
    5PS8B    C3  174  16.805  10.264  15.774
    5PS8B    B4  175  16.762  10.246  15.906
    5PS8B    B5  176  16.668  10.170  15.999
    5PS8B    B6  177  16.600  10.063  15.969
    5PS8B    B7  178  16.616   9.966  15.886
    5PS8B    B8  179  16.713   9.888  15.853
    5PS8B    B9  180  16.820   9.845  15.912
    5PS8B   B10  181  16.860   9.843  16.028
    5PS8B   B11  182  16.848   9.917  16.126
    5PS8B   B12  183  16.749   9.969  16.189
    5PS8B   B13  184  16.622   9.947  16.192
    5PS8B   B14  185  16.535   9.902  16.108
    5PS8B   B15  186  16.541   9.840  15.994
    5PS8B   B16  187  16.814   9.853  16.126
    5PS8B   B17  188  16.746   9.813  16.073
    5PS8B   B18  189  16.729   9.833  16.161
    5PS8B   B19  190  16.725   9.738  15.989
    5PS8B   B20  191  16.783   9.627  15.960
    5PS8B   B21  192  16.855   9.542  16.024
    5PS8B   B22  193  16.974   9.495  16.013
    5PS8B   B23  194  17.049   9.417  16.083
    5PS8B   B24  195  16.677   9.799  16.250
    5PS8B   B25  196  16.696   9.793  16.377
    5PS8B   B26  197  16.792   9.825  16.456
    5PS8B   B27  198  16.822   9.928  16.527
    5PS8B   B28  199  16.853   9.949  16.650
    5PS8B   B29  200  16.441   9.740  15.941
    5PS8B   C30  201  16.307   9.716  15.905
    5PS8B   C31  202  16.169   9.835  15.876
    5PS8B   C32  203  16.008   9.851  15.943
    5PS8B   C33  204  15.878   9.733  15.947
    6PS8B    C0  205  16.618  12.777  15.014
    6PS8B    C1  206  16.656  12.806  15.183
    6PS8B    C2  207  16.556  12.878  15.307
    6PS8B    C3  208  16.593  12.978  15.458
    6PS8B    B4  209  16.672  12.948  15.569
    6PS8B    B5  210  16.699  12.977  15.716
    6PS8B    B6  211  16.621  13.043  15.798
    6PS8B    B7  212  16.495  13.064  15.804
    6PS8B    B8  213  16.389  12.991  15.796
    6PS8B    B9  214  16.362  12.866  15.816
    6PS8B   B10  215  16.419  12.774  15.873
    6PS8B   B11  216  16.537  12.740  15.889
    6PS8B   B12  217  16.642  12.798  15.935
    6PS8B   B13  218  16.664  12.904  16.004
    6PS8B   B14  219  16.605  13.018  16.018
    6PS8B   B15  220  16.489  13.065  15.986
    6PS8B   B16  221  16.499  12.765  15.946
    6PS8B   B17  222  16.457  12.848  15.968
    6PS8B   B18  223  16.529  12.819  16.016
    6PS8B   B19  224  16.357  12.901  15.974
    6PS8B   B20  225  16.240  12.858  16.006
    6PS8B   B21  226  16.195  12.757  16.074
    6PS8B   B22  227  16.119  12.657  16.048
    6PS8B   B23  228  16.082  12.552  16.113
    6PS8B   B24  229  16.573  12.817  16.116
    6PS8B   B25  230  16.640  12.736  16.190
    6PS8B   B26  231  16.684  12.616  16.178
    6PS8B   B27  232  16.795  12.563  16.141
    6PS8B   B28  233  16.876  12.477  16.191
    6PS8B   B29  234  16.410  13.171  16.062
    6PS8B   C30  235  16.410  13.303  16.110
    6PS8B   C31  236  16.520  13.445  16.071
    6PS8B   C32  237  16.618  13.552  16.168
    6PS8B   C33  238  16.571  13.653  16.303
    7PS8B    C0  239  20.662   4.860  11.537
    7PS8B    C1  240  20.518   4.767  11.502
    7PS8B    C2  241  20.350   4.809  11.530
    7PS8B    C3  242  20.199   4.710  11.567
    7PS8B    B4  243  20.138   4.607  11.494
    7PS8B    B5  244  20.009   4.531  11.467
    7PS8B    B6  245  19.889   4.567  11.504
    7PS8B    B7  246  19.832   4.679  11.529
    7PS8B    B8  247  19.825   4.794  11.471
    7PS8B    B9  248  19.837   4.835  11.349
    7PS8B   B10  249  19.836   4.781  11.239
    7PS8B   B11  250  19.874   4.672  11.194
    7PS8B   B12  251  19.852   4.550  11.225
    7PS8B   B13  252  19.766   4.488  11.298
    7PS8B   B14  253  19.697   4.519  11.403
    7PS8B   B15  254  19.669   4.628  11.466
    7PS8B   B16  255  19.803   4.686  11.200
    7PS8B   B17  256  19.743   4.703  11.271
    7PS8B   B18  257  19.734   4.626  11.223
    7PS8B   B19  258  19.684   4.785  11.325
    7PS8B   B20  259  19.628   4.892  11.281
    7PS8B   B21  260  19.585   4.931  11.166
    7PS8B   B22  261  19.612   5.029  11.086
    7PS8B   B23  262  19.576   5.062  10.967
    7PS8B   B24  263  19.662   4.554  11.183
    7PS8B   B25  264  19.646   4.483  11.076
    7PS8B   B26  265  19.710   4.468  10.966
    7PS8B   B27  266  19.799   4.385  10.923
    7PS8B   B28  267  19.811   4.310  10.820
    7PS8B   B29  268  19.541   4.659  11.542
    7PS8B   C30  269  19.457   4.621  11.648
    7PS8B   C31  270  19.486   4.504  11.787
    7PS8B   C32  271  19.401   4.363  11.846
    7PS8B   C33  272  19.233   4.347  11.895
    8PS8B    C0  273  16.034   1.350   5.095
    8PS8B    C1  274  15.955   1.483   5.012
    8PS8B    C2  275  16.002   1.563   4.863
    8PS8B    C3  276  15.980   1.735   4.799
    8PS8B    B4  277  15.864   1.810   4.778
    8PS8B    B5  278  15.801   1.926   4.701
    8PS8B    B6  279  15.852   1.986   4.597
    8PS8B    B7  280  15.933   1.952   4.503
    8PS8B    B8  281  15.944   1.851   4.424
    8PS8B    B9  282  15.863   1.763   4.376
    8PS8B   B10  283  15.742   1.753   4.367
    8PS8B   B11  284  15.646   1.787   4.438
    8PS8B   B12  285  15.607   1.898   4.489
    8PS8B   B13  286  15.636   2.022   4.472
    8PS8B   B14  287  15.741   2.086   4.433
    8PS8B   B15  288  15.852   2.054   4.375
    8PS8B   B16  289  15.657   1.821   4.374
    8PS8B   B17  290  15.727   1.875   4.339
    8PS8B   B18  291  15.645   1.913   4.355
    8PS8B   B19  292  15.817   1.876   4.268
    8PS8B   B20  293  15.836   1.814   4.157
    8PS8B   B21  294  15.760   1.762   4.067
    8PS8B   B22  295  15.744   1.645   4.017
    8PS8B   B23  296  15.661   1.591   3.934
    8PS8B   B24  297  15.573   1.986   4.319
    8PS8B   B25  298  15.446   1.999   4.308
    8PS8B   B26  299  15.344   1.925   4.333
    8PS8B   B27  300  15.264   1.912   4.433
    8PS8B   B28  301  15.136   1.912   4.447
    8PS8B   B29  302  15.933   2.139   4.280
    8PS8B   C30  303  16.003   2.260   4.262
    8PS8B   C31  304  16.059   2.385   4.386
    8PS8B   C32  305  16.033   2.557   4.404
    8PS8B   C33  306  16.067   2.686   4.290
    9PS8B    C0  307  21.517  13.156   3.126
    9PS8B    C1  308  21.621  13.208   2.995
    9PS8B    C2  309  21.604  13.177   2.823
    9PS8B    C3  310  21.725  13.159   2.685
    9PS8B    B4  311  21.823  13.247   2.637
    9PS8B    B5  312  21.909  13.287   2.518
    9PS8B    B6  313  21.893  13.249   2.395
    9PS8B    B7  314  21.793  13.209   2.324
    9PS8B    B8  315  21.673  13.251   2.304
    9PS8B    B9  316  21.613  13.365   2.312
    9PS8B   B10  317  21.651  13.481   2.318
    9PS8B   B11  318  21.747  13.540   2.369
    9PS8B   B12  319  21.874  13.527   2.362
    9PS8B   B13  320  21.956  13.466   2.284
    9PS8B   B14  321  21.949  13.360   2.211
    9PS8B   B15  322  21.854  13.283   2.169
    9PS8B   B16  323  21.743  13.535   2.297
    9PS8B   B17  324  21.743  13.463   2.235
    9PS8B   B18  325  21.813  13.522   2.236
    9PS8B   B19  326  21.678  13.399   2.166
    9PS8B   B20  327  21.572  13.429   2.098
    9PS8B   B21  328  21.523  13.538   2.051
    9PS8B   B22  329  21.412  13.603   2.067
    9PS8B   B23  330  21.367  13.717   2.027
    9PS8B   B24  331  21.886  13.574   2.174
    9PS8B   B25  332  21.943  13.689   2.167
    9PS8B   B26  333  21.934  13.799   2.233
    9PS8B   B27  334  21.999  13.851   2.331
    9PS8B   B28  335  22.056  13.964   2.353
    9PS8B   B29  336  21.849  13.206   2.039
    9PS8B   C30  337  21.913  13.109   1.959
    9PS8B   C31  338  22.044  12.987   2.001
    9PS8B   C32  339  22.201  12.951   1.933
    9PS8B   C33  340  22.244  12.909   1.769
   10PS8B    C0  341   5.404   2.217  19.185
   10PS8B    C1  342   5.420   2.392  19.186
   10PS8B    C2  343   5.565   2.489  19.196
   10PS8B    C3  344   5.600   2.657  19.265
   10PS8B    B4  345   5.545   2.781  19.235
   10PS8B    B5  346   5.565   2.932  19.237
   10PS8B    B6  347   5.678   2.995  19.257
   10PS8B    B7  348   5.802   2.966  19.239
   10PS8B    B8  349   5.872   2.916  19.143
   10PS8B    B9  350   5.859   2.910  19.014
   10PS8B   B10  351   5.790   2.968  18.932
   10PS8B   B11  352   5.675   3.014  18.930
   10PS8B   B12  353   5.610   3.097  19.003
   10PS8B   B13  354   5.641   3.183  19.093
   10PS8B   B14  355   5.737   3.194  19.179
   10PS8B   B15  356   5.851   3.137  19.197
   10PS8B   B16  357   5.732   3.060  18.930
   10PS8B   B17  358   5.803   3.079  18.990
   10PS8B   B18  359   5.739   3.143  18.973
   10PS8B   B19  360   5.914   3.063  19.010
   10PS8B   B20  361   6.014   3.052  18.929
   10PS8B   B21  362   6.037   3.088  18.807
   10PS8B   B22  363   6.066   3.027  18.698
   10PS8B   B23  364   6.080   3.063  18.575
   10PS8B   B24  365   5.722   3.250  18.961
   10PS8B   B25  366   5.651   3.329  18.888
   10PS8B   B26  367   5.568   3.314  18.791
   10PS8B   B27  368   5.441   3.305  18.782
   10PS8B   B28  369   5.350   3.364  18.712
   10PS8B   B29  370   5.976   3.199  19.256
   10PS8B   C30  371   6.033   3.263  19.368
   10PS8B   C31  372   5.971   3.278  19.541
   10PS8B   C32  373   5.940   3.415  19.646
   10PS8B   C33  374   6.050   3.542  19.697
   11PS8B    C0  375  12.294   2.401  12.809
   11PS8B    C1  376  12.229   2.466  12.959
   11PS8B    C2  377  12.199   2.633  13.002
   11PS8B    C3  378  12.200   2.724  13.163
   11PS8B    B4  379  12.127   2.704  13.279
   11PS8B    B5  380  12.072   2.766  13.407
   11PS8B    B6  381  12.065   2.894  13.433
   11PS8B    B7  382  12.056   3.001  13.362
   11PS8B    B8  383  11.984   3.039  13.263
   11PS8B    B9  384  11.867   3.008  13.216
   11PS8B   B10  385  11.771   2.947  13.261
   11PS8B   B11  386  11.755   2.852  13.338
   11PS8B   B12  387  11.793   2.824  13.457
   11PS8B   B13  388  11.844   2.891  13.554
   11PS8B   B14  389  11.917   2.997  13.563
   11PS8B   B15  390  11.953   3.091  13.482
   11PS8B   B16  391  11.736   2.918  13.360
   11PS8B   B17  392  11.783   2.999  13.375
   11PS8B   B18  393  11.745   2.955  13.446
   11PS8B   B19  394  11.805   3.103  13.332
   11PS8B   B20  395  11.732   3.183  13.263
   11PS8B   B21  396  11.605   3.199  13.245
   11PS8B   B22  397  11.526   3.194  13.144
   11PS8B   B23  398  11.398   3.200  13.129
   11PS8B   B24  399  11.694   2.968  13.541
   11PS8B   B25  400  11.598   2.914  13.608
   11PS8B   B26  401  11.516   2.818  13.588
   11PS8B   B27  402  11.514   2.693  13.617
   11PS8B   B28  403  11.430   2.614  13.674
   11PS8B   B29  404  11.982   3.235  13.518
   11PS8B   C30  405  12.061   3.323  13.595
   11PS8B   C31  406  12.216   3.292  13.688
   11PS8B   C32  407  12.264   3.317  13.855
   11PS8B   C33  408  12.261   3.464  13.950
   12PS8B    C0  409  14.087   1.109  15.048
   12PS8B    C1  410  14.118   0.937  15.037
   12PS8B    C2  411  14.144   0.821  15.166
   12PS8B    C3  412  14.241   0.665  15.178
   12PS8B    B4  413  14.234   0.547  15.104
   12PS8B    B5  414  14.262   0.397  15.101
   12PS8B    B6  415  14.291   0.322  15.203
   12PS8B    B7  416  14.267   0.328  15.330
   12PS8B    B8  417  14.162   0.349  15.402
   12PS8B    B9  418  14.035   0.335  15.386
   12PS8B   B10  419  13.965   0.275  15.305
   12PS8B   B11  420  13.973   0.248  15.184
   12PS8B   B12  421  14.061   0.190  15.111
   12PS8B   B13  422  14.164   0.117  15.132
   12PS8B   B14  423  14.249   0.106  15.229
   12PS8B   B15  424  14.255   0.147  15.351
   12PS8B   B16  425  13.980   0.195  15.234
   12PS8B   B17  426  14.041   0.175  15.303
   12PS8B   B18  427  14.037   0.120  15.230
   12PS8B   B19  428  14.057   0.177  15.416
   12PS8B   B20  429  13.974   0.158  15.513
   12PS8B   B21  430  13.860   0.098  15.525
   12PS8B   B22  431  13.741   0.134  15.559
   12PS8B   B23  432  13.626   0.076  15.562
   12PS8B   B24  433  14.044   0.016  15.197
   12PS8B   B25  434  13.987  -0.062  15.112
   12PS8B   B26  435  13.891  -0.051  15.028
   12PS8B   B27  436  13.881  -0.024  14.903
   12PS8B   B28  437  13.825  -0.079  14.801
   12PS8B   B29  438  14.322   0.078  15.468
   12PS8B   C30  439  14.443   0.026  15.518
   12PS8B   C31  440  14.617   0.050  15.462
   12PS8B   C32  441  14.745  -0.059  15.415
   12PS8B   C33  442  14.815  -0.191  15.506
   13PS8B    C0  443   2.967  16.491   7.448
   13PS8B    C1  444   2.936  16.545   7.284
   13PS8B    C2  445   3.051  16.579   7.156
   13PS8B    C3  446   3.049  16.695   7.012
   13PS8B    B4  447   2.960  16.706   6.905
   13PS8B    B5  448   2.940  16.753   6.762
   13PS8B    B6  449   3.034  16.788   6.678
   13PS8B    B7  450   3.158  16.757   6.664
   13PS8B    B8  451   3.226  16.648   6.662
   13PS8B    B9  452   3.200  16.524   6.635
   13PS8B   B10  453   3.109  16.466   6.578
   13PS8B   B11  454   2.986  16.483   6.569
   13PS8B   B12  455   2.911  16.580   6.532
   13PS8B   B13  456   2.930  16.691   6.470
   13PS8B   B14  457   3.029  16.772   6.457
   13PS8B   B15  458   3.156  16.768   6.482
   13PS8B   B16  459   3.029  16.494   6.510
   13PS8B   B17  460   3.099  16.555   6.489
   13PS8B   B18  461   3.019  16.560   6.445
   13PS8B   B19  462   3.212  16.565   6.478
   13PS8B   B20  463   3.300  16.480   6.436
   13PS8B   B21  464   3.298  16.375   6.362
   13PS8B   B22  465   3.329  16.251   6.378
   13PS8B   B23  466   3.317  16.144   6.307
   13PS8B   B24  467   2.973  16.583   6.348
   13PS8B   B25  468   2.876  16.540   6.275
   13PS8B   B26  469   2.789  16.447   6.285
   13PS8B   B27  470   2.668  16.440   6.328
   13PS8B   B28  471   2.557  16.396   6.280
   13PS8B   B29  472   3.267  16.838   6.406
   13PS8B   C30  473   3.318  16.962   6.363
   13PS8B   C31  474   3.275  17.133   6.416
   13PS8B   C32  475   3.224  17.277   6.329
   13PS8B   C33  476   3.301  17.359   6.196
   14PS8B    C0  477  18.160  18.859   9.525
   14PS8B    C1  478  18.040  18.833   9.650
   14PS8B    C2  479  18.034  18.708   9.773
   14PS8B    C3  480  17.896  18.622   9.861
   14PS8B    B4  481  17.793  18.673   9.939
   14PS8B    B5  482  17.691  18.644  10.049
   14PS8B    B6  483  17.691  18.541  10.128
   14PS8B    B7  484  17.781  18.461  10.173
   14PS8B    B8  485  17.897  18.475  10.227
   14PS8B    B9  486  17.957  18.568  10.294
   14PS8B   B10  487  17.920  18.669  10.352
   14PS8B   B11  488  17.831  18.753  10.334
   14PS8B   B12  489  17.704  18.748  10.318
   14PS8B   B13  490  17.613  18.659  10.337
   14PS8B   B14  491  17.611  18.530  10.335
   14PS8B   B15  492  17.700  18.436  10.335
   14PS8B   B16  493  17.825  18.707  10.390
   14PS8B   B17  494  17.817  18.613  10.398
   14PS8B   B18  495  17.747  18.667  10.423
   14PS8B   B19  496  17.874  18.517  10.424
   14PS8B   B20  497  17.969  18.495  10.508
   14PS8B   B21  498  18.011  18.553  10.615
   14PS8B   B22  499  18.122  18.607  10.651
   14PS8B   B23  500  18.162  18.674  10.754
   14PS8B   B24  501  17.666  18.678  10.496
   14PS8B   B25  502  17.609  18.773  10.562
   14PS8B   B26  503  17.625  18.899  10.573
   14PS8B   B27  504  17.574  19.003  10.517
   14PS8B   B28  505  17.520  19.112  10.558
   14PS8B   B29  506  17.688  18.299  10.396
   14PS8B   C30  507  17.615  18.178  10.398
   14PS8B   C31  508  17.491  18.112  10.278
   14PS8B   C32  509  17.327  18.055  10.295
   14PS8B   C33  510  17.263  17.929  10.398
   15PS8B    C0  511   9.314   4.133   3.910
   15PS8B    C1  512   9.283   3.961   3.921
   15PS8B    C2  513   9.280   3.858   4.063
   15PS8B    C3  514   9.318   3.680   4.092
   15PS8B    B4  515   9.264   3.565   4.035
   15PS8B    B5  516   9.239   3.415   4.051
   15PS8B    B6  517   9.251   3.347   4.161
   15PS8B    B7  518   9.243   3.374   4.286
   15PS8B    B8  519   9.160   3.438   4.361
   15PS8B    B9  520   9.034   3.468   4.354
   15PS8B   B10  521   8.940   3.429   4.286
   15PS8B   B11  522   8.927   3.387   4.170
   15PS8B   B12  523   8.981   3.295   4.101
   15PS8B   B13  524   9.055   3.192   4.126
   15PS8B   B14  525   9.140   3.163   4.218
   15PS8B   B15  526   9.173   3.213   4.333
   15PS8B   B16  527   8.920   3.341   4.226
   15PS8B   B17  528   8.978   3.308   4.294
   15PS8B   B18  529   8.947   3.251   4.229
   15PS8B   B19  530   9.004   3.317   4.405
   15PS8B   B20  531   8.930   3.339   4.508
   15PS8B   B21  532   8.805   3.325   4.535
   15PS8B   B22  533   8.709   3.404   4.570
   15PS8B   B23  534   8.582   3.391   4.588
   15PS8B   B24  535   8.915   3.148   4.210
   15PS8B   B25  536   8.826   3.086   4.141
   15PS8B   B26  537   8.732   3.121   4.062
   15PS8B   B27  538   8.720   3.136   3.935
   15PS8B   B28  539   8.638   3.094   3.845
   15PS8B   B29  540   9.224   3.137   4.454
   15PS8B   C30  541   9.324   3.052   4.505
   15PS8B   C31  542   9.488   3.007   4.435
   15PS8B   C32  543   9.566   2.855   4.397
   15PS8B   C33  544   9.596   2.718   4.502
   16PS8B    C0  545   0.625  10.063   9.463
   16PS8B    C1  546   0.683  10.226   9.491
   16PS8B    C2  547   0.598  10.363   9.560
   16PS8B    C3  548   0.610  10.546   9.537
   16PS8B    B4  549   0.718  10.632   9.552
   16PS8B    B5  550   0.762  10.776   9.578
   16PS8B    B6  551   0.686  10.874   9.620
   16PS8B    B7  552   0.579  10.881   9.690
   16PS8B    B8  553   0.537  10.830   9.801
   16PS8B    B9  554   0.595  10.783   9.907
   16PS8B   B10  555   0.707  10.790   9.954
   16PS8B   B11  556   0.822  10.796   9.908
   16PS8B   B12  557   0.881  10.872   9.823
   16PS8B   B13  558   0.856  10.986   9.769
   16PS8B   B14  559   0.748  11.050   9.740
   16PS8B   B15  560   0.622  11.039   9.770
   16PS8B   B16  561   0.793  10.855   9.940
   16PS8B   B17  562   0.719  10.912   9.923
   16PS8B   B18  563   0.805  10.945   9.915
   16PS8B   B19  564   0.613  10.937   9.955
   16PS8B   B20  565   0.557  10.935  10.071
   16PS8B   B21  566   0.599  10.940  10.192
   16PS8B   B22  567   0.592  10.863  10.295
   16PS8B   B23  568   0.642  10.864  10.414
   16PS8B   B24  569   0.867  11.033   9.931
   16PS8B   B25  570   0.985  11.062   9.972
   16PS8B   B26  571   1.085  10.995  10.016
   16PS8B   B27  572   1.191  10.944   9.964
   16PS8B   B28  573   1.317  10.949   9.989
   16PS8B   B29  574   0.521  11.151   9.784
   16PS8B   C30  575   0.458  11.258   9.719
   16PS8B   C31  576   0.449  11.303   9.541
   16PS8B   C32  577   0.489  11.447   9.450
   16PS8B   C33  578   0.431  11.611   9.472
   17PS8B    C0  579  16.285   5.840  15.559
   17PS8B    C1  580  16.173   5.870  15.691
   17PS8B    C2  581  16.074   5.756  15.779
   17PS8B    C3  582  15.910   5.769  15.864
   17PS8B    B4  583  15.868   5.852  15.967
   17PS8B    B5  584  15.768   5.872  16.080
   17PS8B    B6  585  15.690   5.781  16.131
   17PS8B    B7  586  15.695   5.653  16.142
   17PS8B    B8  587  15.784   5.567  16.179
   17PS8B    B9  588  15.888   5.570  16.256
   17PS8B   B10  589  15.929   5.647  16.342
   17PS8B   B11  590  15.925   5.770  16.359
   17PS8B   B12  591  15.832   5.858  16.361
   17PS8B   B13  592  15.704   5.855  16.372
   17PS8B   B14  593  15.612   5.771  16.339
   17PS8B   B15  594  15.610   5.646  16.303
   17PS8B   B16  595  15.885   5.727  16.402
   17PS8B   B17  596  15.813   5.667  16.388
   17PS8B   B18  597  15.800   5.744  16.436
   17PS8B   B19  598  15.784   5.556  16.381
   17PS8B   B20  599  15.831   5.453  16.442
   17PS8B   B21  600  15.895   5.433  16.551
   17PS8B   B22  601  16.009   5.382  16.583
   17PS8B   B23  602  16.077   5.371  16.692
   17PS8B   B24  603  15.746   5.787  16.521
   17PS8B   B25  604  15.767   5.871  16.616
   17PS8B   B26  605  15.866   5.942  16.654
   17PS8B   B27  606  15.906   6.062  16.633
   17PS8B   B28  607  15.941   6.161  16.708
   17PS8B   B29  608  15.501   5.545  16.330
   17PS8B   C30  609  15.365   5.514  16.313
   17PS8B   C31  610  15.238   5.588  16.202
   17PS8B   C32  611  15.080   5.658  16.229
   17PS8B   C33  612  14.940   5.588  16.307
   18PS8B    C0  613  10.630   8.415   1.627
   18PS8B    C1  614  10.647   8.485   1.467
   18PS8B    C2  615  10.713   8.640   1.422
   18PS8B    C3  616  10.679   8.757   1.282
   18PS8B    B4  617  10.686   8.738   1.144
   18PS8B    B5  618  10.702   8.805   1.008
   18PS8B    B6  619  10.742   8.927   0.987
   18PS8B    B7  620  10.816   9.011   1.050
   18PS8B    B8  621  10.931   9.006   1.108
   18PS8B    B9  622  11.037   8.933   1.096
   18PS8B   B10  623  11.079   8.856   1.010
   18PS8B   B11  624  11.027   8.776   0.931
   18PS8B   B12  625  10.936   8.785   0.841
   18PS8B   B13  626  10.878   8.881   0.779
   18PS8B   B14  627  10.850   9.004   0.808
   18PS8B   B15  628  10.886   9.087   0.901
   18PS8B   B16  629  11.058   8.837   0.905
   18PS8B   B17  630  11.041   8.930   0.916
   18PS8B   B18  631  11.028   8.891   0.834
   18PS8B   B19  632  11.076   9.025   0.968
   18PS8B   B20  633  11.194   9.065   1.000
   18PS8B   B21  634  11.314   9.038   0.959
   18PS8B   B22  635  11.420   8.991   1.014
   18PS8B   B23  636  11.536   8.955   0.970
   18PS8B   B24  637  11.036   8.906   0.726
   18PS8B   B25  638  11.070   8.840   0.621
   18PS8B   B26  639  11.113   8.721   0.599
   18PS8B   B27  640  11.060   8.609   0.567
   18PS8B   B28  641  11.079   8.522   0.475
   18PS8B   B29  642  10.898   9.238   0.887
   18PS8B   C30  643  10.831   9.358   0.857
   18PS8B   C31  644  10.651   9.394   0.843
   18PS8B   C32  645  10.552   9.463   0.717
   18PS8B   C33  646  10.568   9.618   0.637
   19PS8B    C0  647  19.607   8.940  18.395
   19PS8B    C1  648  19.586   8.937  18.222
   19PS8B    C2  649  19.684   9.014  18.098
   19PS8B    C3  650  19.647   9.081  17.930
   19PS8B    B4  651  19.591   9.020  17.818
   19PS8B    B5  652  19.578   9.022  17.666
   19PS8B    B6  653  19.650   9.092  17.583
   19PS8B    B7  654  19.770   9.141  17.586
   19PS8B    B8  655  19.886   9.096  17.616
   19PS8B    B9  656  19.942   8.979  17.619
   19PS8B   B10  657  19.914   8.870  17.572
   19PS8B   B11  658  19.809   8.808  17.550
   19PS8B   B12  659  19.701   8.834  17.485
   19PS8B   B13  660  19.666   8.922  17.398
   19PS8B   B14  661  19.701   9.043  17.373
   19PS8B   B15  662  19.799   9.120  17.407
   19PS8B   B16  663  19.848   8.833  17.494
   19PS8B   B17  664  19.874   8.920  17.464
   19PS8B   B18  665  19.816   8.869  17.413
   19PS8B   B19  666  19.960   8.994  17.458
   19PS8B   B20  667  20.087   8.975  17.445
   19PS8B   B21  668  20.161   8.879  17.400
   19PS8B   B22  669  20.253   8.803  17.448
   19PS8B   B23  670  20.319   8.702  17.405
   19PS8B   B24  671  19.787   8.844  17.311
   19PS8B   B25  672  19.749   8.741  17.244
   19PS8B   B26  673  19.731   8.617  17.271
   19PS8B   B27  674  19.630   8.545  17.304
   19PS8B   B28  675  19.577   8.436  17.261
   19PS8B   B29  676  19.863   9.230  17.325
   19PS8B   C30  677  19.841   9.351  17.256
   19PS8B   C31  678  19.699   9.468  17.261
   19PS8B   C32  679  19.594   9.535  17.139
   19PS8B   C33  680  19.636   9.626  16.995
   20PS8B    C0  681  10.684   5.396   1.890
   20PS8B    C1  682  10.570   5.363   1.760
   20PS8B    C2  683  10.409   5.295   1.771
   20PS8B    C3  684  10.306   5.193   1.656
   20PS8B    B4  685  10.264   5.217   1.525
   20PS8B    B5  686  10.161   5.186   1.418
   20PS8B    B6  687  10.048   5.124   1.435
   20PS8B    B7  688   9.967   5.109   1.534
   20PS8B    B8  689   9.913   5.188   1.621
   20PS8B    B9  690   9.884   5.314   1.626
   20PS8B   B10  691   9.874   5.402   1.542
   20PS8B   B11  692   9.932   5.429   1.435
   20PS8B   B12  693   9.955   5.366   1.327
   20PS8B   B13  694   9.910   5.258   1.272
   20PS8B   B14  695   9.861   5.148   1.317
   20PS8B   B15  696   9.816   5.107   1.432
   20PS8B   B16  697   9.863   5.406   1.434
   20PS8B   B17  698   9.818   5.326   1.458
   20PS8B   B18  699   9.823   5.350   1.370
   20PS8B   B19  700   9.752   5.277   1.538
   20PS8B   B20  701   9.658   5.326   1.611
   20PS8B   B21  702   9.580   5.429   1.603
   20PS8B   B22  703   9.558   5.533   1.674
   20PS8B   B23  704   9.487   5.640   1.661
   20PS8B   B24  705   9.768   5.349   1.275
   20PS8B   B25  706   9.750   5.426   1.174
   20PS8B   B26  707   9.788   5.543   1.140
   20PS8B   B27  708   9.885   5.591   1.070
   20PS8B   B28  709   9.895   5.673   0.972
   20PS8B   B29  710   9.707   5.005   1.455
   20PS8B   C30  711   9.664   4.872   1.433
   20PS8B   C31  712   9.758   4.725   1.374
   20PS8B   C32  713   9.735   4.613   1.242
   20PS8B   C33  714   9.595   4.513   1.205
   21PS8B    C0  715  18.428  14.114   7.440
   21PS8B    C1  716  18.481  14.109   7.273
   21PS8B    C2  717  18.541  13.973   7.181
   21PS8B    C3  718  18.660  13.958   7.040
   21PS8B    B4  719  18.659  14.016   6.914
   21PS8B    B5  720  18.708  14.005   6.770
   21PS8B    B6  721  18.762  13.900   6.714
   21PS8B    B7  722  18.755  13.773   6.734
   21PS8B    B8  723  18.660  13.688   6.752
   21PS8B    B9  724  18.535  13.683   6.720
   21PS8B   B10  725  18.463  13.743   6.642
   21PS8B   B11  726  18.458  13.860   6.599
   21PS8B   B12  727  18.542  13.939   6.543
   21PS8B   B13  728  18.656  13.925   6.486
   21PS8B   B14  729  18.755  13.843   6.499
   21PS8B   B15  730  18.772  13.729   6.558
   21PS8B   B16  731  18.479  13.806   6.554
   21PS8B   B17  732  18.552  13.746   6.552
   21PS8B   B18  733  18.545  13.810   6.488
   21PS8B   B19  734  18.583  13.637   6.572
   21PS8B   B20  735  18.518  13.527   6.556
   21PS8B   B21  736  18.417  13.490   6.485
   21PS8B   B22  737  18.300  13.442   6.511
   21PS8B   B23  738  18.196  13.414   6.440
   21PS8B   B24  739  18.562  13.832   6.382
   21PS8B   B25  740  18.506  13.896   6.286
   21PS8B   B26  741  18.398  13.964   6.273
   21PS8B   B27  742  18.367  14.088   6.282
   21PS8B   B28  743  18.305  14.173   6.206
   21PS8B   B29  744  18.865  13.617   6.514
   21PS8B   C30  745  18.998  13.581   6.485
   21PS8B   C31  746  19.156  13.667   6.522
   21PS8B   C32  747  19.291  13.719   6.424
   21PS8B   C33  748  19.391  13.626   6.315
   22PS8B    C0  749  17.367  22.998   1.580
   22PS8B    C1  750  17.325  22.888   1.710
   22PS8B    C2  751  17.389  22.880   1.872
   22PS8B    C3  752  17.412  22.742   1.993
   22PS8B    B4  753  17.320  22.654   2.049
   22PS8B    B5  754  17.289  22.561   2.165
   22PS8B    B6  755  17.352  22.556   2.279
   22PS8B    B7  756  17.420  22.639   2.348
   22PS8B    B8  757  17.405  22.761   2.387
   22PS8B    B9  758  17.303  22.838   2.408
   22PS8B   B10  759  17.183  22.820   2.423
   22PS8B   B11  760  17.100  22.740   2.377
   22PS8B   B12  761  17.092  22.613   2.370
   22PS8B   B13  762  17.152  22.514   2.427
   22PS8B   B14  763  17.269  22.496   2.476
   22PS8B   B15  764  17.368  22.573   2.510
   22PS8B   B16  765  17.120  22.735   2.447
   22PS8B   B17  766  17.201  22.716   2.492
   22PS8B   B18  767  17.131  22.656   2.497
   22PS8B   B19  768  17.287  22.763   2.551
   22PS8B   B20  769  17.288  22.863   2.633
   22PS8B   B21  770  17.200  22.922   2.706
   22PS8B   B22  771  17.154  23.042   2.713
   22PS8B   B23  772  17.059  23.099   2.780
   22PS8B   B24  773  17.081  22.585   2.562
   22PS8B   B25  774  16.961  22.546   2.588
   22PS8B   B26  775  16.844  22.579   2.547
   22PS8B   B27  776  16.764  22.536   2.457
   22PS8B   B28  777  16.640  22.499   2.454
   22PS8B   B29  778  17.468  22.550   2.621
   22PS8B   C30  779  17.566  22.464   2.674
   22PS8B   C31  780  17.654  22.322   2.596
   22PS8B   C32  781  17.674  22.154   2.641
   22PS8B   C33  782  17.739  22.086   2.789
   23PS8B    C0  783  23.237   4.366  11.586
   23PS8B    C1  784  23.141   4.338  11.730
   23PS8B    C2  785  23.092   4.186  11.802
   23PS8B    C3  786  22.945   4.135  11.902
   23PS8B    B4  787  22.896   4.183  12.023
   23PS8B    B5  788  22.813   4.152  12.147
   23PS8B    B6  789  22.771   4.035  12.185
   23PS8B    B7  790  22.813   3.914  12.168
   23PS8B    B8  791  22.927   3.854  12.178
   23PS8B    B9  792  23.036   3.874  12.245
   23PS8B   B10  793  23.066   3.944  12.341
   23PS8B   B11  794  23.031   4.055  12.383
   23PS8B   B12  795  22.919   4.110  12.412
   23PS8B   B13  796  22.800   4.067  12.433
   23PS8B   B14  797  22.731   3.966  12.392
   23PS8B   B15  798  22.758   3.855  12.331
   23PS8B   B16  799  23.012   3.996  12.419
   23PS8B   B17  800  22.957   3.920  12.400
   23PS8B   B18  801  22.930   3.980  12.464
   23PS8B   B19  802  22.959   3.809  12.373
   23PS8B   B20  803  23.041   3.716  12.406
   23PS8B   B21  804  23.124   3.697  12.504
   23PS8B   B22  805  23.251   3.679  12.513
   23PS8B   B23  806  23.334   3.670  12.611
   23PS8B   B24  807  22.879   3.990  12.560
   23PS8B   B25  808  22.890   4.059  12.668
   23PS8B   B26  809  22.971   4.149  12.712
   23PS8B   B27  810  22.973   4.277  12.713
   23PS8B   B28  811  22.989   4.368  12.802
   23PS8B   B29  812  22.686   3.723  12.347
   23PS8B   C30  813  22.562   3.655  12.336
   23PS8B   C31  814  22.405   3.706  12.254
   23PS8B   C32  815  22.240   3.720  12.309
   23PS8B   C33  816  22.138   3.600  12.384
   24PS8B    C0  817  14.784  19.186  22.130
   24PS8B    C1  818  14.850  19.318  22.223
   24PS8B    C2  819  14.845  19.345  22.397
   24PS8B    C3  820  14.843  19.496  22.502
   24PS8B    B4  821  14.934  19.602  22.511
   24PS8B    B5  822  14.988  19.715  22.597
   24PS8B    B6  823  14.968  19.731  22.725
   24PS8B    B7  824  14.942  19.652  22.823
   24PS8B    B8  825  14.990  19.540  22.866
   24PS8B    B9  826  15.103  19.479  22.857
   24PS8B   B10  827  15.216  19.513  22.825
   24PS8B   B11  828  15.264  19.593  22.744
   24PS8B   B12  829  15.249  19.718  22.721
   24PS8B   B13  830  15.198  19.817  22.785
   24PS8B   B14  831  15.103  19.829  22.872
   24PS8B   B15  832  15.035  19.748  22.946
   24PS8B   B16  833  15.270  19.607  22.815
   24PS8B   B17  834  15.207  19.623  22.885
   24PS8B   B18  835  15.263  19.690  22.857
   24PS8B   B19  836  15.156  19.577  22.975
   24PS8B   B20  837  15.198  19.492  23.062
   24PS8B   B21  838  15.314  19.454  23.104
   24PS8B   B22  839  15.379  19.343  23.107
   24PS8B   B23  840  15.498  19.308  23.140
   24PS8B   B24  841  15.321  19.776  22.892
   24PS8B   B25  842  15.435  19.832  22.868
   24PS8B   B26  843  15.534  19.806  22.791
   24PS8B   B27  844  15.570  19.844  22.673
   24PS8B   B28  845  15.677  19.893  22.622
   24PS8B   B29  846  14.978  19.777  23.083
   24PS8B   C30  847  14.891  19.859  23.159
   24PS8B   C31  848  14.761  19.976  23.104
   24PS8B   C32  849  14.731  20.146  23.135
   24PS8B   C33  850  14.711  20.228  23.288
   25PS8B    C0  851  20.880  16.088  22.110
   25PS8B    C1  852  20.996  16.153  21.995
   25PS8B    C2  853  21.169  16.170  22.012
   25PS8B    C3  854  21.293  16.290  21.945
   25PS8B    B4  855  21.324  16.324  21.813
   25PS8B    B5  856  21.430  16.380  21.719
   25PS8B    B6  857  21.555  16.399  21.747
   25PS8B    B7  858  21.639  16.346  21.828
   25PS8B    B8  859  21.673  16.225  21.859
   25PS8B    B9  860  21.668  16.110  21.800
   25PS8B   B10  861  21.652  16.074  21.684
   25PS8B   B11  862  21.587  16.115  21.587
   25PS8B   B12  863  21.579  16.227  21.525
   25PS8B   B13  864  21.649  16.335  21.522
   25PS8B   B14  865  21.727  16.395  21.605
   25PS8B   B15  866  21.783  16.365  21.718
   25PS8B   B16  867  21.660  16.121  21.587
   25PS8B   B17  868  21.724  16.167  21.639
   25PS8B   B18  869  21.712  16.190  21.551
   25PS8B   B19  870  21.803  16.155  21.721
   25PS8B   B20  871  21.882  16.057  21.749
   25PS8B   B21  872  21.930  15.958  21.682
   25PS8B   B22  873  21.926  15.830  21.693
   25PS8B   B23  874  21.966  15.730  21.621
   25PS8B   B24  875  21.763  16.225  21.461
   25PS8B   B25  876  21.758  16.206  21.334
   25PS8B   B26  877  21.689  16.131  21.256
   25PS8B   B27  878  21.582  16.146  21.187
   25PS8B   B28  879  21.548  16.127  21.064
   25PS8B   B29  880  21.916  16.415  21.769
   25PS8B   C30  881  21.991  16.529  21.805
   25PS8B   C31  882  21.939  16.702  21.836
   25PS8B   C32  883  21.988  16.857  21.770
   25PS8B   C33  884  22.147  16.929  21.764
   26PS8B    C0  885  12.426   5.046  13.125
   26PS8B    C1  886  12.460   4.976  13.281
   26PS8B    C2  887  12.580   5.024  13.400
   26PS8B    C3  888  12.676   4.932  13.528
   26PS8B    B4  889  12.633   4.854  13.635
   26PS8B    B5  890  12.668   4.797  13.772
   26PS8B    B6  891  12.769   4.833  13.847
   26PS8B    B7  892  12.837   4.941  13.861
   26PS8B    B8  893  12.810   5.066  13.874
   26PS8B    B9  894  12.709   5.134  13.917
   26PS8B   B10  895  12.610   5.107  13.984
   26PS8B   B11  896  12.536   5.009  13.996
   26PS8B   B12  897  12.555   4.885  14.022
   26PS8B   B13  898  12.652   4.815  14.070
   26PS8B   B14  899  12.780   4.826  14.069
   26PS8B   B15  900  12.864   4.920  14.040
   26PS8B   B16  901  12.581   5.027  14.051
   26PS8B   B17  902  12.675   5.032  14.061
   26PS8B   B18  903  12.627   4.969  14.108
   26PS8B   B19  904  12.764   5.103  14.067
   26PS8B   B20  905  12.773   5.222  14.116
   26PS8B   B21  906  12.707   5.291  14.203
   26PS8B   B22  907  12.641   5.401  14.201
   26PS8B   B23  908  12.568   5.464  14.286
   26PS8B   B24  909  12.622   4.915  14.203
   26PS8B   B25  910  12.531   4.872  14.284
   26PS8B   B26  911  12.403   4.878  14.289
   26PS8B   B27  912  12.307   4.800  14.253
   26PS8B   B28  913  12.203   4.751  14.309
   26PS8B   B29  914  13.001   4.943  14.102
   26PS8B   C30  915  13.128   4.888  14.127
   26PS8B   C31  916  13.210   4.740  14.054
   26PS8B   C32  917  13.283   4.596  14.123
   26PS8B   C33  918  13.411   4.584  14.242
   27PS8B    C0  919  17.009   3.502   7.264
   27PS8B    C1  920  17.032   3.485   7.437
   27PS8B    C2  921  17.111   3.596   7.548
   27PS8B    C3  922  17.204   3.572   7.705
   27PS8B    B4  923  17.166   3.512   7.826
   27PS8B    B5  924  17.190   3.504   7.976
   27PS8B    B6  925  17.261   3.587   8.047
   27PS8B    B7  926  17.293   3.711   8.037
   27PS8B    B8  927  17.230   3.820   8.011
   27PS8B    B9  928  17.108   3.860   8.024
   27PS8B   B10  929  17.010   3.820   8.085
   27PS8B   B11  930  16.966   3.709   8.117
   27PS8B   B12  931  17.013   3.607   8.179
   27PS8B   B13  932  17.116   3.585   8.253
   27PS8B   B14  933  17.234   3.636   8.262
   27PS8B   B15  934  17.292   3.742   8.216
   27PS8B   B16  935  16.993   3.753   8.169
   27PS8B   B17  936  17.078   3.790   8.187
   27PS8B   B18  937  17.043   3.728   8.244
   27PS8B   B19  938  17.141   3.885   8.181
   27PS8B   B20  939  17.108   4.009   8.195
   27PS8B   B21  940  17.010   4.071   8.252
   27PS8B   B22  941  16.918   4.151   8.214
   27PS8B   B23  942  16.815   4.206   8.269
   27PS8B   B24  943  17.035   3.699   8.349
   27PS8B   B25  944  16.948   3.650   8.430
   27PS8B   B26  945  16.825   3.615   8.420
   27PS8B   B27  946  16.762   3.505   8.398
   27PS8B   B28  947  16.668   3.440   8.456
   27PS8B   B29  948  17.403   3.821   8.283
   27PS8B   C30  949  17.534   3.817   8.335
   27PS8B   C31  950  17.666   3.691   8.315
   27PS8B   C32  951  17.762   3.599   8.428
   27PS8B   C33  952  17.865   3.656   8.558
   28PS8B    C0  953   5.089  19.371   5.471
   28PS8B    C1  954   4.975  19.278   5.566
   28PS8B    C2  955   4.970  19.105   5.593
   28PS8B    C3  956   4.833  18.985   5.624
   28PS8B    B4  957   4.737  18.982   5.725
   28PS8B    B5  958   4.640  18.895   5.805
   28PS8B    B6  959   4.639  18.764   5.808
   28PS8B    B7  960   4.727  18.672   5.791
   28PS8B    B8  961   4.847  18.651   5.834
   28PS8B    B9  962   4.915  18.687   5.938
   28PS8B   B10  963   4.886  18.735   6.047
   28PS8B   B11  964   4.801  18.815   6.088
   28PS8B   B12  965   4.673  18.821   6.082
   28PS8B   B13  966   4.579  18.738   6.052
   28PS8B   B14  967   4.570  18.635   5.975
   28PS8B   B15  968   4.655  18.558   5.914
   28PS8B   B16  969   4.796  18.745   6.107
   28PS8B   B17  970   4.784  18.663   6.059
   28PS8B   B18  971   4.718  18.693   6.116
   28PS8B   B19  972   4.837  18.570   6.019
   28PS8B   B20  973   4.935  18.502   6.067
   28PS8B   B21  974   4.987  18.487   6.184
   28PS8B   B22  975   5.102  18.508   6.237
   28PS8B   B23  976   5.150  18.501   6.356
   28PS8B   B24  977   4.642  18.660   6.188
   28PS8B   B25  978   4.594  18.698   6.300
   28PS8B   B26  979   4.617  18.795   6.382
   28PS8B   B27  980   4.568  18.912   6.401
   28PS8B   B28  981   4.522  18.976   6.502
   28PS8B   B29  982   4.638  18.411   5.884
   28PS8B   C30  983   4.560  18.313   5.820
   28PS8B   C31  984   4.427  18.330   5.694
   28PS8B   C32  985   4.260  18.276   5.687
   28PS8B   C33  986   4.197  18.113   5.702
   29PS8B    C0  987  12.183  15.080  17.626
   29PS8B    C1  988  12.269  15.061  17.777
   29PS8B    C2  989  12.217  15.101  17.939
   29PS8B    C3  990  12.306  15.153  18.092
   29PS8B    B4  991  12.408  15.091  18.164
   29PS8B    B5  992  12.478  15.077  18.299
   29PS8B    B6  993  12.434  15.122  18.413
   29PS8B    B7  994  12.318  15.146  18.462
   29PS8B    B8  995  12.205  15.083  18.468
   29PS8B    B9  996  12.169  14.959  18.463
   29PS8B   B10  997  12.228  14.852  18.476
   29PS8B   B11  998  12.341  14.810  18.448
   29PS8B   B12  999  12.460  14.848  18.473
   29PS8B   B13 1000  12.514  14.930  18.556
   29PS8B   B14 1001  12.475  15.038  18.615
   29PS8B   B15 1002  12.362  15.098  18.632
   29PS8B   B16 1003  12.323  14.820  18.517
   29PS8B   B17 1004  12.299  14.896  18.570
   29PS8B   B18 1005  12.378  14.851  18.587
   29PS8B   B19 1006  12.212  14.950  18.620
   29PS8B   B20 1007  12.104  14.905  18.673
   29PS8B   B21 1008  12.067  14.793  18.724
   29PS8B   B22 1009  11.975  14.707  18.698
   29PS8B   B23 1010  11.944  14.590  18.743
   29PS8B   B24 1011  12.447  14.820  18.665
   29PS8B   B25 1012  12.521  14.719  18.694
   29PS8B   B26 1013  12.544  14.605  18.640
   29PS8B   B27 1014  12.633  14.559  18.560
   29PS8B   B28 1015  12.713  14.458  18.560
   29PS8B   B29 1016  12.321  15.183  18.751
   29PS8B   C30 1017  12.350  15.296  18.829
   29PS8B   C31 1018  12.462  15.438  18.795
   29PS8B   C32 1019  12.596  15.510  18.882
   29PS8B   C33 1020  12.601  15.572  19.045
   30PS8B    C0 1021  20.025   5.216   1.498
   30PS8B    C1 1022  19.986   5.083   1.606
   30PS8B    C2 1023  20.073   4.934   1.633
   30PS8B    C3 1024  20.022   4.763   1.681
   30PS8B    B4 1025  19.953   4.718   1.793
   30PS8B    B5 1026  19.924   4.599   1.884
   30PS8B    B6 1027  19.990   4.486   1.887
   30PS8B    B7 1028  20.111   4.451   1.859
   30PS8B    B8 1029  20.228   4.497   1.886
   30PS8B    B9 1030  20.279   4.569   1.981
   30PS8B   B10 1031  20.242   4.603   2.092
   30PS8B   B11 1032  20.133   4.630   2.144
   30PS8B   B12 1033  20.021   4.570   2.154
   30PS8B   B13 1034  19.980   4.449   2.136
   30PS8B   B14 1035  20.017   4.351   2.061
   30PS8B   B15 1036  20.121   4.324   1.989
   30PS8B   B16 1037  20.167   4.568   2.163
   30PS8B   B17 1038  20.193   4.489   2.117
   30PS8B   B18 1039  20.129   4.485   2.182
   30PS8B   B19 1040  20.282   4.434   2.071
   30PS8B   B20 1041  20.406   4.429   2.106
   30PS8B   B21 1042  20.470   4.449   2.216
   30PS8B   B22 1043  20.563   4.529   2.253
   30PS8B   B23 1044  20.621   4.556   2.366
   30PS8B   B24 1045  20.088   4.423   2.263
   30PS8B   B25 1046  20.040   4.437   2.381
   30PS8B   B26 1047  20.019   4.537   2.459
   30PS8B   B27 1048  19.920   4.614   2.485
   30PS8B   B28 1049  19.858   4.652   2.591
   30PS8B   B29 1050  20.180   4.188   1.961
   30PS8B   C30 1051  20.157   4.060   1.907
   30PS8B   C31 1052  20.021   3.999   1.799
   30PS8B   C32 1053  19.906   3.867   1.813
   30PS8B   C33 1054  19.937   3.696   1.835
   31PS8B    C0 1055  16.043  11.787  11.290
   31PS8B    C1 1056  16.210  11.739  11.311
   31PS8B    C2 1057  16.351  11.839  11.335
   31PS8B    C3 1058  16.529  11.820  11.291
   31PS8B    B4 1059  16.621  11.721  11.324
   31PS8B    B5 1060  16.769  11.686  11.342
   31PS8B    B6 1061  16.868  11.770  11.347
   31PS8B    B7 1062  16.881  11.893  11.382
   31PS8B    B8 1063  16.843  11.964  11.483
   31PS8B    B9 1064  16.812  11.940  11.606
   31PS8B   B10 1065  16.830  11.845  11.682
   31PS8B   B11 1066  16.833  11.722  11.669
   31PS8B   B12 1067  16.899  11.641  11.596
   31PS8B   B13 1068  17.004  11.649  11.522
   31PS8B   B14 1069  17.061  11.744  11.455
   31PS8B   B15 1070  17.049  11.873  11.450
   31PS8B   B16 1071  16.895  11.758  11.684
   31PS8B   B17 1072  16.946  11.824  11.639
   31PS8B   B18 1073  16.981  11.740  11.652
   31PS8B   B19 1074  16.972  11.935  11.636
   31PS8B   B20 1075  16.983  12.022  11.731
   31PS8B   B21 1076  17.005  12.016  11.858
   31PS8B   B22 1077  16.942  12.052  11.963
   31PS8B   B23 1078  16.960  12.038  12.090
   31PS8B   B24 1079  17.073  11.685  11.672
   31PS8B   B25 1080  17.111  11.582  11.740
   31PS8B   B26 1081  17.053  11.499  11.820
   31PS8B   B27 1082  17.000  11.383  11.807
   31PS8B   B28 1083  17.013  11.270  11.866
   31PS8B   B29 1084  17.158  11.973  11.419
   31PS8B   C30 1085  17.254  12.016  11.325
   31PS8B   C31 1086  17.275  11.973  11.147
   31PS8B   C32 1087  17.407  11.908  11.054
   31PS8B   C33 1088  17.570  11.970  11.036
   32PS8B    C0 1089   8.192   2.330  13.883
   32PS8B    C1 1090   8.133   2.335  13.718
   32PS8B    C2 1091   7.971   2.307  13.658
   32PS8B    C3 1092   7.904   2.241  13.500
   32PS8B    B4 1093   7.921   2.285  13.368
   32PS8B    B5 1094   7.863   2.287  13.227
   32PS8B    B6 1095   7.742   2.253  13.193
   32PS8B    B7 1096   7.628   2.250  13.252
   32PS8B    B8 1097   7.561   2.332  13.326
   32PS8B    B9 1098   7.557   2.461  13.339
   32PS8B   B10 1099   7.597   2.555  13.273
   32PS8B   B11 1100   7.695   2.577  13.201
   32PS8B   B12 1101   7.747   2.518  13.099
   32PS8B   B13 1102   7.707   2.428  13.015
   32PS8B   B14 1103   7.624   2.330  13.021
   32PS8B   B15 1104   7.532   2.291  13.103
   32PS8B   B16 1105   7.629   2.571  13.171
   32PS8B   B17 1106   7.565   2.501  13.164
   32PS8B   B18 1107   7.607   2.531  13.088
   32PS8B   B19 1108   7.465   2.463  13.205
   32PS8B   B20 1109   7.361   2.528  13.247
   32PS8B   B21 1110   7.313   2.646  13.228
   32PS8B   B22 1111   7.286   2.746  13.303
   32PS8B   B23 1112   7.247   2.868  13.282
   32PS8B   B24 1113   7.594   2.550  12.982
   32PS8B   B25 1114   7.632   2.636  12.894
   32PS8B   B26 1115   7.702   2.744  12.896
   32PS8B   B27 1116   7.825   2.772  12.875
   32PS8B   B28 1117   7.888   2.857  12.801
   32PS8B   B29 1118   7.404   2.217  13.069
   32PS8B   C30 1119   7.349   2.101  13.012
   32PS8B   C31 1120   7.429   1.940  12.968
   32PS8B   C32 1121   7.438   1.847  12.820
   32PS8B   C33 1122   7.307   1.787  12.720
   33PS8B    C0 1123   7.423  10.432  22.161
   33PS8B    C1 1124   7.260  10.407  22.102
   33PS8B    C2 1125   7.188  10.465  21.953
   33PS8B    C3 1126   7.015  10.509  21.906
   33PS8B    B4 1127   6.897  10.434  21.908
   33PS8B    B5 1128   6.757  10.417  21.851
   33PS8B    B6 1129   6.710  10.475  21.745
   33PS8B    B7 1130   6.761  10.522  21.637
   33PS8B    B8 1131   6.847  10.480  21.550
   33PS8B    B9 1132   6.888  10.365  21.510
   33PS8B   B10 1133   6.846  10.250  21.521
   33PS8B   B11 1134   6.785  10.187  21.608
   33PS8B   B12 1135   6.676  10.205  21.673
   33PS8B   B13 1136   6.573  10.281  21.659
   33PS8B   B14 1137   6.553  10.397  21.608
   33PS8B   B15 1138   6.620  10.477  21.531
   33PS8B   B16 1139   6.751  10.204  21.546
   33PS8B   B17 1140   6.726  10.285  21.504
   33PS8B   B18 1141   6.661  10.229  21.536
   33PS8B   B19 1142   6.753  10.357  21.419
   33PS8B   B20 1143   6.802  10.336  21.302
   33PS8B   B21 1144   6.806  10.234  21.223
   33PS8B   B22 1145   6.900  10.165  21.168
   33PS8B   B23 1146   6.904  10.058  21.096
   33PS8B   B24 1147   6.561  10.191  21.517
   33PS8B   B25 1148   6.496  10.080  21.527
   33PS8B   B26 1149   6.526   9.961  21.564
   33PS8B   B27 1150   6.517   9.895  21.674
   33PS8B   B28 1151   6.467   9.782  21.710
   33PS8B   B29 1152   6.563  10.574  21.429
   33PS8B   C30 1153   6.479  10.685  21.409
   33PS8B   C31 1154   6.405  10.803  21.530
   33PS8B   C32 1155   6.241  10.854  21.563
   33PS8B   C33 1156   6.124  10.925  21.454
   34PS8B    C0 1157   0.439  14.182   3.971
   34PS8B    C1 1158   0.413  14.071   3.838
   34PS8B    C2 1159   0.291  14.076   3.713
   34PS8B    C3 1160   0.205  13.946   3.614
   34PS8B    B4 1161   0.257  13.847   3.530
   34PS8B    B5 1162   0.229  13.754   3.412
   34PS8B    B6 1163   0.127  13.760   3.331
   34PS8B    B7 1164   0.049  13.854   3.291
   34PS8B    B8 1165   0.066  13.974   3.246
   34PS8B    B9 1166   0.162  14.037   3.185
   34PS8B   B10 1167   0.264  14.002   3.127
   34PS8B   B11 1168   0.346  13.911   3.140
   34PS8B   B12 1169   0.339  13.783   3.147
   34PS8B   B13 1170   0.249  13.695   3.120
   34PS8B   B14 1171   0.120  13.695   3.119
   34PS8B   B15 1172   0.027  13.786   3.124
   34PS8B   B16 1173   0.301  13.910   3.083
   34PS8B   B17 1174   0.207  13.904   3.072
   34PS8B   B18 1175   0.260  13.835   3.043
   34PS8B   B19 1176   0.112  13.963   3.049
   34PS8B   B20 1177   0.093  14.064   2.971
   34PS8B   B21 1178   0.155  14.113   2.869
   34PS8B   B22 1179   0.211  14.226   2.841
   34PS8B   B23 1180   0.280  14.271   2.742
   34PS8B   B24 1181   0.272  13.759   2.966
   34PS8B   B25 1182   0.367  13.705   2.898
   34PS8B   B26 1183   0.494  13.720   2.890
   34PS8B   B27 1184   0.596  13.664   2.945
   34PS8B   B28 1185   0.704  13.610   2.902
   34PS8B   B29 1186  -0.110  13.779   3.059
   34PS8B   C30 1187  -0.231  13.709   3.050
   34PS8B   C31 1188  -0.302  13.579   3.159
   34PS8B   C32 1189  -0.360  13.416   3.130
   34PS8B   C33 1190  -0.485  13.362   3.019
   35PS8B    C0 1191  17.500   7.658  10.680
   35PS8B    C1 1192  17.565   7.634  10.519
   35PS8B    C2 1193  17.533   7.505  10.406
   35PS8B    C3 1194  17.633   7.425  10.272
   35PS8B    B4 1195  17.693   7.479  10.159
   35PS8B    B5 1196  17.746   7.452  10.018
   35PS8B    B6 1197  17.725   7.346   9.947
   35PS8B    B7 1198  17.631   7.257   9.942
   35PS8B    B8 1199  17.502   7.260   9.938
   35PS8B    B9 1200  17.414   7.345   9.898
   35PS8B   B10 1201  17.416   7.446   9.829
   35PS8B   B11 1202  17.498   7.537   9.809
   35PS8B   B12 1203  17.621   7.542   9.774
   35PS8B   B13 1204  17.705   7.459   9.723
   35PS8B   B14 1205  17.719   7.330   9.726
   35PS8B   B15 1206  17.645   7.231   9.762
   35PS8B   B16 1207  17.485   7.489   9.756
   35PS8B   B17 1208  17.498   7.395   9.747
   35PS8B   B18 1209  17.547   7.452   9.695
   35PS8B   B19 1210  17.444   7.294   9.747
   35PS8B   B20 1211  17.326   7.261   9.707
   35PS8B   B21 1212  17.240   7.311   9.625
   35PS8B   B22 1213  17.120   7.354   9.633
   35PS8B   B23 1214  17.038   7.413   9.553
   35PS8B   B24 1215  17.592   7.466   9.597
   35PS8B   B25 1216  17.611   7.561   9.512
   35PS8B   B26 1217  17.581   7.685   9.506
   35PS8B   B27 1218  17.641   7.795   9.536
   35PS8B   B28 1219  17.666   7.905   9.475
   35PS8B   B29 1220  17.644   7.091   9.703
   35PS8B   C30 1221  17.721   6.976   9.676
   35PS8B   C31 1222  17.886   6.925   9.738
   35PS8B   C32 1223  18.036   6.880   9.660
   35PS8B   C33 1224  18.064   6.753   9.542
   36PS8B    C0 1225  10.930   6.254  15.452
   36PS8B    C1 1226  10.949   6.080  15.442
   36PS8B    C2 1227  11.076   5.987  15.367
   36PS8B    C3 1228  11.082   5.821  15.286
   36PS8B    B4 1229  11.050   5.695  15.336
   36PS8B    B5 1230  11.072   5.544  15.323
   36PS8B    B6 1231  11.165   5.485  15.254
   36PS8B    B7 1232  11.283   5.518  15.215
   36PS8B    B8 1233  11.387   5.570  15.270
   36PS8B    B9 1234  11.433   5.576  15.391
   36PS8B   B10 1235  11.410   5.516  15.495
   36PS8B   B11 1236  11.309   5.466  15.547
   36PS8B   B12 1237  11.221   5.381  15.509
   36PS8B   B13 1238  11.211   5.296  15.413
   36PS8B   B14 1239  11.259   5.288  15.294
   36PS8B   B15 1240  11.351   5.350  15.227
   36PS8B   B16 1241  11.362   5.422  15.521
   36PS8B   B17 1242  11.399   5.405  15.435
   36PS8B   B18 1243  11.351   5.339  15.478
   36PS8B   B19 1244  11.488   5.425  15.368
   36PS8B   B20 1245  11.614   5.439  15.396
   36PS8B   B21 1246  11.690   5.404  15.494
   36PS8B   B22 1247  11.763   5.465  15.579
   36PS8B   B23 1248  11.832   5.430  15.683
   36PS8B   B24 1249  11.344   5.232  15.495
   36PS8B   B25 1250  11.316   5.150  15.590
   36PS8B   B26 1251  11.285   5.163  15.714
   36PS8B   B27 1252  11.175   5.168  15.780
   36PS8B   B28 1253  11.126   5.106  15.882
   36PS8B   B29 1254  11.438   5.292  15.118
   36PS8B   C30 1255  11.440   5.230  14.991
   36PS8B   C31 1256  11.308   5.212  14.864
   36PS8B   C32 1257  11.237   5.075  14.782
   36PS8B   C33 1258  11.316   4.952  14.686
   37PS8B    C0 1259   4.857  10.163  22.129
   37PS8B    C1 1260   5.000  10.168  22.229
   37PS8B    C2 1261   5.138  10.059  22.229
   37PS8B    C3 1262   5.257  10.004  22.359
   37PS8B    B4 1263   5.342  10.078  22.441
   37PS8B    B5 1264   5.469  10.076  22.525
   37PS8B    B6 1265   5.561   9.983  22.525
   37PS8B    B7 1266   5.602   9.896  22.439
   37PS8B    B8 1267   5.634   9.899  22.314
   37PS8B    B9 1268   5.678   9.990  22.233
   37PS8B   B10 1269   5.728  10.101  22.247
   37PS8B   B11 1270   5.713  10.194  22.327
   37PS8B   B12 1271   5.717  10.205  22.454
   37PS8B   B13 1272   5.762  10.133  22.551
   37PS8B   B14 1273   5.777  10.006  22.569
   37PS8B   B15 1274   5.775   9.901  22.493
   37PS8B   B16 1275   5.774  10.156  22.328
   37PS8B   B17 1276   5.796  10.065  22.346
   37PS8B   B18 1277   5.825  10.131  22.404
   37PS8B   B19 1278   5.825   9.965  22.299
   37PS8B   B20 1279   5.896   9.939  22.194
   37PS8B   B21 1280   5.986  10.002  22.127
   37PS8B   B22 1281   5.998  10.043  22.006
   37PS8B   B23 1282   6.084  10.114  21.941
   37PS8B   B24 1283   5.906  10.161  22.469
   37PS8B   B25 1284   5.968  10.269  22.502
   37PS8B   B26 1285   5.960  10.393  22.469
   37PS8B   B27 1286   5.899  10.496  22.516
   37PS8B   B28 1287   5.934  10.615  22.549
   37PS8B   B29 1288   5.855   9.774  22.512
   37PS8B   C30 1289   5.884   9.666  22.598
   37PS8B   C31 1290   5.795   9.605  22.747
   37PS8B   C32 1291   5.843   9.575  22.912
   37PS8B   C33 1292   5.971   9.471  22.972
   38PS8B    C0 1293  15.919  14.683  15.957
   38PS8B    C1 1294  16.024  14.711  15.819
   38PS8B    C2 1295  16.197  14.741  15.818
   38PS8B    C3 1296  16.308  14.836  15.705
   38PS8B    B4 1297  16.331  14.824  15.568
   38PS8B    B5 1298  16.428  14.849  15.454
   38PS8B    B6 1299  16.553  14.883  15.465
   38PS8B    B7 1300  16.644  14.864  15.553
   38PS8B    B8 1301  16.687  14.764  15.622
   38PS8B    B9 1302  16.687  14.635  15.606
   38PS8B   B10 1303  16.669  14.561  15.511
   38PS8B   B11 1304  16.597  14.563  15.410
   38PS8B   B12 1305  16.578  14.646  15.314
   38PS8B   B13 1306  16.640  14.749  15.269
   38PS8B   B14 1307  16.717  14.838  15.322
   38PS8B   B15 1308  16.781  14.851  15.434
   38PS8B   B16 1309  16.669  14.571  15.402
   38PS8B   B17 1310  16.732  14.636  15.431
   38PS8B   B18 1311  16.714  14.627  15.342
   38PS8B   B19 1312  16.815  14.656  15.507
   38PS8B   B20 1313  16.902  14.578  15.561
   38PS8B   B21 1314  16.954  14.464  15.530
   38PS8B   B22 1315  16.958  14.348  15.584
   38PS8B   B23 1316  17.002  14.232  15.547
   38PS8B   B24 1317  16.758  14.631  15.242
   38PS8B   B25 1318  16.749  14.569  15.130
   38PS8B   B26 1319  16.681  14.469  15.087
   38PS8B   B27 1320  16.570  14.454  15.024
   38PS8B   B28 1321  16.533  14.392  14.918
   38PS8B   B29 1322  16.912  14.923  15.456
   38PS8B   C30 1323  16.982  15.045  15.446
   38PS8B   C31 1324  16.919  15.216  15.419
   38PS8B   C32 1325  16.954  15.340  15.301
   38PS8B   C33 1326  17.108  15.413  15.261
   39PS8B    C0 1327  15.064  17.280   2.345
   39PS8B    C1 1328  14.953  17.259   2.479
   39PS8B    C2 1329  14.934  17.121   2.585
   39PS8B    C3 1330  14.790  17.050   2.677
   39PS8B    B4 1331  14.706  17.107   2.773
   39PS8B    B5 1332  14.612  17.082   2.889
   39PS8B    B6 1333  14.598  16.970   2.954
   39PS8B    B7 1334  14.674  16.869   2.978
   39PS8B    B8 1335  14.795  16.853   3.019
   39PS8B    B9 1336  14.878  16.923   3.089
   39PS8B   B10 1337  14.867  17.020   3.164
   39PS8B   B11 1338  14.795  17.120   3.167
   39PS8B   B12 1339  14.669  17.141   3.166
   39PS8B   B13 1340  14.564  17.068   3.184
   39PS8B   B14 1341  14.537  16.944   3.166
   39PS8B   B15 1342  14.605  16.836   3.144
   39PS8B   B16 1343  14.786  17.068   3.217
   39PS8B   B17 1344  14.760  16.977   3.214
   39PS8B   B18 1345  14.705  17.039   3.254
   39PS8B   B19 1346  14.798  16.869   3.221
   39PS8B   B20 1347  14.895  16.818   3.290
   39PS8B   B21 1348  14.958  16.852   3.397
   39PS8B   B22 1349  15.080  16.878   3.427
   39PS8B   B23 1350  15.141  16.920   3.532
   39PS8B   B24 1351  14.635  17.054   3.337
   39PS8B   B25 1352  14.604  17.147   3.421
   39PS8B   B26 1353  14.646  17.265   3.445
   39PS8B   B27 1354  14.612  17.383   3.409
   39PS8B   B28 1355  14.584  17.493   3.470
   39PS8B   B29 1356  14.571  16.696   3.188
   39PS8B   C30 1357  14.476  16.591   3.183
   39PS8B   C31 1358  14.332  16.567   3.072
   39PS8B   C32 1359  14.161  16.540   3.100
   39PS8B   C33 1360  14.084  16.414   3.194
   40PS8B    C0 1361  17.935  18.590  12.020
   40PS8B    C1 1362  17.788  18.654  12.090
   40PS8B    C2 1363  17.719  18.814  12.072
   40PS8B    C3 1364  17.615  18.921  12.182
   40PS8B    B4 1365  17.491  18.897  12.241
   40PS8B    B5 1366  17.365  18.960  12.299
   40PS8B    B6 1367  17.328  19.084  12.289
   40PS8B    B7 1368  17.349  19.178  12.203
   40PS8B    B8 1369  17.344  19.187  12.075
   40PS8B    B9 1370  17.281  19.125  11.981
   40PS8B   B10 1371  17.185  19.050  11.977
   40PS8B   B11 1372  17.139  18.962  12.052
   40PS8B   B12 1373  17.105  18.957  12.175
   40PS8B   B13 1374  17.080  19.045  12.266
   40PS8B   B14 1375  17.121  19.165  12.290
   40PS8B   B15 1376  17.186  19.255  12.224
   40PS8B   B16 1377  17.103  19.025  12.044
   40PS8B   B17 1378  17.122  19.116  12.064
   40PS8B   B18 1379  17.056  19.072  12.111
   40PS8B   B19 1380  17.152  19.216  12.019
   40PS8B   B20 1381  17.123  19.270  11.905
   40PS8B   B21 1382  17.029  19.254  11.818
   40PS8B   B22 1383  17.024  19.220  11.694
   40PS8B   B23 1384  16.930  19.195  11.610
   40PS8B   B24 1385  16.958  19.084  12.157
   40PS8B   B25 1386  16.849  19.017  12.171
   40PS8B   B26 1387  16.806  18.903  12.131
   40PS8B   B27 1388  16.802  18.785  12.181
   40PS8B   B28 1389  16.711  18.696  12.198
   40PS8B   B29 1390  17.171  19.405  12.236
   40PS8B   C30 1391  17.179  19.516  12.322
   40PS8B   C31 1392  17.254  19.532  12.490
   40PS8B   C32 1393  17.193  19.586  12.645
   40PS8B   C33 1394  17.118  19.738  12.687
   41PS8B    C0 1395   6.195   2.115   4.212
   41PS8B    C1 1396   6.275   2.146   4.060
   41PS8B    C2 1397   6.389   2.045   3.973
   41PS8B    C3 1398   6.530   2.082   3.859
   41PS8B    B4 1399   6.533   2.152   3.738
   41PS8B    B5 1400   6.607   2.173   3.606
   41PS8B    B6 1401   6.699   2.096   3.556
   41PS8B    B7 1402   6.729   1.971   3.567
   41PS8B    B8 1403   6.663   1.861   3.560
   41PS8B    B9 1404   6.553   1.822   3.503
   41PS8B   B10 1405   6.481   1.868   3.416
   41PS8B   B11 1406   6.448   1.982   3.381
   41PS8B   B12 1407   6.511   2.088   3.347
   41PS8B   B13 1408   6.632   2.116   3.314
   41PS8B   B14 1409   6.748   2.065   3.342
   41PS8B   B15 1410   6.789   1.955   3.396
   41PS8B   B16 1411   6.492   1.943   3.338
   41PS8B   B17 1412   6.579   1.907   3.347
   41PS8B   B18 1413   6.564   1.974   3.286
   41PS8B   B19 1414   6.638   1.811   3.365
   41PS8B   B20 1415   6.615   1.689   3.331
   41PS8B   B21 1416   6.544   1.633   3.239
   41PS8B   B22 1417   6.445   1.550   3.237
   41PS8B   B23 1418   6.369   1.501   3.145
   41PS8B   B24 1419   6.592   2.012   3.188
   41PS8B   B25 1420   6.535   2.068   3.086
   41PS8B   B26 1421   6.416   2.102   3.056
   41PS8B   B27 1422   6.347   2.210   3.066
   41PS8B   B28 1423   6.276   2.281   2.985
   41PS8B   B29 1424   6.918   1.881   3.364
   41PS8B   C30 1425   7.058   1.889   3.361
   41PS8B   C31 1426   7.173   2.012   3.434
   41PS8B   C32 1427   7.300   2.113   3.368
   41PS8B   C33 1428   7.442   2.067   3.277
   42PS8B    C0 1429   7.363  10.087   2.479
   42PS8B    C1 1430   7.378   9.973   2.347
   42PS8B    C2 1431   7.448   9.998   2.188
   42PS8B    C3 1432   7.415   9.925   2.022
   42PS8B    B4 1433   7.419   9.793   1.979
   42PS8B    B5 1434   7.435   9.699   1.859
   42PS8B    B6 1435   7.478   9.732   1.741
   42PS8B    B7 1436   7.555   9.824   1.694
   42PS8B    B8 1437   7.670   9.871   1.726
   42PS8B    B9 1438   7.774   9.825   1.788
   42PS8B   B10 1439   7.813   9.714   1.820
   42PS8B   B11 1440   7.758   9.609   1.856
   42PS8B   B12 1441   7.666   9.534   1.808
   42PS8B   B13 1442   7.609   9.522   1.693
   42PS8B   B14 1443   7.584   9.602   1.595
   42PS8B   B15 1444   7.624   9.721   1.561
   42PS8B   B16 1445   7.790   9.612   1.791
   42PS8B   B17 1446   7.775   9.662   1.712
   42PS8B   B18 1447   7.760   9.572   1.711
   42PS8B   B19 1448   7.813   9.750   1.649
   42PS8B   B20 1449   7.933   9.793   1.629
   42PS8B   B21 1450   8.051   9.742   1.638
   42PS8B   B22 1451   8.157   9.767   1.706
   42PS8B   B23 1452   8.272   9.710   1.720
   42PS8B   B24 1453   7.767   9.481   1.650
   42PS8B   B25 1454   7.798   9.357   1.664
   42PS8B   B26 1455   7.838   9.284   1.762
   42PS8B   B27 1456   7.781   9.208   1.848
   42PS8B   B28 1457   7.797   9.086   1.887
   42PS8B   B29 1458   7.640   9.774   1.420
   42PS8B   C30 1459   7.575   9.801   1.298
   42PS8B   C31 1460   7.396   9.808   1.257
   42PS8B   C32 1461   7.296   9.728   1.138
   42PS8B   C33 1462   7.315   9.723   0.964
   43PS8B    C0 1463  22.375  20.241  18.259
   43PS8B    C1 1464  22.437  20.106  18.352
   43PS8B    C2 1465  22.356  19.958  18.398
   43PS8B    C3 1466  22.372  19.844  18.543
   43PS8B    B4 1467  22.482  19.773  18.591
   43PS8B    B5 1468  22.529  19.653  18.672
   43PS8B    B6 1469  22.456  19.553  18.711
   43PS8B    B7 1470  22.349  19.496  18.668
   43PS8B    B8 1471  22.308  19.455  18.553
   43PS8B    B9 1472  22.364  19.415  18.444
   43PS8B   B10 1473  22.477  19.379  18.414
   43PS8B   B11 1474  22.592  19.410  18.450
   43PS8B   B12 1475  22.652  19.416  18.563
   43PS8B   B13 1476  22.629  19.372  18.681
   43PS8B   B14 1477  22.523  19.344  18.748
   43PS8B   B15 1478  22.397  19.329  18.720
   43PS8B   B16 1479  22.565  19.345  18.468
   43PS8B   B17 1480  22.492  19.315  18.521
   43PS8B   B18 1481  22.578  19.298  18.548
   43PS8B   B19 1482  22.387  19.272  18.518
   43PS8B   B20 1483  22.331  19.191  18.434
   43PS8B   B21 1484  22.375  19.103  18.349
   43PS8B   B22 1485  22.366  19.087  18.222
   43PS8B   B23 1486  22.417  19.004  18.137
   43PS8B   B24 1487  22.642  19.225  18.598
   43PS8B   B25 1488  22.762  19.179  18.588
   43PS8B   B26 1489  22.860  19.198  18.508
   43PS8B   B27 1490  22.965  19.273  18.509
   43PS8B   B28 1491  23.091  19.254  18.493
   43PS8B   B29 1492  22.299  19.237  18.790
   43PS8B   C30 1493  22.237  19.203  18.912
   43PS8B   C31 1494  22.229  19.296  19.071
   43PS8B   C32 1495  22.272  19.257  19.236
   43PS8B   C33 1496  22.217  19.123  19.335
   44PS8B    C0 1497  15.777   3.956   9.798
   44PS8B    C1 1498  15.951   3.956   9.818
   44PS8B    C2 1499  16.046   3.902   9.956
   44PS8B    C3 1500  16.208   3.953  10.026
   44PS8B    B4 1501  16.335   3.957   9.968
   44PS8B    B5 1502  16.486   3.955   9.993
   44PS8B    B6 1503  16.545   3.923  10.104
   44PS8B    B7 1504  16.515   3.849  10.205
   44PS8B    B8 1505  16.470   3.729  10.220
   44PS8B    B9 1506  16.470   3.621  10.149
   44PS8B   B10 1507  16.534   3.582  10.052
   44PS8B   B11 1508  16.582   3.636   9.951
   44PS8B   B12 1509  16.662   3.735   9.931
   44PS8B   B13 1510  16.743   3.803  10.004
   44PS8B   B14 1511  16.747   3.835  10.129
   44PS8B   B15 1512  16.687   3.796  10.236
   44PS8B   B16 1513  16.627   3.611  10.003
   44PS8B   B17 1514  16.642   3.632  10.095
   44PS8B   B18 1515  16.707   3.650  10.033
   44PS8B   B19 1516  16.622   3.598  10.202
   44PS8B   B20 1517  16.614   3.479  10.252
   44PS8B   B21 1518  16.657   3.363  10.218
   44PS8B   B22 1519  16.601   3.250  10.191
   44PS8B   B23 1520  16.643   3.136  10.147
   44PS8B   B24 1521  16.815   3.651  10.017
   44PS8B   B25 1522  16.899   3.622   9.924
   44PS8B   B26 1523  16.891   3.575   9.805
   44PS8B   B27 1524  16.884   3.626   9.687
   44PS8B   B28 1525  16.949   3.609   9.577
   44PS8B   B29 1526  16.743   3.792  10.377
   44PS8B   C30 1527  16.800   3.868  10.481
   44PS8B   C31 1528  16.807   4.050  10.507
   44PS8B   C32 1529  16.938   4.163  10.534
   44PS8B   C33 1530  17.060   4.161  10.660
   45PS8B    C0 1531  13.631  22.345  17.234
   45PS8B    C1 1532  13.523  22.326  17.371
   45PS8B    C2 1533  13.525  22.204  17.497
   45PS8B    C3 1534  13.393  22.126  17.600
   45PS8B    B4 1535  13.300  22.183  17.687
   45PS8B    B5 1536  13.210  22.160  17.808
   45PS8B    B6 1537  13.213  22.058  17.889
   45PS8B    B7 1538  13.303  21.975  17.926
   45PS8B    B8 1539  13.425  21.985  17.967
   45PS8B    B9 1540  13.496  22.077  18.025
   45PS8B   B10 1541  13.469  22.180  18.085
   45PS8B   B11 1542  13.382  22.268  18.074
   45PS8B   B12 1543  13.254  22.268  18.072
   45PS8B   B13 1544  13.162  22.183  18.102
   45PS8B   B14 1545  13.154  22.055  18.103
   45PS8B   B15 1546  13.239  21.957  18.095
   45PS8B   B16 1547  13.381  22.223  18.132
   45PS8B   B17 1548  13.369  22.129  18.143
   45PS8B   B18 1549  13.305  22.186  18.174
   45PS8B   B19 1550  13.424  22.031  18.164
   45PS8B   B20 1551  13.526  22.006  18.239
   45PS8B   B21 1552  13.582  22.065  18.339
   45PS8B   B22 1553  13.698  22.114  18.363
   45PS8B   B23 1554  13.751  22.180  18.460
   45PS8B   B24 1555  13.232  22.203  18.254
   45PS8B   B25 1556  13.186  22.301  18.324
   45PS8B   B26 1557  13.209  22.427  18.330
   45PS8B   B27 1558  13.157  22.531  18.277
   45PS8B   B28 1559  13.111  22.643  18.322
   45PS8B   B29 1560  13.227  21.821  18.161
   45PS8B   C30 1561  13.150  21.703  18.172
   45PS8B   C31 1562  13.012  21.641  18.068
   45PS8B   C32 1563  12.847  21.592  18.102
   45PS8B   C33 1564  12.790  21.471  18.214
   46PS8B    C0 1565   5.835  14.667  17.460
   46PS8B    C1 1566   5.823  14.640  17.633
   46PS8B    C2 1567   5.762  14.747  17.757
   46PS8B    C3 1568   5.801  14.770  17.936
   46PS8B    B4 1569   5.795  14.680  18.042
   46PS8B    B5 1570   5.782  14.663  18.193
   46PS8B    B6 1571   5.746  14.755  18.278
   46PS8B    B7 1572   5.674  14.861  18.272
   46PS8B    B8 1573   5.558  14.891  18.223
   46PS8B    B9 1574   5.450  14.825  18.197
   46PS8B   B10 1575   5.407  14.715  18.229
   46PS8B   B11 1576   5.457  14.604  18.252
   46PS8B   B12 1577   5.549  14.561  18.329
   46PS8B   B13 1578   5.612  14.607  18.432
   46PS8B   B14 1579   5.643  14.726  18.473
   46PS8B   B15 1580   5.609  14.846  18.441
   46PS8B   B16 1581   5.429  14.642  18.307
   46PS8B   B17 1582   5.449  14.726  18.347
   46PS8B   B18 1583   5.461  14.648  18.395
   46PS8B   B19 1584   5.416  14.835  18.356
   46PS8B   B20 1585   5.299  14.888  18.353
   46PS8B   B21 1586   5.179  14.846  18.376
   46PS8B   B22 1587   5.071  14.837  18.308
   46PS8B   B23 1588   4.954  14.786  18.328
   46PS8B   B24 1589   5.455  14.603  18.494
   46PS8B   B25 1590   5.420  14.492  18.547
   46PS8B   B26 1591   5.373  14.381  18.504
   46PS8B   B27 1592   5.424  14.268  18.469
   46PS8B   B28 1593   5.402  14.145  18.500
   46PS8B   B29 1594   5.601  14.966  18.533
   46PS8B   C30 1595   5.672  15.050  18.621
   46PS8B   C31 1596   5.853  15.069  18.648
   46PS8B   C32 1597   5.956  15.057  18.789
   46PS8B   C33 1598   5.946  15.145  18.940
   47PS8B    C0 1599  15.028  19.466  18.616
   47PS8B    C1 1600  15.022  19.307  18.689
   47PS8B    C2 1601  15.092  19.157  18.633
   47PS8B    C3 1602  15.043  18.980  18.650
   47PS8B    B4 1603  15.023  18.902  18.765
   47PS8B    B5 1604  15.021  18.761  18.823
   47PS8B    B6 1605  15.066  18.653  18.766
   47PS8B    B7 1606  15.157  18.629  18.679
   47PS8B    B8 1607  15.280  18.664  18.662
   47PS8B    B9 1608  15.376  18.704  18.739
   47PS8B   B10 1609  15.394  18.703  18.860
   47PS8B   B11 1610  15.322  18.713  18.960
   47PS8B   B12 1611  15.218  18.652  19.003
   47PS8B   B13 1612  15.157  18.542  18.973
   47PS8B   B14 1613  15.146  18.472  18.865
   47PS8B   B15 1614  15.205  18.468  18.750
   47PS8B   B16 1615  15.353  18.648  18.945
   47PS8B   B17 1616  15.346  18.587  18.872
   47PS8B   B18 1617  15.315  18.563  18.955
   47PS8B   B19 1618  15.398  18.548  18.778
   47PS8B   B20 1619  15.523  18.533  18.752
   47PS8B   B21 1620  15.630  18.519  18.822
   47PS8B   B22 1621  15.741  18.585  18.834
   47PS8B   B23 1622  15.844  18.576  18.911
   47PS8B   B24 1623  15.305  18.479  19.025
   47PS8B   B25 1624  15.314  18.458  19.152
   47PS8B   B26 1625  15.342  18.529  19.254
   47PS8B   B27 1626  15.274  18.594  19.341
   47PS8B   B28 1627  15.269  18.598  19.470
   47PS8B   B29 1628  15.228  18.346  18.663
   47PS8B   C30 1629  15.167  18.241  18.593
   47PS8B   C31 1630  14.991  18.215  18.545
   47PS8B   C32 1631  14.877  18.085  18.572
   47PS8B   C33 1632  14.891  17.915  18.531
   48PS8B    C0 1633  14.447  19.668  22.002
   48PS8B    C1 1634  14.389  19.570  21.868
   48PS8B    C2 1635  14.251  19.598  21.764
   48PS8B    C3 1636  14.136  19.485  21.672
   48PS8B    B4 1637  14.162  19.388  21.576
   48PS8B    B5 1638  14.106  19.307  21.459
   48PS8B    B6 1639  13.995  19.331  21.395
   48PS8B    B7 1640  13.924  19.436  21.372
   48PS8B    B8 1641  13.949  19.556  21.332
   48PS8B    B9 1642  14.041  19.612  21.261
   48PS8B   B10 1643  14.129  19.571  21.186
   48PS8B   B11 1644  14.200  19.470  21.181
   48PS8B   B12 1645  14.178  19.343  21.182
   48PS8B   B13 1646  14.075  19.268  21.165
   48PS8B   B14 1647  13.949  19.283  21.184
   48PS8B   B15 1648  13.870  19.383  21.207
   48PS8B   B16 1649  14.147  19.478  21.132
   48PS8B   B17 1650  14.053  19.483  21.135
   48PS8B   B18 1651  14.092  19.411  21.095
   48PS8B   B19 1652  13.964  19.555  21.130
   48PS8B   B20 1653  13.946  19.663  21.062
   48PS8B   B21 1654  13.997  19.712  20.954
   48PS8B   B22 1655  14.062  19.819  20.924
   48PS8B   B23 1656  14.121  19.863  20.818
   48PS8B   B24 1657  14.084  19.340  21.012
   48PS8B   B25 1658  14.160  19.281  20.927
   48PS8B   B26 1659  14.286  19.282  20.901
   48PS8B   B27 1660  14.386  19.211  20.936
   48PS8B   B28 1661  14.480  19.149  20.874
   48PS8B   B29 1662  13.725  19.397  21.164
   48PS8B   C30 1663  13.596  19.341  21.170
   48PS8B   C31 1664  13.527  19.212  21.281
   48PS8B   C32 1665  13.445  19.059  21.253
   48PS8B   C33 1666  13.300  19.028  21.161
   49PS8B    C0 1667   1.382  17.102  12.091
   49PS8B    C1 1668   1.420  17.222  11.969
   49PS8B    C2 1669   1.454  17.198  11.799
   49PS8B    C3 1670   1.559  17.288  11.676
   49PS8B    B4 1671   1.555  17.421  11.634
   49PS8B    B5 1672   1.590  17.520  11.523
   49PS8B    B6 1673   1.625  17.490  11.402
   49PS8B    B7 1674   1.604  17.390  11.323
   49PS8B    B8 1675   1.500  17.322  11.287
   49PS8B    B9 1676   1.373  17.346  11.281
   49PS8B   B10 1677   1.304  17.447  11.284
   49PS8B   B11 1678   1.311  17.556  11.341
   49PS8B   B12 1679   1.399  17.648  11.349
   49PS8B   B13 1680   1.506  17.678  11.284
   49PS8B   B14 1681   1.594  17.611  11.218
   49PS8B   B15 1682   1.601  17.490  11.171
   49PS8B   B16 1683   1.321  17.553  11.269
   49PS8B   B17 1684   1.385  17.512  11.212
   49PS8B   B18 1685   1.382  17.603  11.218
   49PS8B   B19 1686   1.403  17.424  11.141
   49PS8B   B20 1687   1.324  17.363  11.060
   49PS8B   B21 1688   1.213  17.394  11.001
   49PS8B   B22 1689   1.094  17.347  11.000
   49PS8B   B23 1690   0.981  17.383  10.948
   49PS8B   B24 1691   1.393  17.696  11.160
   49PS8B   B25 1692   1.338  17.812  11.152
   49PS8B   B26 1693   1.239  17.869  11.210
   49PS8B   B27 1694   1.225  17.947  11.311
   49PS8B   B28 1695   1.169  18.061  11.332
   49PS8B   B29 1696   1.674  17.446  11.046
   49PS8B   C30 1697   1.799  17.439  10.980
   49PS8B   C31 1698   1.969  17.464  11.044
   49PS8B   C32 1699   2.101  17.569  10.997
   49PS8B   C33 1700   2.180  17.584  10.841
   50PS8B    C0 1701   9.722   9.188   4.536
   50PS8B    C1 1702   9.756   9.036   4.457
   50PS8B    C2 1703   9.909   8.951   4.444
   50PS8B    C3 1704   9.981   8.838   4.317
   50PS8B    B4 1705   9.934   8.716   4.267
   50PS8B    B5 1706   9.971   8.585   4.200
   50PS8B    B6 1707  10.091   8.537   4.185
   50PS8B    B7 1708  10.202   8.549   4.249
   50PS8B    B8 1709  10.238   8.543   4.373
   50PS8B    B9 1710  10.191   8.487   4.479
   50PS8B   B10 1711  10.110   8.398   4.500
   50PS8B   B11 1712  10.005   8.361   4.447
   50PS8B   B12 1713   9.971   8.326   4.328
   50PS8B   B13 1714  10.035   8.294   4.221
   50PS8B   B14 1715  10.150   8.323   4.172
   50PS8B   B15 1716  10.258   8.379   4.217
   50PS8B   B16 1717  10.064   8.319   4.442
   50PS8B   B17 1718  10.150   8.329   4.403
   50PS8B   B18 1719  10.092   8.267   4.368
   50PS8B   B19 1720  10.260   8.349   4.425
   50PS8B   B20 1721  10.333   8.316   4.527
   50PS8B   B21 1722  10.327   8.225   4.617
   50PS8B   B22 1723  10.320   8.224   4.745
   50PS8B   B23 1724  10.304   8.132   4.835
   50PS8B   B24 1725  10.085   8.168   4.323
   50PS8B   B25 1726  10.007   8.066   4.326
   50PS8B   B26 1727   9.900   8.034   4.390
   50PS8B   B27 1728   9.774   8.042   4.365
   50PS8B   B28 1729   9.675   7.959   4.369
   50PS8B   B29 1730  10.400   8.349   4.174
   50PS8B   C30 1731  10.491   8.347   4.066
   50PS8B   C31 1732  10.479   8.419   3.898
   50PS8B   C32 1733  10.493   8.353   3.736
   50PS8B   C33 1734  10.626   8.263   3.665
   51PS8B    C0 1735  22.267  12.567  11.479
   51PS8B    C1 1736  22.162  12.454  11.562
   51PS8B    C2 1737  22.205  12.313  11.656
   51PS8B    C3 1738  22.122  12.152  11.689
   51PS8B    B4 1739  21.997  12.124  11.745
   51PS8B    B5 1740  21.911  12.021  11.818
   51PS8B    B6 1741  21.954  11.912  11.876
   51PS8B    B7 1742  22.065  11.875  11.929
   51PS8B    B8 1743  22.148  11.927  12.013
   51PS8B    B9 1744  22.141  12.015  12.108
   51PS8B   B10 1745  22.049  12.066  12.170
   51PS8B   B11 1746  21.932  12.099  12.144
   51PS8B   B12 1747  21.830  12.039  12.095
   51PS8B   B13 1748  21.798  11.916  12.074
   51PS8B   B14 1749  21.864  11.808  12.050
   51PS8B   B15 1750  21.988  11.772  12.058
   51PS8B   B16 1751  21.944  12.042  12.188
   51PS8B   B17 1752  21.985  11.957  12.178
   51PS8B   B18 1753  21.895  11.962  12.193
   51PS8B   B19 1754  22.079  11.896  12.201
   51PS8B   B20 1755  22.159  11.900  12.302
   51PS8B   B21 1756  22.150  11.939  12.424
   51PS8B   B22 1757  22.210  12.026  12.497
   51PS8B   B23 1758  22.194  12.072  12.617
   51PS8B   B24 1759  21.811  11.913  12.242
   51PS8B   B25 1760  21.704  11.947  12.306
   51PS8B   B26 1761  21.650  12.057  12.342
   51PS8B   B27 1762  21.561  12.135  12.293
   51PS8B   B28 1763  21.452  12.189  12.336
   51PS8B   B29 1764  22.041  11.633  12.089
   51PS8B   C30 1765  22.042  11.498  12.051
   51PS8B   C31 1766  21.989  11.417  11.895
   51PS8B   C32 1767  21.878  11.287  11.858
   51PS8B   C33 1768  21.876  11.123  11.919
   52PS8B    C0 1769  19.488  17.560  10.481
   52PS8B    C1 1770  19.539  17.427  10.582
   52PS8B    C2 1771  19.675  17.417  10.692
   52PS8B    C3 1772  19.782  17.278  10.749
   52PS8B    B4 1773  19.750  17.159  10.814
   52PS8B    B5 1774  19.800  17.046  10.903
   52PS8B    B6 1775  19.910  17.046  10.973
   52PS8B    B7 1776  19.984  17.137  11.025
   52PS8B    B8 1777  19.964  17.241  11.098
   52PS8B    B9 1778  19.872  17.279  11.181
   52PS8B   B10 1779  19.782  17.222  11.240
   52PS8B   B11 1780  19.706  17.128  11.215
   52PS8B   B12 1781  19.722  17.006  11.178
   52PS8B   B13 1782  19.821  16.924  11.175
   52PS8B   B14 1783  19.949  16.938  11.163
   52PS8B   B15 1784  20.033  17.036  11.169
   52PS8B   B16 1785  19.757  17.119  11.265
   52PS8B   B17 1786  19.853  17.121  11.264
   52PS8B   B18 1787  19.809  17.043  11.283
   52PS8B   B19 1788  19.944  17.184  11.291
   52PS8B   B20 1789  19.965  17.267  11.387
   52PS8B   B21 1790  19.913  17.286  11.504
   52PS8B   B22 1791  19.852  17.383  11.562
   52PS8B   B23 1792  19.792  17.399  11.675
   52PS8B   B24 1793  19.813  16.951  11.342
   52PS8B   B25 1794  19.732  16.874  11.405
   52PS8B   B26 1795  19.606  16.873  11.429
   52PS8B   B27 1796  19.503  16.820  11.374
   52PS8B   B28 1797  19.405  16.747  11.415
   52PS8B   B29 1798  20.177  17.031  11.216
   52PS8B   C30 1799  20.304  16.973  11.196
   52PS8B   C31 1800  20.370  16.877  11.054
   52PS8B   C32 1801  20.445  16.719  11.039
   52PS8B   C33 1802  20.586  16.656  11.121
   53PS8B    C0 1803  14.718  14.745   9.610
   53PS8B    C1 1804  14.756  14.823   9.763
   53PS8B    C2 1805  14.651  14.917   9.867
   53PS8B    C3 1806  14.681  15.057   9.984
   53PS8B    B4 1807  14.764  15.066  10.096
   53PS8B    B5 1808  14.790  15.136  10.229
   53PS8B    B6 1809  14.707  15.214  10.292
   53PS8B    B7 1810  14.579  15.226  10.298
   53PS8B    B8 1811  14.481  15.145  10.313
   53PS8B    B9 1812  14.465  15.028  10.367
   53PS8B   B10 1813  14.531  14.960  10.444
   53PS8B   B11 1814  14.652  14.942  10.465
   53PS8B   B12 1815  14.751  15.019  10.490
   53PS8B   B13 1816  14.765  15.141  10.526
   53PS8B   B14 1817  14.696  15.249  10.511
   53PS8B   B15 1818  14.575  15.276  10.472
   53PS8B   B16 1819  14.612  14.978  10.514
   53PS8B   B17 1820  14.563  15.060  10.514
   53PS8B   B18 1821  14.639  15.052  10.566
   53PS8B   B19 1822  14.459  15.105  10.510
   53PS8B   B20 1823  14.346  15.062  10.557
   53PS8B   B21 1824  14.312  14.980  10.650
   53PS8B   B22 1825  14.245  14.871  10.656
   53PS8B   B23 1826  14.218  14.784  10.748
   53PS8B   B24 1827  14.684  15.081  10.661
   53PS8B   B25 1828  14.759  15.029  10.752
   53PS8B   B26 1829  14.813  14.915  10.771
   53PS8B   B27 1830  14.928  14.863  10.746
   53PS8B   B28 1831  15.017  14.800  10.814
   53PS8B   B29 1832  14.489  15.391  10.519
   53PS8B   C30 1833  14.477  15.531  10.530
   53PS8B   C31 1834  14.573  15.666  10.450
   53PS8B   C32 1835  14.663  15.803  10.511
   53PS8B   C33 1836  14.608  15.933  10.615
   54PS8B    C0 1837   9.400   7.589   5.059
   54PS8B    C1 1838   9.512   7.484   4.976
   54PS8B    C2 1839   9.505   7.423   4.812
   54PS8B    C3 1840   9.566   7.269   4.730
   54PS8B    B4 1841   9.694   7.215   4.721
   54PS8B    B5 1842   9.788   7.124   4.643
   54PS8B    B6 1843   9.767   7.075   4.524
   54PS8B    B7 1844   9.698   7.112   4.422
   54PS8B    B8 1845   9.684   7.222   4.356
   54PS8B    B9 1846   9.756   7.328   4.338
   54PS8B   B10 1847   9.874   7.355   4.355
   54PS8B   B11 1848   9.961   7.323   4.437
   54PS8B   B12 1849  10.008   7.212   4.479
   54PS8B   B13 1850  10.004   7.089   4.440
   54PS8B   B14 1851   9.919   7.019   4.372
   54PS8B   B15 1852   9.815   7.045   4.299
   54PS8B   B16 1853   9.966   7.299   4.368
   54PS8B   B17 1854   9.913   7.242   4.313
   54PS8B   B18 1855   9.996   7.214   4.340
   54PS8B   B19 1856   9.838   7.241   4.227
   54PS8B   B20 1857   9.828   7.317   4.123
   54PS8B   B21 1858   9.910   7.393   4.058
   54PS8B   B22 1859   9.914   7.518   4.028
   54PS8B   B23 1860  10.000   7.595   3.971
   54PS8B   B24 1861  10.084   7.158   4.308
   54PS8B   B25 1862  10.212   7.165   4.320
   54PS8B   B26 1863  10.294   7.247   4.375
   54PS8B   B27 1864  10.354   7.254   4.489
   54PS8B   B28 1865  10.475   7.269   4.528
   54PS8B   B29 1866   9.766   6.967   4.179
   54PS8B   C30 1867   9.722   6.841   4.132
   54PS8B   C31 1868   9.667   6.692   4.224
   54PS8B   C32 1869   9.717   6.524   4.223
   54PS8B   C33 1870   9.725   6.413   4.088
   55PS8B    C0 1871  20.167  17.035  13.754
   55PS8B    C1 1872  20.271  17.053  13.894
   55PS8B    C2 1873  20.263  17.173  14.022
   55PS8B    C3 1874  20.390  17.252  14.130
   55PS8B    B4 1875  20.483  17.195  14.218
   55PS8B    B5 1876  20.570  17.217  14.341
   55PS8B    B6 1877  20.562  17.317  14.424
   55PS8B    B7 1878  20.468  17.397  14.461
   55PS8B    B8 1879  20.346  17.383  14.499
   55PS8B    B9 1880  20.277  17.289  14.554
   55PS8B   B10 1881  20.304  17.184  14.612
   55PS8B   B11 1882  20.394  17.099  14.601
   55PS8B   B12 1883  20.522  17.102  14.602
   55PS8B   B13 1884  20.611  17.189  14.636
   55PS8B   B14 1885  20.615  17.318  14.640
   55PS8B   B15 1886  20.528  17.413  14.633
   55PS8B   B16 1887  20.393  17.143  14.659
   55PS8B   B17 1888  20.401  17.237  14.673
   55PS8B   B18 1889  20.466  17.180  14.704
   55PS8B   B19 1890  20.344  17.333  14.695
   55PS8B   B20 1891  20.239  17.353  14.768
   55PS8B   B21 1892  20.182  17.291  14.866
   55PS8B   B22 1893  20.067  17.239  14.886
   55PS8B   B23 1894  20.014  17.168  14.980
   55PS8B   B24 1895  20.537  17.164  14.786
   55PS8B   B25 1896  20.585  17.066  14.854
   55PS8B   B26 1897  20.565  16.939  14.858
   55PS8B   B27 1898  20.621  16.837  14.804
   55PS8B   B28 1899  20.668  16.726  14.847
   55PS8B   B29 1900  20.535  17.548  14.701
   55PS8B   C30 1901  20.609  17.667  14.717
   55PS8B   C31 1902  20.747  17.736  14.617
   55PS8B   C32 1903  20.910  17.788  14.657
   55PS8B   C33 1904  20.961  17.908  14.773
   56PS8B    C0 1905   6.869  21.507   3.500
   56PS8B    C1 1906   6.849  21.571   3.338
   56PS8B    C2 1907   6.934  21.527   3.191
   56PS8B    C3 1908   6.978  21.620   3.038
   56PS8B    B4 1909   6.898  21.687   2.945
   56PS8B    B5 1910   6.886  21.738   2.802
   56PS8B    B6 1911   6.963  21.707   2.702
   56PS8B    B7 1912   7.036  21.605   2.672
   56PS8B    B8 1913   7.019  21.478   2.672
   56PS8B    B9 1914   6.917  21.398   2.662
   56PS8B   B10 1915   6.801  21.412   2.626
   56PS8B   B11 1916   6.717  21.502   2.634
   56PS8B   B12 1917   6.714  21.626   2.599
   56PS8B   B13 1918   6.785  21.701   2.523
   56PS8B   B14 1919   6.909  21.702   2.487
   56PS8B   B15 1920   7.007  21.618   2.493
   56PS8B   B16 1921   6.745  21.485   2.569
   56PS8B   B17 1922   6.832  21.488   2.531
   56PS8B   B18 1923   6.767  21.544   2.499
   56PS8B   B19 1924   6.923  21.425   2.502
   56PS8B   B20 1925   6.930  21.305   2.456
   56PS8B   B21 1926   6.849  21.226   2.394
   56PS8B   B22 1927   6.798  21.110   2.418
   56PS8B   B23 1928   6.710  21.035   2.361
   56PS8B   B24 1929   6.728  21.591   2.408
   56PS8B   B25 1930   6.614  21.621   2.356
   56PS8B   B26 1931   6.492  21.603   2.389
   56PS8B   B27 1932   6.403  21.673   2.450
   56PS8B   B28 1933   6.282  21.710   2.425
   56PS8B   B29 1934   7.121  21.604   2.394
   56PS8B   C30 1935   7.229  21.669   2.331
   56PS8B   C31 1936   7.313  21.828   2.371
   56PS8B   C32 1937   7.347  21.973   2.280
   56PS8B   C33 1938   7.433  21.990   2.128
   57PS8B    C0 1939  14.456   3.525  18.195
   57PS8B    C1 1940  14.400   3.575  18.353
   57PS8B    C2 1941  14.363   3.476  18.493
   57PS8B    C3 1942  14.244   3.494  18.633
   57PS8B    B4 1943  14.231   3.595  18.729
   57PS8B    B5 1944  14.181   3.632  18.868
   57PS8B    B6 1945  14.145   3.548  18.961
   57PS8B    B7 1946  14.175   3.427  18.991
   57PS8B    B8 1947  14.284   3.360  19.002
   57PS8B    B9 1948  14.408   3.389  19.029
   57PS8B   B10 1949  14.464   3.487  19.075
   57PS8B   B11 1950  14.447   3.609  19.070
   57PS8B   B12 1951  14.349   3.688  19.095
   57PS8B   B13 1952  14.237   3.677  19.158
   57PS8B   B14 1953  14.155   3.579  19.181
   57PS8B   B15 1954  14.160   3.450  19.171
   57PS8B   B16 1955  14.435   3.574  19.133
   57PS8B   B17 1956  14.374   3.507  19.161
   57PS8B   B18 1957  14.367   3.591  19.196
   57PS8B   B19 1958  14.363   3.396  19.185
   57PS8B   B20 1959  14.447   3.313  19.238
   57PS8B   B21 1960  14.551   3.324  19.314
   57PS8B   B22 1961  14.675   3.292  19.304
   57PS8B   B23 1962  14.780   3.312  19.376
   57PS8B   B24 1963  14.343   3.648  19.286
   57PS8B   B25 1964  14.384   3.753  19.348
   57PS8B   B26 1965  14.478   3.839  19.329
   57PS8B   B27 1966  14.486   3.954  19.273
   57PS8B   B28 1967  14.529   4.070  19.308
   57PS8B   B29 1968  14.089   3.349  19.258
   57PS8B   C30 1969  13.964   3.303  19.304
   57PS8B   C31 1970  13.794   3.339  19.243
   57PS8B   C32 1971  13.649   3.400  19.320
   57PS8B   C33 1972  13.563   3.339  19.460
   58PS8B    C0 1973   2.900   3.425  16.310
   58PS8B    C1 1974   2.747   3.371  16.245
   58PS8B    C2 1975   2.595   3.344  16.328
   58PS8B    C3 1976   2.454   3.229  16.299
   58PS8B    B4 1977   2.371   3.212  16.188
   58PS8B    B5 1978   2.235   3.164  16.138
   58PS8B    B6 1979   2.131   3.136  16.211
   58PS8B    B7 1980   2.088   3.175  16.326
   58PS8B    B8 1981   2.073   3.288  16.384
   58PS8B    B9 1982   2.055   3.410  16.345
   58PS8B   B10 1983   2.023   3.463  16.240
   58PS8B   B11 1984   2.042   3.438  16.120
   58PS8B   B12 1985   2.023   3.336  16.045
   58PS8B   B13 1986   1.955   3.227  16.054
   58PS8B   B14 1987   1.918   3.152  16.152
   58PS8B   B15 1988   1.912   3.165  16.281
   58PS8B   B16 1989   1.975   3.430  16.148
   58PS8B   B17 1990   1.937   3.374  16.214
   58PS8B   B18 1991   1.912   3.363  16.127
   58PS8B   B19 1992   1.899   3.371  16.322
   58PS8B   B20 1993   1.839   3.461  16.393
   58PS8B   B21 1994   1.770   3.566  16.366
   58PS8B   B22 1995   1.780   3.691  16.392
   58PS8B   B23 1996   1.716   3.798  16.358
   58PS8B   B24 1997   1.829   3.338  16.061
   58PS8B   B25 1998   1.782   3.375  15.947
   58PS8B   B26 1999   1.814   3.462  15.859
   58PS8B   B27 2000   1.884   3.461  15.751
   58PS8B   B28 2001   1.865   3.499  15.629
   58PS8B   B29 2002   1.811   3.102  16.374
   58PS8B   C30 2003   1.755   2.981  16.421
   58PS8B   C31 2004   1.813   2.808  16.403
   58PS8B   C32 2005   1.739   2.662  16.341
   58PS8B   C33 2006   1.589   2.584  16.390
   59PS8B    C0 2007   6.959   0.755   9.655
   59PS8B    C1 2008   6.847   0.624   9.683
   59PS8B    C2 2009   6.806   0.544   9.834
   59PS8B    C3 2010   6.753   0.373   9.877
   59PS8B    B4 2011   6.643   0.298   9.834
   59PS8B    B5 2012   6.548   0.183   9.865
   59PS8B    B6 2013   6.534   0.124   9.980
   59PS8B    B7 2014   6.553   0.158  10.103
   59PS8B    B8 2015   6.520   0.259  10.175
   59PS8B    B9 2016   6.426   0.349  10.172
   59PS8B   B10 2017   6.319   0.358  10.114
   59PS8B   B11 2018   6.276   0.324  10.003
   59PS8B   B12 2019   6.271   0.213   9.939
   59PS8B   B13 2020   6.285   0.089   9.970
   59PS8B   B14 2021   6.352   0.025  10.060
   59PS8B   B15 2022   6.416   0.057  10.168
   59PS8B   B16 2023   6.252   0.290  10.063
   59PS8B   B17 2024   6.292   0.236  10.130
   59PS8B   B18 2025   6.231   0.199  10.073
   59PS8B   B19 2026   6.329   0.236  10.238
   59PS8B   B20 2027   6.286   0.298  10.343
   59PS8B   B21 2028   6.174   0.351  10.377
   59PS8B   B22 2029   6.134   0.469  10.410
   59PS8B   B23 2030   6.020   0.523  10.435
   59PS8B   B24 2031   6.150   0.126  10.065
   59PS8B   B25 2032   6.036   0.113  10.006
   59PS8B   B26 2033   5.965   0.188   9.930
   59PS8B   B27 2034   5.950   0.200   9.803
   59PS8B   B28 2035   5.851   0.200   9.722
   59PS8B   B29 2036   6.433  -0.027  10.292
   59PS8B   C30 2037   6.481  -0.149  10.345
   59PS8B   C31 2038   6.594  -0.274  10.272
   59PS8B   C32 2039   6.581  -0.446  10.244
   59PS8B   C33 2040   6.548  -0.574  10.359
   60PS8B    C0 2041  13.823  21.245   9.811
   60PS8B    C1 2042  13.663  21.176   9.825
   60PS8B    C2 2043  13.591  21.093   9.961
   60PS8B    C3 2044  13.464  20.959   9.976
   60PS8B    B4 2045  13.332  20.954   9.931
   60PS8B    B5 2046  13.195  20.890   9.950
   60PS8B    B6 2047  13.155  20.820  10.052
   60PS8B    B7 2048  13.188  20.815  10.177
   60PS8B    B8 2049  13.206  20.902  10.270
   60PS8B    B9 2050  13.165  21.022  10.293
   60PS8B   B10 2051  13.074  21.092  10.249
   60PS8B   B11 2052  13.019  21.105  10.139
   60PS8B   B12 2053  12.963  21.025  10.056
   60PS8B   B13 2054  12.918  20.905  10.061
   60PS8B   B14 2055  12.948  20.800  10.130
   60PS8B   B15 2056  13.020  20.776  10.235
   60PS8B   B16 2057  12.982  21.074  10.193
   60PS8B   B17 2058  12.993  20.995  10.245
   60PS8B   B18 2059  12.922  21.002  10.188
   60PS8B   B19 2060  13.027  20.955  10.347
   60PS8B   B20 2061  13.017  21.006  10.465
   60PS8B   B21 2062  12.942  21.095  10.520
   60PS8B   B22 2063  12.962  21.207  10.578
   60PS8B   B23 2064  12.886  21.300  10.625
   60PS8B   B24 2065  12.816  20.977  10.175
   60PS8B   B25 2066  12.710  21.030  10.127
   60PS8B   B26 2067  12.680  21.143  10.073
   60PS8B   B27 2068  12.673  21.188   9.953
   60PS8B   B28 2069  12.584  21.250   9.884
   60PS8B   B29 2070  12.996  20.668  10.339
   60PS8B   C30 2071  12.983  20.530  10.363
   60PS8B   C31 2072  13.025  20.386  10.256
   60PS8B   C32 2073  12.934  20.249  10.197
   60PS8B   C33 2074  12.845  20.128  10.288
   61PS8B    C0 2075  20.875  14.896   6.417
   61PS8B    C1 2076  20.803  14.836   6.566
   61PS8B    C2 2077  20.824  14.680   6.642
   61PS8B    C3 2078  20.715  14.575   6.749
   61PS8B    B4 2079  20.653  14.603   6.871
   61PS8B    B5 2080  20.594  14.544   6.998
   61PS8B    B6 2081  20.607  14.422   7.040
   61PS8B    B7 2082  20.695  14.329   7.025
   61PS8B    B8 2083  20.824  14.323   7.032
   61PS8B    B9 2084  20.915  14.390   7.095
   61PS8B   B10 2085  20.915  14.470   7.188
   61PS8B   B11 2086  20.837  14.558   7.228
   61PS8B   B12 2087  20.713  14.561   7.260
   61PS8B   B13 2088  20.624  14.472   7.286
   61PS8B   B14 2089  20.603  14.350   7.250
   61PS8B   B15 2090  20.673  14.259   7.191
   61PS8B   B16 2091  20.846  14.497   7.267
   61PS8B   B17 2092  20.828  14.404   7.252
   61PS8B   B18 2093  20.780  14.450   7.315
   61PS8B   B19 2094  20.876  14.304   7.227
   61PS8B   B20 2095  20.991  14.255   7.260
   61PS8B   B21 2096  21.076  14.277   7.355
   61PS8B   B22 2097  21.199  14.314   7.360
   61PS8B   B23 2098  21.280  14.345   7.455
   61PS8B   B24 2099  20.731  14.441   7.412
   61PS8B   B25 2100  20.714  14.512   7.518
   61PS8B   B26 2101  20.750  14.629   7.557
   61PS8B   B27 2102  20.698  14.746   7.554
   61PS8B   B28 2103  20.676  14.838   7.641
   61PS8B   B29 2104  20.664  14.109   7.212
   61PS8B   C30 2105  20.581  13.996   7.208
   61PS8B   C31 2106  20.416  13.972   7.130
   61PS8B   C32 2107  20.261  13.917   7.191
   61PS8B   C33 2108  20.221  13.767   7.272
   62PS8B    C0 2109  15.885  19.332  15.545
   62PS8B    C1 2110  15.942  19.211  15.432
   62PS8B    C2 2111  15.968  19.040  15.458
   62PS8B    C3 2112  16.085  18.917  15.385
   62PS8B    B4 2113  16.103  18.877  15.252
   62PS8B    B5 2114  16.152  18.767  15.159
   62PS8B    B6 2115  16.181  18.644  15.192
   62PS8B    B7 2116  16.141  18.565  15.286
   62PS8B    B8 2117  16.027  18.529  15.334
   62PS8B    B9 2118  15.906  18.526  15.290
   62PS8B   B10 2119  15.855  18.531  15.179
   62PS8B   B11 2120  15.881  18.590  15.073
   62PS8B   B12 2121  15.983  18.598  14.997
   62PS8B   B13 2122  16.093  18.532  14.984
   62PS8B   B14 2123  16.167  18.463  15.065
   62PS8B   B15 2124  16.153  18.414  15.184
   62PS8B   B16 2125  15.889  18.518  15.077
   62PS8B   B17 2126  15.945  18.459  15.127
   62PS8B   B18 2127  15.957  18.466  15.036
   62PS8B   B19 2128  15.947  18.387  15.215
   62PS8B   B20 2129  15.857  18.306  15.260
   62PS8B   B21 2130  15.752  18.249  15.211
   62PS8B   B22 2131  15.627  18.250  15.237
   62PS8B   B23 2132  15.521  18.201  15.182
   62PS8B   B24 2133  15.982  18.410  14.946
   62PS8B   B25 2134  15.947  18.405  14.823
   62PS8B   B26 2135  15.860  18.465  14.750
   62PS8B   B27 2136  15.862  18.567  14.673
   62PS8B   B28 2137  15.826  18.591  14.551
   62PS8B   B29 2138  16.216  18.287  15.238
   62PS8B   C30 2139  16.337  18.219  15.264
   62PS8B   C31 2140  16.510  18.280  15.269
   62PS8B   C32 2141  16.657  18.233  15.187
   62PS8B   C33 2142  16.735  18.076  15.183
   63PS8B    C0 2143  10.972   8.876  12.440
   63PS8B    C1 2144  11.038   8.907  12.599
   63PS8B    C2 2145  11.144   8.807  12.696
   63PS8B    C3 2146  11.167   8.785  12.878
   63PS8B    B4 2147  11.200   8.877  12.977
   63PS8B    B5 2148  11.260   8.897  13.116
   63PS8B    B6 2149  11.329   8.810  13.184
   63PS8B    B7 2150  11.403   8.710  13.154
   63PS8B    B8 2151  11.498   8.688  13.070
   63PS8B    B9 2152  11.587   8.762  13.010
   63PS8B   B10 2153  11.629   8.875  13.027
   63PS8B   B11 2154  11.581   8.982  13.066
   63PS8B   B12 2155  11.516   9.020  13.170
   63PS8B   B13 2156  11.494   8.970  13.286
   63PS8B   B14 2157  11.487   8.851  13.334
   63PS8B   B15 2158  11.518   8.733  13.292
   63PS8B   B16 2159  11.628   8.947  13.108
   63PS8B   B17 2160  11.629   8.863  13.153
   63PS8B   B18 2161  11.627   8.941  13.202
   63PS8B   B19 2162  11.671   8.757  13.149
   63PS8B   B20 2163  11.785   8.713  13.108
   63PS8B   B21 2164  11.902   8.765  13.091
   63PS8B   B22 2165  11.982   8.780  12.991
   63PS8B   B23 2166  12.094   8.840  12.973
   63PS8B   B24 2167  11.662   8.988  13.294
   63PS8B   B25 2168  11.704   9.103  13.334
   63PS8B   B26 2169  11.725   9.216  13.278
   63PS8B   B27 2170  11.657   9.324  13.263
   63PS8B   B28 2171  11.677   9.449  13.286
   63PS8B   B29 2172  11.565   8.615  13.376
   63PS8B   C30 2173  11.533   8.528  13.482
   63PS8B   C31 2174  11.372   8.496  13.566
   63PS8B   C32 2175  11.320   8.503  13.733
   63PS8B   C33 2176  11.386   8.419  13.873
   64PS8B    C0 2177  18.934  11.778  16.355
   64PS8B    C1 2178  18.846  11.925  16.393
   64PS8B    C2 2179  18.746  12.023  16.288
   64PS8B    C3 2180  18.706  12.203  16.283
   64PS8B    B4 2181  18.648  12.286  16.379
   64PS8B    B5 2182  18.571  12.415  16.405
   64PS8B    B6 2183  18.509  12.487  16.316
   64PS8B    B7 2184  18.455  12.463  16.201
   64PS8B    B8 2185  18.374  12.374  16.155
   64PS8B    B9 2186  18.283  12.298  16.206
   64PS8B   B10 2187  18.222  12.296  16.312
   64PS8B   B11 2188  18.249  12.324  16.429
   64PS8B   B12 2189  18.295  12.428  16.488
   64PS8B   B13 2190  18.310  12.552  16.457
   64PS8B   B14 2191  18.330  12.615  16.346
   64PS8B   B15 2192  18.322  12.586  16.220
   64PS8B   B16 2193  18.202  12.366  16.392
   64PS8B   B17 2194  18.209  12.421  16.314
   64PS8B   B18 2195  18.194  12.460  16.396
   64PS8B   B19 2196  18.185  12.427  16.203
   64PS8B   B20 2197  18.084  12.382  16.136
   64PS8B   B21 2198  17.963  12.347  16.165
   64PS8B   B22 2199  17.895  12.239  16.156
   64PS8B   B23 2200  17.777  12.203  16.194
   64PS8B   B24 2201  18.142  12.542  16.447
   64PS8B   B25 2202  18.079  12.562  16.557
   64PS8B   B26 2203  18.047  12.490  16.658
   64PS8B   B27 2204  18.099  12.468  16.773
   64PS8B   B28 2205  18.057  12.472  16.895
   64PS8B   B29 2206  18.285  12.680  16.107
   64PS8B   C30 2207  18.318  12.799  16.039
   64PS8B   C31 2208  18.471  12.901  16.044
   64PS8B   C32 2209  18.502  13.070  16.078
   64PS8B   C33 2210  18.434  13.212  16.000
   65PS8B    C0 2211   7.752  13.127   1.058
   65PS8B    C1 2212   7.700  13.115   0.891
   65PS8B    C2 2213   7.637  13.241   0.787
   65PS8B    C3 2214   7.519  13.241   0.645
   65PS8B    B4 2215   7.522  13.172   0.524
   65PS8B    B5 2216   7.475  13.169   0.379
   65PS8B    B6 2217   7.418  13.267   0.314
   65PS8B    B7 2218   7.421  13.395   0.323
   65PS8B    B8 2219   7.513  13.484   0.334
   65PS8B    B9 2220   7.638  13.491   0.303
   65PS8B   B10 2221   7.712  13.426   0.230
   65PS8B   B11 2222   7.721  13.307   0.198
   65PS8B   B12 2223   7.641  13.221   0.148
   65PS8B   B13 2224   7.526  13.226   0.090
   65PS8B   B14 2225   7.425  13.306   0.095
   65PS8B   B15 2226   7.403  13.424   0.144
   65PS8B   B16 2227   7.699  13.356   0.149
   65PS8B   B17 2228   7.624  13.414   0.141
   65PS8B   B18 2229   7.634  13.344   0.082
   65PS8B   B19 2230   7.590  13.522   0.151
   65PS8B   B20 2231   7.651  13.633   0.126
   65PS8B   B21 2232   7.752  13.667   0.053
   65PS8B   B22 2233   7.867  13.721   0.075
   65PS8B   B23 2234   7.970  13.746   0.003
   65PS8B   B24 2235   7.618  13.313  -0.021
   65PS8B   B25 2236   7.678  13.243  -0.111
   65PS8B   B26 2237   7.788  13.177  -0.117
   65PS8B   B27 2238   7.822  13.055  -0.098
   65PS8B   B28 2239   7.887  12.967  -0.166
   65PS8B   B29 2240   7.308  13.528   0.090
   65PS8B   C30 2241   7.174  13.558   0.057
   65PS8B   C31 2242   7.019  13.471   0.101
   65PS8B   C32 2243   6.886  13.405   0.006
   65PS8B   C33 2244   6.784  13.486  -0.110
   66PS8B    C0 2245   1.553  15.151  13.677
   66PS8B    C1 2246   1.558  15.326  13.670
   66PS8B    C2 2247   1.663  15.436  13.756
   66PS8B    C3 2248   1.643  15.610  13.817
   66PS8B    B4 2249   1.613  15.727  13.748
   66PS8B    B5 2250   1.623  15.879  13.747
   66PS8B    B6 2251   1.697  15.952  13.825
   66PS8B    B7 2252   1.807  15.934  13.889
   66PS8B    B8 2253   1.923  15.885  13.859
   66PS8B    B9 2254   1.992  15.871  13.751
   66PS8B   B10 2255   1.985  15.918  13.638
   66PS8B   B11 2256   1.893  15.954  13.563
   66PS8B   B12 2257   1.794  16.034  13.574
   66PS8B   B13 2258   1.761  16.128  13.656
   66PS8B   B14 2259   1.784  16.152  13.781
   66PS8B   B15 2260   1.865  16.105  13.870
   66PS8B   B16 2261   1.937  16.004  13.593
   66PS8B   B17 2262   1.955  16.033  13.681
   66PS8B   B18 2263   1.913  16.090  13.623
   66PS8B   B19 2264   2.032  16.028  13.766
   66PS8B   B20 2265   2.161  16.021  13.763
   66PS8B   B21 2266   2.252  16.053  13.678
   66PS8B   B22 2267   2.344  15.989  13.615
   66PS8B   B23 2268   2.429  16.019  13.522
   66PS8B   B24 2269   1.903  16.194  13.594
   66PS8B   B25 2270   1.889  16.263  13.486
   66PS8B   B26 2271   1.882  16.236  13.361
   66PS8B   B27 2272   1.787  16.215  13.277
   66PS8B   B28 2273   1.755  16.262  13.161
   66PS8B   B29 2274   1.926  16.181  13.986
   66PS8B   C30 2275   1.900  16.255  14.103
   66PS8B   C31 2276   1.745  16.274  14.200
   66PS8B   C32 2277   1.652  16.413  14.252
   66PS8B   C33 2278   1.703  16.551  14.346
   67PS8B    C0 2279   7.407   0.989  11.263
   67PS8B    C1 2280   7.497   0.909  11.136
   67PS8B    C2 2281   7.438   0.844  10.984
   67PS8B    C3 2282   7.493   0.704  10.877
   67PS8B    B4 2283   7.615   0.680  10.814
   67PS8B    B5 2284   7.687   0.609  10.700
   67PS8B    B6 2285   7.631   0.553  10.597
   67PS8B    B7 2286   7.521   0.571  10.532
   67PS8B    B8 2287   7.458   0.673  10.484
   67PS8B    B9 2288   7.492   0.792  10.445
   67PS8B   B10 2289   7.598   0.845  10.415
   67PS8B   B11 2290   7.715   0.836  10.454
   67PS8B   B12 2291   7.798   0.739  10.468
   67PS8B   B13 2292   7.805   0.618  10.426
   67PS8B   B14 2293   7.718   0.528  10.394
   67PS8B   B15 2294   7.591   0.528  10.370
   67PS8B   B16 2295   7.698   0.811  10.388
   67PS8B   B17 2296   7.640   0.742  10.355
   67PS8B   B18 2297   7.731   0.734  10.345
   67PS8B   B19 2298   7.540   0.722  10.306
   67PS8B   B20 2299   7.473   0.790  10.219
   67PS8B   B21 2300   7.502   0.880  10.132
   67PS8B   B22 2301   7.468   1.002  10.111
   67PS8B   B23 2302   7.504   1.095  10.029
   67PS8B   B24 2303   7.810   0.699  10.278
   67PS8B   B25 2304   7.927   0.734  10.238
   67PS8B   B26 2305   8.004   0.834  10.261
   67PS8B   B27 2306   8.100   0.858  10.342
   67PS8B   B28 2307   8.221   0.901  10.331
   67PS8B   B29 2308   7.516   0.437  10.274
   67PS8B   C30 2309   7.485   0.303  10.241
   67PS8B   C31 2310   7.505   0.148  10.338
   67PS8B   C32 2311   7.586  -0.004  10.307
   67PS8B   C33 2312   7.563  -0.115  10.173
   68PS8B    C0 2313   7.782  23.375  18.525
   68PS8B    C1 2314   7.733  23.217  18.467
   68PS8B    C2 2315   7.818  23.064  18.479
   68PS8B    C3 2316   7.823  22.913  18.374
   68PS8B    B4 2317   7.720  22.827  18.333
   68PS8B    B5 2318   7.684  22.687  18.285
   68PS8B    B6 2319   7.761  22.582  18.288
   68PS8B    B7 2320   7.859  22.544  18.362
   68PS8B    B8 2321   7.883  22.540  18.488
   68PS8B    B9 2322   7.810  22.532  18.595
   68PS8B   B10 2323   7.693  22.503  18.617
   68PS8B   B11 2324   7.586  22.518  18.557
   68PS8B   B12 2325   7.543  22.489  18.440
   68PS8B   B13 2326   7.583  22.413  18.344
   68PS8B   B14 2327   7.698  22.370  18.305
   68PS8B   B15 2328   7.817  22.367  18.355
   68PS8B   B16 2329   7.614  22.452  18.563
   68PS8B   B17 2330   7.693  22.410  18.532
   68PS8B   B18 2331   7.612  22.383  18.499
   68PS8B   B19 2332   7.797  22.373  18.564
   68PS8B   B20 2333   7.838  22.322  18.675
   68PS8B   B21 2334   7.781  22.262  18.774
   68PS8B   B22 2335   7.770  22.284  18.901
   68PS8B   B23 2336   7.705  22.228  18.997
   68PS8B   B24 2337   7.555  22.297  18.464
   68PS8B   B25 2338   7.435  22.251  18.470
   68PS8B   B26 2339   7.326  22.290  18.525
   68PS8B   B27 2340   7.224  22.358  18.487
   68PS8B   B28 2341   7.096  22.341  18.489
   68PS8B   B29 2342   7.924  22.262  18.331
   68PS8B   C30 2343   8.003  22.196  18.234
   68PS8B   C31 2344   8.036  22.239  18.058
   68PS8B   C32 2345   8.018  22.151  17.908
   68PS8B   C33 2346   8.086  21.996  17.861
   69PS8B    C0 2347   9.579   8.386   3.682
   69PS8B    C1 2348   9.637   8.486   3.550
   69PS8B    C2 2349   9.609   8.656   3.519
   69PS8B    C3 2350   9.600   8.757   3.365
   69PS8B    B4 2351   9.693   8.777   3.263
   69PS8B    B5 2352   9.740   8.869   3.151
   69PS8B    B6 2353   9.703   8.992   3.132
   69PS8B    B7 2354   9.660   9.087   3.207
   69PS8B    B8 2355   9.695   9.138   3.320
   69PS8B    B9 2356   9.806   9.146   3.386
   69PS8B   B10 2357   9.924   9.129   3.358
   69PS8B   B11 2358   9.987   9.054   3.282
   69PS8B   B12 2359   9.981   9.028   3.157
   69PS8B   B13 2360   9.925   9.082   3.054
   69PS8B   B14 2361   9.820   9.154   3.036
   69PS8B   B15 2362   9.739   9.220   3.112
   69PS8B   B16 2363   9.983   9.126   3.266
   69PS8B   B17 2364   9.912   9.185   3.245
   69PS8B   B18 2365   9.974   9.165   3.181
   69PS8B   B19 2366   9.846   9.269   3.287
   69PS8B   B20 2367   9.872   9.362   3.372
   69PS8B   B21 2368   9.979   9.420   3.414
   69PS8B   B22 2369  10.037   9.434   3.528
   69PS8B   B23 2370  10.149   9.484   3.567
   69PS8B   B24 2371  10.031   9.206   3.098
   69PS8B   B25 2372  10.149   9.198   3.048
   69PS8B   B26 2373  10.257   9.136   3.079
   69PS8B   B27 2374  10.311   9.024   3.046
   69PS8B   B28 2375  10.426   8.987   3.002
   69PS8B   B29 2376   9.664   9.347   3.078
   69PS8B   C30 2377   9.572   9.408   2.991
   69PS8B   C31 2378   9.456   9.333   2.869
   69PS8B   C32 2379   9.429   9.357   2.697
   69PS8B   C33 2380   9.392   9.505   2.611
   70PS8B    C0 2381   1.409   1.131  12.163
   70PS8B    C1 2382   1.238   1.107  12.194
   70PS8B    C2 2383   1.132   1.196  12.301
   70PS8B    C3 2384   0.981   1.151  12.397
   70PS8B    B4 2385   0.858   1.098  12.355
   70PS8B    B5 2386   0.710   1.083  12.387
   70PS8B    B6 2387   0.643   1.147  12.478
   70PS8B    B7 2388   0.655   1.262  12.534
   70PS8B    B8 2389   0.676   1.383  12.494
   70PS8B    B9 2390   0.655   1.448  12.384
   70PS8B   B10 2391   0.588   1.428  12.284
   70PS8B   B11 2392   0.553   1.327  12.220
   70PS8B   B12 2393   0.495   1.217  12.249
   70PS8B   B13 2394   0.428   1.173  12.349
   70PS8B   B14 2395   0.427   1.198  12.475
   70PS8B   B15 2396   0.476   1.290  12.552
   70PS8B   B16 2397   0.504   1.364  12.259
   70PS8B   B17 2398   0.491   1.382  12.351
   70PS8B   B18 2399   0.432   1.327  12.307
   70PS8B   B19 2400   0.501   1.462  12.432
   70PS8B   B20 2401   0.484   1.590  12.426
   70PS8B   B21 2402   0.420   1.670  12.348
   70PS8B   B22 2403   0.453   1.768  12.272
   70PS8B   B23 2404   0.390   1.842  12.187
   70PS8B   B24 2405   0.326   1.299  12.300
   70PS8B   B25 2406   0.240   1.268  12.210
   70PS8B   B26 2407   0.242   1.260  12.082
   70PS8B   B27 2408   0.261   1.166  11.997
   70PS8B   B28 2409   0.197   1.121  11.894
   70PS8B   B29 2410   0.417   1.343  12.681
   70PS8B   C30 2411   0.374   1.311  12.811
   70PS8B   C31 2412   0.403   1.160  12.912
   70PS8B   C32 2413   0.296   1.047  12.994
   70PS8B   C33 2414   0.174   1.080  13.114
   71PS8B    C0 2415  20.533   9.723  17.884
   71PS8B    C1 2416  20.665   9.713  18.000
   71PS8B    C2 2417  20.793   9.828  18.030
   71PS8B    C3 2418  20.968   9.812  18.088
   71PS8B    B4 2419  21.020   9.755  18.204
   71PS8B    B5 2420  21.137   9.753  18.302
   71PS8B    B6 2421  21.235   9.839  18.308
   71PS8B    B7 2422  21.248   9.963  18.277
   71PS8B    B8 2423  21.179  10.070  18.298
   71PS8B    B9 2424  21.094  10.109  18.387
   71PS8B   B10 2425  21.062  10.069  18.499
   71PS8B   B11 2426  21.054   9.958  18.553
   71PS8B   B12 2427  21.134   9.859  18.570
   71PS8B   B13 2428  21.261   9.842  18.559
   71PS8B   B14 2429  21.354   9.895  18.487
   71PS8B   B15 2430  21.363  10.001  18.412
   71PS8B   B16 2431  21.106  10.004  18.574
   71PS8B   B17 2432  21.181  10.043  18.530
   71PS8B   B18 2433  21.195   9.982  18.598
   71PS8B   B19 2434  21.221  10.139  18.484
   71PS8B   B20 2435  21.201  10.263  18.514
   71PS8B   B21 2436  21.163  10.325  18.621
   71PS8B   B22 2437  21.065  10.402  18.651
   71PS8B   B23 2438  21.022  10.457  18.760
   71PS8B   B24 2439  21.259   9.957  18.682
   71PS8B   B25 2440  21.248   9.909  18.801
   71PS8B   B26 2441  21.150   9.872  18.875
   71PS8B   B27 2442  21.092   9.760  18.901
   71PS8B   B28 2443  21.062   9.695  19.007
   71PS8B   B29 2444  21.488  10.084  18.389
   71PS8B   C30 2445  21.620  10.084  18.342
   71PS8B   C31 2446  21.712   9.960  18.242
   71PS8B   C32 2447  21.862   9.873  18.265
   71PS8B   C33 2448  22.023   9.937  18.294
   72PS8B    C0 2449  22.241  21.072   7.434
   72PS8B    C1 2450  22.152  21.026   7.578
   72PS8B    C2 2451  22.205  20.927   7.712
   72PS8B    C3 2452  22.117  20.815   7.830
   72PS8B    B4 2453  22.012  20.839   7.917
   72PS8B    B5 2454  21.940  20.795   8.044
   72PS8B    B6 2455  21.985  20.711   8.133
   72PS8B    B7 2456  22.102  20.674   8.172
   72PS8B    B8 2457  22.211  20.735   8.205
   72PS8B    B9 2458  22.240  20.852   8.251
   72PS8B   B10 2459  22.176  20.943   8.303
   72PS8B   B11 2460  22.061  20.987   8.290
   72PS8B   B12 2461  21.944  20.937   8.295
   72PS8B   B13 2462  21.893  20.826   8.337
   72PS8B   B14 2463  21.937  20.706   8.350
   72PS8B   B15 2464  22.054  20.649   8.346
   72PS8B   B16 2465  22.079  20.951   8.351
   72PS8B   B17 2466  22.106  20.862   8.370
   72PS8B   B18 2467  22.025  20.893   8.400
   72PS8B   B19 2468  22.195  20.797   8.397
   72PS8B   B20 2469  22.301  20.822   8.467
   72PS8B   B21 2470  22.331  20.907   8.559
   72PS8B   B22 2471  22.419  21.000   8.572
   72PS8B   B23 2472  22.442  21.091   8.660
   72PS8B   B24 2473  21.953  20.887   8.483
   72PS8B   B25 2474  21.874  20.965   8.547
   72PS8B   B26 2475  21.845  21.090   8.541
   72PS8B   B27 2476  21.754  21.160   8.483
   72PS8B   B28 2477  21.669  21.249   8.521
   72PS8B   B29 2478  22.098  20.527   8.423
   72PS8B   C30 2479  22.074  20.390   8.448
   72PS8B   C31 2480  21.970  20.268   8.358
   72PS8B   C32 2481  21.840  20.162   8.406
   72PS8B   C33 2482  21.837  20.040   8.531
   73PS8B    C0 2483  18.437  22.178  11.549
   73PS8B    C1 2484  18.278  22.207  11.481
   73PS8B    C2 2485  18.235  22.297  11.337
   73PS8B    C3 2486  18.086  22.394  11.288
   73PS8B    B4 2487  17.952  22.357  11.279
   73PS8B    B5 2488  17.817  22.386  11.215
   73PS8B    B6 2489  17.795  22.465  11.113
   73PS8B    B7 2490  17.864  22.505  11.013
   73PS8B    B8 2491  17.940  22.448  10.925
   73PS8B    B9 2492  17.948  22.329  10.875
   73PS8B   B10 2493  17.875  22.231  10.873
   73PS8B   B11 2494  17.793  22.181  10.951
   73PS8B   B12 2495  17.689  22.224  11.013
   73PS8B   B13 2496  17.614  22.328  11.003
   73PS8B   B14 2497  17.631  22.450  10.964
   73PS8B   B15 2498  17.723  22.513  10.898
   73PS8B   B16 2499  17.769  22.213  10.890
   73PS8B   B17 2500  17.772  22.302  10.855
   73PS8B   B18 2501  17.691  22.264  10.878
   73PS8B   B19 2502  17.823  22.370  10.779
   73PS8B   B20 2503  17.871  22.345  10.662
   73PS8B   B21 2504  17.851  22.254  10.573
   73PS8B   B22 2505  17.924  22.166  10.515
   73PS8B   B23 2506  17.902  22.069  10.433
   73PS8B   B24 2507  17.585  22.259  10.852
   73PS8B   B25 2508  17.491  22.172  10.849
   73PS8B   B26 2509  17.482  22.046  10.874
   73PS8B   B27 2510  17.448  21.976  10.976
   73PS8B   B28 2511  17.365  21.880  10.998
   73PS8B   B29 2512  17.704  22.631  10.805
   73PS8B   C30 2513  17.657  22.763  10.793
   73PS8B   C31 2514  17.613  22.886  10.923
   73PS8B   C32 2515  17.469  22.980  10.955
   73PS8B   C33 2516  17.384  23.092  10.850
   74PS8B    C0 2517   5.766  14.229  22.833
   74PS8B    C1 2518   5.920  14.296  22.784
   74PS8B    C2 2519   5.957  14.459  22.730
   74PS8B    C3 2520   6.083  14.529  22.615
   74PS8B    B4 2521   6.222  14.522  22.618
   74PS8B    B5 2522   6.353  14.587  22.574
   74PS8B    B6 2523   6.366  14.707  22.524
   74PS8B    B7 2524   6.301  14.817  22.533
   74PS8B    B8 2525   6.251  14.886  22.630
   74PS8B    B9 2526   6.277  14.899  22.756
   74PS8B   B10 2527   6.371  14.869  22.828
   74PS8B   B11 2528   6.454  14.777  22.831
   74PS8B   B12 2529   6.536  14.727  22.747
   74PS8B   B13 2530   6.586  14.764  22.634
   74PS8B   B14 2531   6.544  14.839  22.538
   74PS8B   B15 2532   6.448  14.924  22.521
   74PS8B   B16 2533   6.476  14.844  22.813
   74PS8B   B17 2534   6.456  14.903  22.741
   74PS8B   B18 2535   6.540  14.867  22.748
   74PS8B   B19 2536   6.398  14.998  22.713
   74PS8B   B20 2537   6.371  15.103  22.781
   74PS8B   B21 2538   6.422  15.161  22.885
   74PS8B   B22 2539   6.379  15.192  23.002
   74PS8B   B23 2540   6.432  15.241  23.108
   74PS8B   B24 2541   6.646  14.887  22.733
   74PS8B   B25 2542   6.758  14.860  22.791
   74PS8B   B26 2543   6.794  14.798  22.897
   74PS8B   B27 2544   6.832  14.679  22.924
   74PS8B   B28 2545   6.932  14.626  22.986
   74PS8B   B29 2546   6.449  15.047  22.433
   74PS8B   C30 2547   6.464  15.096  22.302
   74PS8B   C31 2548   6.463  15.008  22.141
   74PS8B   C32 2549   6.576  15.000  22.007
   74PS8B   C33 2550   6.644  15.130  21.912
   75PS8B    C0 2551   8.743   2.619  11.537
   75PS8B    C1 2552   8.656   2.468  11.552
   75PS8B    C2 2553   8.522   2.408  11.456
   75PS8B    C3 2554   8.379   2.297  11.492
   75PS8B    B4 2555   8.375   2.166  11.539
   75PS8B    B5 2556   8.294   2.037  11.547
   75PS8B    B6 2557   8.188   2.008  11.477
   75PS8B    B7 2558   8.142   2.044  11.363
   75PS8B    B8 2559   8.191   2.055  11.244
   75PS8B    B9 2560   8.290   2.001  11.180
   75PS8B   B10 2561   8.360   1.902  11.197
   75PS8B   B11 2562   8.406   1.843  11.296
   75PS8B   B12 2563   8.355   1.794  11.403
   75PS8B   B13 2564   8.237   1.763  11.443
   75PS8B   B14 2565   8.118   1.806  11.416
   75PS8B   B15 2566   8.066   1.883  11.325
   75PS8B   B16 2567   8.353   1.812  11.257
   75PS8B   B17 2568   8.263   1.832  11.237
   75PS8B   B18 2569   8.282   1.759  11.289
   75PS8B   B19 2570   8.192   1.872  11.157
   75PS8B   B20 2571   8.196   1.860  11.028
   75PS8B   B21 2572   8.250   1.777  10.946
   75PS8B   B22 2573   8.336   1.786  10.850
   75PS8B   B23 2574   8.397   1.701  10.775
   75PS8B   B24 2575   8.252   1.657  11.312
   75PS8B   B25 2576   8.306   1.544  11.340
   75PS8B   B26 2577   8.427   1.501  11.349
   75PS8B   B27 2578   8.511   1.486  11.446
   75PS8B   B28 2579   8.584   1.389  11.489
   75PS8B   B29 2580   7.926   1.873  11.267
   75PS8B   C30 2581   7.788   1.876  11.296
   75PS8B   C31 2582   7.698   1.931  11.446
   75PS8B   C32 2583   7.582   1.854  11.552
   75PS8B   C33 2584   7.428   1.781  11.512
   76PS8B    C0 2585   8.981   0.137   4.853
   76PS8B    C1 2586   8.957   0.253   4.724
   76PS8B    C2 2587   9.070   0.305   4.600
   76PS8B    C3 2588   9.093   0.462   4.507
   76PS8B    B4 2589   9.005   0.533   4.425
   76PS8B    B5 2590   8.991   0.633   4.311
   76PS8B    B6 2591   9.086   0.673   4.232
   76PS8B    B7 2592   9.196   0.622   4.189
   76PS8B    B8 2593   9.232   0.508   4.140
   76PS8B    B9 2594   9.172   0.413   4.076
   76PS8B   B10 2595   9.065   0.403   4.017
   76PS8B   B11 2596   8.951   0.451   4.032
   76PS8B   B12 2597   8.904   0.569   4.043
   76PS8B   B13 2598   8.948   0.688   4.021
   76PS8B   B14 2599   9.065   0.743   4.022
   76PS8B   B15 2600   9.187   0.700   4.025
   76PS8B   B16 2601   8.992   0.473   3.976
   76PS8B   B17 2602   9.075   0.519   3.967
   76PS8B   B18 2603   8.997   0.559   3.939
   76PS8B   B19 2604   9.186   0.505   3.943
   76PS8B   B20 2605   9.246   0.425   3.863
   76PS8B   B21 2606   9.211   0.358   3.758
   76PS8B   B22 2607   9.208   0.233   3.726
   76PS8B   B23 2608   9.164   0.167   3.624
   76PS8B   B24 2609   8.955   0.625   3.864
   76PS8B   B25 2610   8.846   0.637   3.796
   76PS8B   B26 2611   8.737   0.570   3.786
   76PS8B   B27 2612   8.621   0.576   3.841
   76PS8B   B28 2613   8.500   0.580   3.798
   76PS8B   B29 2614   9.309   0.765   3.962
   76PS8B   C30 2615   9.389   0.881   3.958
   76PS8B   C31 2616   9.398   1.025   4.072
   76PS8B   C32 2617   9.382   1.198   4.049
   76PS8B   C33 2618   9.472   1.304   3.942
   77PS8B    C0 2619  11.118  11.100  21.823
   77PS8B    C1 2620  11.055  11.055  21.981
   77PS8B    C2 2621  11.131  11.072  22.138
   77PS8B    C3 2622  11.120  10.977  22.295
   77PS8B    B4 2623  11.010  10.947  22.376
   77PS8B    B5 2624  10.962  10.909  22.516
   77PS8B    B6 2625  11.032  10.916  22.625
   77PS8B    B7 2626  11.131  10.987  22.665
   77PS8B    B8 2627  11.161  11.112  22.664
   77PS8B    B9 2628  11.093  11.222  22.660
   77PS8B   B10 2629  10.976  11.252  22.679
   77PS8B   B11 2630  10.867  11.196  22.660
   77PS8B   B12 2631  10.816  11.084  22.693
   77PS8B   B13 2632  10.846  10.991  22.778
   77PS8B   B14 2633  10.956  10.949  22.831
   77PS8B   B15 2634  11.077  10.993  22.839
   77PS8B   B16 2635  10.891  11.205  22.728
   77PS8B   B17 2636  10.966  11.174  22.778
   77PS8B   B18 2637  10.882  11.146  22.801
   77PS8B   B19 2638  11.068  11.203  22.819
   77PS8B   B20 2639  11.112  11.315  22.866
   77PS8B   B21 2640  11.057  11.420  22.916
   77PS8B   B22 2641  11.054  11.545  22.886
   77PS8B   B23 2642  10.991  11.648  22.931
   77PS8B   B24 2643  10.817  11.119  22.885
   77PS8B   B25 2644  10.695  11.134  22.921
   77PS8B   B26 2645  10.592  11.192  22.872
   77PS8B   B27 2646  10.492  11.155  22.799
   77PS8B   B28 2647  10.364  11.164  22.808
   77PS8B   B29 2648  11.175  10.970  22.953
   77PS8B   C30 2649  11.244  10.875  23.029
   77PS8B   C31 2650  11.271  10.695  23.000
   77PS8B   C32 2651  11.239  10.551  23.095
   77PS8B   C33 2652  11.294  10.512  23.257
   78PS8B    C0 2653  11.127  14.054   9.362
   78PS8B    C1 2654  11.037  14.203   9.349
   78PS8B    C2 2655  10.913  14.266   9.455
   78PS8B    C3 2656  10.765  14.374   9.429
   78PS8B    B4 2657  10.755  14.503   9.377
   78PS8B    B5 2658  10.672  14.631   9.371
   78PS8B    B6 2659  10.574  14.663   9.450
   78PS8B    B7 2660  10.541  14.632   9.570
   78PS8B    B8 2661  10.602  14.628   9.684
   78PS8B    B9 2662  10.706  14.686   9.735
   78PS8B   B10 2663  10.772  14.784   9.705
   78PS8B   B11 2664  10.807  14.838   9.599
   78PS8B   B12 2665  10.745  14.881   9.496
   78PS8B   B13 2666  10.622  14.909   9.468
   78PS8B   B14 2667  10.508  14.866   9.509
   78PS8B   B15 2668  10.467  14.794   9.608
   78PS8B   B16 2669  10.758  14.871   9.642
   78PS8B   B17 2670  10.670  14.851   9.672
   78PS8B   B18 2671  10.683  14.921   9.615
   78PS8B   B19 2672  10.610  14.814   9.762
   78PS8B   B20 2673  10.626  14.833   9.888
   78PS8B   B21 2674  10.688  14.920   9.960
   78PS8B   B22 2675  10.783  14.917  10.046
   78PS8B   B23 2676  10.850  15.006  10.111
   78PS8B   B24 2677  10.649  15.022   9.590
   78PS8B   B25 2678  10.700  15.134   9.552
   78PS8B   B26 2679  10.818  15.177   9.527
   78PS8B   B27 2680  10.891  15.189   9.422
   78PS8B   B28 2681  10.958  15.284   9.367
   78PS8B   B29 2682  10.334  14.805   9.679
   78PS8B   C30 2683  10.193  14.800   9.666
   78PS8B   C31 2684  10.089  14.737   9.528
   78PS8B   C32 2685   9.961  14.808   9.432
   78PS8B   C33 2686   9.811  14.881   9.484
   79PS8B    C0 2687  19.759  14.816   2.190
   79PS8B    C1 2688  19.648  14.763   2.314
   79PS8B    C2 2689  19.591  14.601   2.348
   79PS8B    C3 2690  19.434  14.533   2.418
   79PS8B    B4 2691  19.371  14.558   2.540
   79PS8B    B5 2692  19.274  14.504   2.645
   79PS8B    B6 2693  19.229  14.383   2.654
   79PS8B    B7 2694  19.273  14.267   2.619
   79PS8B    B8 2695  19.385  14.204   2.631
   79PS8B    B9 2696  19.485  14.209   2.712
   79PS8B   B10 2697  19.503  14.259   2.823
   79PS8B   B11 2698  19.463  14.360   2.881
   79PS8B   B12 2699  19.348  14.410   2.908
   79PS8B   B13 2700  19.227  14.366   2.906
   79PS8B   B14 2701  19.165  14.276   2.838
   79PS8B   B15 2702  19.199  14.178   2.760
   79PS8B   B16 2703  19.440  14.295   2.903
   79PS8B   B17 2704  19.389  14.225   2.864
   79PS8B   B18 2705  19.354  14.272   2.934
   79PS8B   B19 2706  19.395  14.122   2.815
   79PS8B   B20 2707  19.473  14.022   2.839
   79PS8B   B21 2708  19.544  13.984   2.940
   79PS8B   B22 2709  19.669  13.962   2.961
   79PS8B   B23 2710  19.740  13.933   3.064
   79PS8B   B24 2711  19.292  14.264   3.024
   79PS8B   B25 2712  19.290  14.311   3.144
   79PS8B   B26 2713  19.365  14.389   3.213
   79PS8B   B27 2714  19.365  14.514   3.239
   79PS8B   B28 2715  19.371  14.586   3.346
   79PS8B   B29 2716  19.127  14.047   2.741
   79PS8B   C30 2717  19.006  13.985   2.703
   79PS8B   C31 2718  18.859  14.053   2.615
   79PS8B   C32 2719  18.689  14.059   2.653
   79PS8B   C33 2720  18.579  13.928   2.690
   80PS8B    C0 2721   1.990  14.208  20.240
   80PS8B    C1 2722   2.106  14.160  20.362
   80PS8B    C2 2723   2.173  14.254  20.493
   80PS8B    C3 2724   2.335  14.251  20.582
   80PS8B    B4 2725   2.398  14.148  20.653
   80PS8B    B5 2726   2.499  14.113  20.761
   80PS8B    B6 2727   2.551  14.195  20.848
   80PS8B    B7 2728   2.514  14.305  20.902
   80PS8B    B8 2729   2.406  14.348  20.958
   80PS8B    B9 2730   2.307  14.293  21.020
   80PS8B   B10 2731   2.287  14.183  21.069
   80PS8B   B11 2732   2.321  14.067  21.042
   80PS8B   B12 2733   2.433  14.008  21.022
   80PS8B   B13 2734   2.557  14.037  21.045
   80PS8B   B14 2735   2.624  14.147  21.052
   80PS8B   B15 2736   2.595  14.273  21.062
   80PS8B   B16 2737   2.349  14.099  21.101
   80PS8B   B17 2738   2.404  14.175  21.116
   80PS8B   B18 2739   2.436  14.092  21.135
   80PS8B   B19 2740   2.404  14.284  21.150
   80PS8B   B20 2741   2.332  14.345  21.239
   80PS8B   B21 2742   2.265  14.308  21.343
   80PS8B   B22 2743   2.142  14.315  21.379
   80PS8B   B23 2744   2.073  14.269  21.478
   80PS8B   B24 2745   2.499  14.035  21.203
   80PS8B   B25 2746   2.501  13.920  21.261
   80PS8B   B26 2747   2.422  13.818  21.263
   80PS8B   B27 2748   2.414  13.708  21.198
   80PS8B   B28 2749   2.405  13.584  21.229
   80PS8B   B29 2750   2.675  14.380  21.133
   80PS8B   C30 2751   2.799  14.447  21.140
   80PS8B   C31 2752   2.940  14.450  21.022
   80PS8B   C32 2753   3.110  14.414  21.037
   80PS8B   C33 2754   3.228  14.482  21.148
   81PS8B    C0 2755  16.450  18.987  22.156
   81PS8B    C1 2756  16.451  18.815  22.190
   81PS8B    C2 2757  16.454  18.734  22.345
   81PS8B    C3 2758  16.522  18.572  22.402
   81PS8B    B4 2759  16.495  18.442  22.358
   81PS8B    B5 2760  16.496  18.294  22.395
   81PS8B    B6 2761  16.511  18.244  22.514
   81PS8B    B7 2762  16.486  18.285  22.633
   81PS8B    B8 2763  16.386  18.341  22.692
   81PS8B    B9 2764  16.258  18.345  22.672
   81PS8B   B10 2765  16.180  18.280  22.605
   81PS8B   B11 2766  16.185  18.221  22.496
   81PS8B   B12 2767  16.262  18.133  22.444
   81PS8B   B13 2768  16.350  18.051  22.489
   81PS8B   B14 2769  16.431  18.051  22.590
   81PS8B   B15 2770  16.443  18.121  22.699
   81PS8B   B16 2771  16.181  18.182  22.557
   81PS8B   B17 2772  16.238  18.171  22.633
   81PS8B   B18 2773  16.224  18.101  22.575
   81PS8B   B19 2774  16.252  18.199  22.743
   81PS8B   B20 2775  16.166  18.219  22.836
   81PS8B   B21 2776  16.043  18.185  22.857
   81PS8B   B22 2777  15.932  18.247  22.874
   81PS8B   B23 2778  15.808  18.212  22.885
   81PS8B   B24 2779  16.214  17.992  22.570
   81PS8B   B25 2780  16.145  17.905  22.504
   81PS8B   B26 2781  16.053  17.911  22.415
   81PS8B   B27 2782  16.050  17.906  22.287
   81PS8B   B28 2783  15.986  17.837  22.199
   81PS8B   B29 2784  16.495  18.073  22.832
   81PS8B   C30 2785  16.604  18.017  22.901
   81PS8B   C31 2786  16.780  17.996  22.850
   81PS8B   C32 2787  16.887  17.859  22.840
   81PS8B   C33 2788  16.932  17.744  22.965
   82PS8B    C0 2789  19.316  20.574  13.416
   82PS8B    C1 2790  19.288  20.729  13.492
   82PS8B    C2 2791  19.272  20.766  13.663
   82PS8B    C3 2792  19.179  20.895  13.756
   82PS8B    B4 2793  19.184  21.035  13.749
   82PS8B    B5 2794  19.159  21.166  13.821
   82PS8B    B6 2795  19.137  21.181  13.949
   82PS8B    B7 2796  19.168  21.114  14.054
   82PS8B    B8 2797  19.276  21.062  14.101
   82PS8B    B9 2798  19.402  21.083  14.086
   82PS8B   B10 2799  19.469  21.175  14.041
   82PS8B   B11 2800  19.455  21.258  13.950
   82PS8B   B12 2801  19.364  21.344  13.919
   82PS8B   B13 2802  19.264  21.396  13.980
   82PS8B   B14 2803  19.185  21.357  14.074
   82PS8B   B15 2804  19.184  21.261  14.161
   82PS8B   B16 2805  19.452  21.280  14.019
   82PS8B   B17 2806  19.394  21.263  14.093
   82PS8B   B18 2807  19.396  21.347  14.056
   82PS8B   B19 2808  19.385  21.205  14.192
   82PS8B   B20 2809  19.474  21.175  14.280
   82PS8B   B21 2810  19.589  21.222  14.314
   82PS8B   B22 2811  19.709  21.176  14.319
   82PS8B   B23 2812  19.825  21.226  14.343
   82PS8B   B24 2813  19.389  21.453  14.078
   82PS8B   B25 2814  19.443  21.564  14.040
   82PS8B   B26 2815  19.534  21.596  13.956
   82PS8B   B27 2816  19.536  21.634  13.834
   82PS8B   B28 2817  19.588  21.732  13.769
   82PS8B   B29 2818  19.125  21.264  14.300
   82PS8B   C30 2819  19.008  21.283  14.377
   82PS8B   C31 2820  18.832  21.288  14.326
   82PS8B   C32 2821  18.703  21.405  14.347
   82PS8B   C33 2822  18.640  21.475  14.495
   83PS8B    C0 2823  20.012   5.886   6.733
   83PS8B    C1 2824  19.857   5.826   6.788
   83PS8B    C2 2825  19.732   5.744   6.696
   83PS8B    C3 2826  19.548   5.736   6.711
   83PS8B    B4 2827  19.467   5.694   6.817
   83PS8B    B5 2828  19.331   5.640   6.858
   83PS8B    B6 2829  19.240   5.592   6.778
   83PS8B    B7 2830  19.242   5.534   6.663
   83PS8B    B8 2831  19.310   5.439   6.609
   83PS8B    B9 2832  19.374   5.336   6.653
   83PS8B   B10 2833  19.377   5.276   6.760
   83PS8B   B11 2834  19.367   5.307   6.879
   83PS8B   B12 2835  19.279   5.371   6.948
   83PS8B   B13 2836  19.157   5.408   6.929
   83PS8B   B14 2837  19.087   5.438   6.826
   83PS8B   B15 2838  19.100   5.425   6.698
   83PS8B   B16 2839  19.313   5.269   6.847
   83PS8B   B17 2840  19.253   5.285   6.776
   83PS8B   B18 2841  19.221   5.277   6.862
   83PS8B   B19 2842  19.230   5.262   6.666
   83PS8B   B20 2843  19.250   5.155   6.597
   83PS8B   B21 2844  19.266   5.030   6.625
   83PS8B   B22 2845  19.359   4.943   6.606
   83PS8B   B23 2846  19.378   4.821   6.643
   83PS8B   B24 2847  19.137   5.241   6.922
   83PS8B   B25 2848  19.118   5.182   7.035
   83PS8B   B26 2849  19.194   5.139   7.129
   83PS8B   B27 2850  19.238   5.186   7.240
   83PS8B   B28 2851  19.239   5.146   7.362
   83PS8B   B29 2852  18.990   5.405   6.596
   83PS8B   C30 2853  18.872   5.457   6.540
   83PS8B   C31 2854  18.799   5.626   6.553
   83PS8B   C32 2855  18.642   5.686   6.603
   83PS8B   C33 2856  18.483   5.644   6.543
   84PS8B    C0 2857   0.666   8.272  22.639
   84PS8B    C1 2858   0.839   8.269  22.608
   84PS8B    C2 2859   0.923   8.242  22.457
   84PS8B    C3 2860   1.086   8.168  22.414
   84PS8B    B4 2861   1.215   8.203  22.454
   84PS8B    B5 2862   1.364   8.198  22.421
   84PS8B    B6 2863   1.416   8.165  22.306
   84PS8B    B7 2864   1.377   8.169  22.184
   84PS8B    B8 2865   1.321   8.258  22.109
   84PS8B    B9 2866   1.315   8.387  22.108
   84PS8B   B10 2867   1.379   8.476  22.163
   84PS8B   B11 2868   1.435   8.489  22.272
   84PS8B   B12 2869   1.523   8.423  22.337
   84PS8B   B13 2870   1.607   8.329  22.308
   84PS8B   B14 2871   1.609   8.234  22.222
   84PS8B   B15 2872   1.542   8.204  22.115
   84PS8B   B16 2873   1.476   8.484  22.212
   84PS8B   B17 2874   1.489   8.416  22.146
   84PS8B   B18 2875   1.558   8.439  22.202
   84PS8B   B19 2876   1.463   8.384  22.040
   84PS8B   B20 2877   1.443   8.454  21.933
   84PS8B   B21 2878   1.477   8.572  21.894
   84PS8B   B22 2879   1.414   8.678  21.858
   84PS8B   B23 2880   1.448   8.799  21.828
   84PS8B   B24 2881   1.666   8.452  22.208
   84PS8B   B25 2882   1.751   8.531  22.263
   84PS8B   B26 2883   1.743   8.636  22.336
   84PS8B   B27 2884   1.746   8.660  22.462
   84PS8B   B28 2885   1.813   8.738  22.540
   84PS8B   B29 2886   1.592   8.131  21.993
   84PS8B   C30 2887   1.651   8.013  21.943
   84PS8B   C31 2888   1.672   7.848  22.022
   84PS8B   C32 2889   1.811   7.745  22.051
   84PS8B   C33 2890   1.927   7.682  21.937
   85PS8B    C0 2891   5.922   1.450   8.055
   85PS8B    C1 2892   6.068   1.546   8.070
   85PS8B    C2 2893   6.086   1.720   8.062
   85PS8B    C3 2894   6.224   1.830   8.007
   85PS8B    B4 2895   6.356   1.840   8.051
   85PS8B    B5 2896   6.479   1.929   8.063
   85PS8B    B6 2897   6.483   2.058   8.043
   85PS8B    B7 2898   6.398   2.154   8.051
   85PS8B    B8 2899   6.311   2.192   8.139
   85PS8B    B9 2900   6.298   2.178   8.267
   85PS8B   B10 2901   6.372   2.144   8.358
   85PS8B   B11 2902   6.466   2.065   8.369
   85PS8B   B12 2903   6.577   2.046   8.307
   85PS8B   B13 2904   6.648   2.115   8.225
   85PS8B   B14 2905   6.622   2.204   8.135
   85PS8B   B15 2906   6.519   2.278   8.106
   85PS8B   B16 2907   6.480   2.136   8.371
   85PS8B   B17 2908   6.470   2.208   8.310
   85PS8B   B18 2909   6.554   2.182   8.336
   85PS8B   B19 2910   6.406   2.298   8.283
   85PS8B   B20 2911   6.341   2.381   8.357
   85PS8B   B21 2912   6.349   2.419   8.480
   85PS8B   B22 2913   6.270   2.416   8.582
   85PS8B   B23 2914   6.282   2.445   8.707
   85PS8B   B24 2915   6.654   2.217   8.358
   85PS8B   B25 2916   6.749   2.193   8.442
   85PS8B   B26 2917   6.765   2.112   8.541
   85PS8B   B27 2918   6.815   1.995   8.556
   85PS8B   B28 2919   6.903   1.943   8.635
   85PS8B   B29 2920   6.521   2.417   8.047
   85PS8B   C30 2921   6.563   2.497   7.939
   85PS8B   C31 2922   6.624   2.450   7.772
   85PS8B   C32 2923   6.769   2.487   7.681
   85PS8B   C33 2924   6.834   2.643   7.637
   86PS8B    C0 2925  17.373  13.507   9.352
   86PS8B    C1 2926  17.347  13.630   9.474
   86PS8B    C2 2927  17.449  13.674   9.609
   86PS8B    C3 2928  17.415  13.743   9.777
   86PS8B    B4 2929  17.350  13.860   9.816
   86PS8B    B5 2930  17.333  13.965   9.925
   86PS8B    B6 2931  17.410  13.981  10.029
   86PS8B    B7 2932  17.533  13.957  10.054
   86PS8B    B8 2933  17.645  13.978   9.994
   86PS8B    B9 2934  17.688  14.063   9.906
   86PS8B   B10 2935  17.647  14.170   9.863
   86PS8B   B11 2936  17.535  14.219   9.842
   86PS8B   B12 2937  17.429  14.237   9.912
   86PS8B   B13 2938  17.401  14.233  10.037
   86PS8B   B14 2939  17.448  14.170  10.139
   86PS8B   B15 2940  17.556  14.102  10.163
   86PS8B   B16 2941  17.575  14.245   9.897
   86PS8B   B17 2942  17.609  14.209   9.978
   86PS8B   B18 2943  17.545  14.274   9.981
   86PS8B   B19 2944  17.703  14.169  10.029
   86PS8B   B20 2945  17.827  14.204  10.017
   86PS8B   B21 2946  17.888  14.310   9.977
   86PS8B   B22 2947  17.972  14.338   9.884
   86PS8B   B23 2948  18.026  14.446   9.839
   86PS8B   B24 2949  17.511  14.361  10.037
   86PS8B   B25 2950  17.460  14.477  10.013
   86PS8B   B26 2951  17.428  14.543   9.907
   86PS8B   B27 2952  17.321  14.559   9.839
   86PS8B   B28 2953  17.255  14.661   9.795
   86PS8B   B29 2954  17.628  14.090  10.296
   86PS8B   C30 2955  17.619  14.052  10.431
   86PS8B   C31 2956  17.490  13.953  10.518
   86PS8B   C32 2957  17.390  13.983  10.658
   86PS8B   C33 2958  17.438  14.025  10.821
   87PS8B    C0 2959  12.149  20.353   0.279
   87PS8B    C1 2960  12.265  20.234   0.225
   87PS8B    C2 2961  12.415  20.258   0.138
   87PS8B    C3 2962  12.510  20.156   0.017
   87PS8B    B4 2963  12.563  20.027   0.028
   87PS8B    B5 2964  12.667  19.929  -0.022
   87PS8B    B6 2965  12.770  19.957  -0.097
   87PS8B    B7 2966  12.842  20.061  -0.116
   87PS8B    B8 2967  12.901  20.148  -0.040
   87PS8B    B9 2968  12.945  20.147   0.082
   87PS8B   B10 2969  12.972  20.060   0.163
   87PS8B   B11 2970  12.925  19.949   0.191
   87PS8B   B12 2971  12.900  19.842   0.125
   87PS8B   B13 2972  12.933  19.797   0.010
   87PS8B   B14 2973  12.965  19.850  -0.103
   87PS8B   B15 2974  12.997  19.969  -0.143
   87PS8B   B16 2975  12.990  19.953   0.160
   87PS8B   B17 2976  13.022  19.984   0.076
   87PS8B   B18 2977  13.026  19.895   0.095
   87PS8B   B19 2978  13.076  20.070   0.024
   87PS8B   B20 2979  13.171  20.147   0.065
   87PS8B   B21 2980  13.262  20.139   0.156
   87PS8B   B22 2981  13.293  20.207   0.261
   87PS8B   B23 2982  13.379  20.193   0.356
   87PS8B   B24 2983  13.086  19.804   0.082
   87PS8B   B25 2984  13.120  19.700   0.149
   87PS8B   B26 2985  13.099  19.659   0.269
   87PS8B   B27 2986  13.013  19.580   0.324
   87PS8B   B28 2987  13.020  19.477   0.401
   87PS8B   B29 2988  13.091  20.005  -0.256
   87PS8B   C30 2989  13.117  19.992  -0.394
   87PS8B   C31 2990  13.009  19.935  -0.532
   87PS8B   C32 2991  13.025  19.811  -0.654
   87PS8B   C33 2992  13.153  19.788  -0.772
   88PS8B    C0 2993   5.964   3.690   6.884
   88PS8B    C1 2994   6.006   3.854   6.929
   88PS8B    C2 2995   6.028   3.994   6.826
   88PS8B    C3 2996   6.133   4.146   6.839
   88PS8B    B4 2997   6.139   4.244   6.937
   88PS8B    B5 2998   6.176   4.388   6.969
   88PS8B    B6 2999   6.202   4.483   6.883
   88PS8B    B7 3000   6.168   4.506   6.761
   88PS8B    B8 3001   6.057   4.506   6.696
   88PS8B    B9 3002   5.932   4.521   6.726
   88PS8B   B10 3003   5.872   4.564   6.823
   88PS8B   B11 3004   5.892   4.564   6.946
   88PS8B   B12 3005   5.988   4.601   7.022
   88PS8B   B13 3006   6.093   4.673   7.008
   88PS8B   B14 3007   6.171   4.701   6.909
   88PS8B   B15 3008   6.166   4.687   6.780
   88PS8B   B16 3009   5.898   4.627   6.909
   88PS8B   B17 3010   5.955   4.659   6.840
   88PS8B   B18 3011   5.959   4.696   6.923
   88PS8B   B19 3012   5.961   4.681   6.728
   88PS8B   B20 3013   5.872   4.724   6.645
   88PS8B   B21 3014   5.762   4.790   6.656
   88PS8B   B22 3015   5.639   4.767   6.626
   88PS8B   B23 3016   5.528   4.829   6.646
   88PS8B   B24 3017   5.975   4.790   6.977
   88PS8B   B25 3018   5.930   4.850   7.081
   88PS8B   B26 3019   5.840   4.825   7.169
   88PS8B   B27 3020   5.838   4.772   7.286
   88PS8B   B28 3021   5.793   4.805   7.401
   88PS8B   B29 3022   6.228   4.778   6.676
   88PS8B   C30 3023   6.347   4.834   6.627
   88PS8B   C31 3024   6.523   4.791   6.662
   88PS8B   C32 3025   6.660   4.882   6.719
   88PS8B   C33 3026   6.731   5.028   6.652
   89PS8B    C0 3027   5.288  16.322   7.028
   89PS8B    C1 3028   5.283  16.272   7.196
   89PS8B    C2 3029   5.356  16.349   7.335
   89PS8B    C3 3030   5.420  16.285   7.496
   89PS8B    B4 3031   5.357  16.212   7.596
   89PS8B    B5 3032   5.357  16.174   7.744
   89PS8B    B6 3033   5.425  16.232   7.839
   89PS8B    B7 3034   5.473  16.350   7.857
   89PS8B    B8 3035   5.428  16.470   7.845
   89PS8B    B9 3036   5.311  16.525   7.849
   89PS8B   B10 3037   5.201  16.490   7.888
   89PS8B   B11 3038   5.139  16.382   7.892
   89PS8B   B12 3039   5.164  16.265   7.939
   89PS8B   B13 3040   5.251  16.216   8.020
   89PS8B   B14 3041   5.372  16.247   8.054
   89PS8B   B15 3042   5.448  16.350   8.037
   89PS8B   B16 3043   5.163  16.412   7.954
   89PS8B   B17 3044   5.249  16.432   7.990
   89PS8B   B18 3045   5.198  16.367   8.029
   89PS8B   B19 3046   5.323  16.517   8.011
   89PS8B   B20 3047   5.303  16.640   8.044
   89PS8B   B21 3048   5.206  16.705   8.099
   89PS8B   B22 3049   5.131  16.803   8.065
   89PS8B   B23 3050   5.028  16.862   8.116
   89PS8B   B24 3051   5.171  16.322   8.125
   89PS8B   B25 3052   5.067  16.273   8.183
   89PS8B   B26 3053   4.943  16.259   8.151
   89PS8B   B27 3054   4.872  16.165   8.100
   89PS8B   B28 3055   4.763  16.105   8.131
   89PS8B   B29 3056   5.556  16.399   8.131
   89PS8B   C30 3057   5.676  16.367   8.198
   89PS8B   C31 3058   5.794  16.228   8.171
   89PS8B   C32 3059   5.859  16.104   8.276
   89PS8B   C33 3060   5.947  16.123   8.427
   90PS8B    C0 3061   2.165  21.564  10.887
   90PS8B    C1 3062   2.336  21.580  10.854
   90PS8B    C2 3063   2.450  21.458  10.802
   90PS8B    C3 3064   2.632  21.434  10.828
   90PS8B    B4 3065   2.740  21.516  10.797
   90PS8B    B5 3066   2.889  21.523  10.767
   90PS8B    B6 3067   2.967  21.423  10.741
   90PS8B    B7 3068   2.950  21.306  10.689
   90PS8B    B8 3069   2.890  21.259  10.586
   90PS8B    B9 3070   2.855  21.307  10.470
   90PS8B   B10 3071   2.886  21.406  10.406
   90PS8B   B11 3072   2.917  21.522  10.433
   90PS8B   B12 3073   3.005  21.577  10.508
   90PS8B   B13 3074   3.112  21.537  10.568
   90PS8B   B14 3075   3.151  21.424  10.617
   90PS8B   B15 3076   3.113  21.301  10.607
   90PS8B   B16 3077   2.968  21.477  10.407
   90PS8B   B17 3078   3.008  21.397  10.438
   90PS8B   B18 3079   3.059  21.473  10.432
   90PS8B   B19 3080   3.010  21.283  10.424
   90PS8B   B20 3081   2.994  21.211  10.319
   90PS8B   B21 3082   3.006  21.230  10.192
   90PS8B   B22 3083   2.928  21.223  10.090
   90PS8B   B23 3084   2.938  21.252   9.965
   90PS8B   B24 3085   3.158  21.511  10.408
   90PS8B   B25 3086   3.211  21.612  10.349
   90PS8B   B26 3087   3.167  21.715  10.288
   90PS8B   B27 3088   3.141  21.837  10.321
   90PS8B   B28 3089   3.173  21.953  10.275
   90PS8B   B29 3090   3.200  21.177  10.613
   90PS8B   C30 3091   3.292  21.103  10.689
   90PS8B   C31 3092   3.336  21.115  10.868
   90PS8B   C32 3093   3.487  21.137  10.954
   90PS8B   C33 3094   3.633  21.042  10.945
   91PS8B    C0 3095  11.718   1.776   6.523
   91PS8B    C1 3096  11.718   1.864   6.372
   91PS8B    C2 3097  11.854   1.924   6.280
   91PS8B    C3 3098  11.877   2.069   6.167
   91PS8B    B4 3099  11.810   2.105   6.050
   91PS8B    B5 3100  11.817   2.182   5.919
   91PS8B    B6 3101  11.924   2.233   5.865
   91PS8B    B7 3102  12.050   2.205   5.869
   91PS8B    B8 3103  12.120   2.098   5.857
   91PS8B    B9 3104  12.104   1.983   5.799
   91PS8B   B10 3105  12.027   1.940   5.715
   91PS8B   B11 3106  11.908   1.961   5.685
   91PS8B   B12 3107  11.839   2.065   5.657
   91PS8B   B13 3108  11.866   2.186   5.625
   91PS8B   B14 3109  11.963   2.267   5.649
   91PS8B   B15 3110  12.083   2.255   5.698
   91PS8B   B16 3111  11.961   1.984   5.640
   91PS8B   B17 3112  12.032   2.047   5.647
   91PS8B   B18 3113  11.962   2.063   5.590
   91PS8B   B19 3114  12.145   2.057   5.661
   91PS8B   B20 3115  12.242   1.983   5.620
   91PS8B   B21 3116  12.257   1.897   5.526
   91PS8B   B22 3117  12.288   1.772   5.520
   91PS8B   B23 3118  12.294   1.684   5.426
   91PS8B   B24 3119  11.936   2.107   5.493
   91PS8B   B25 3120  11.856   2.082   5.395
   91PS8B   B26 3121  11.771   1.990   5.367
   91PS8B   B27 3122  11.644   1.975   5.382
   91PS8B   B28 3123  11.546   1.944   5.305
   91PS8B   B29 3124  12.204   2.339   5.662
   91PS8B   C30 3125  12.258   2.469   5.658
   91PS8B   C31 3126  12.201   2.625   5.737
   91PS8B   C32 3127  12.163   2.784   5.676
   91PS8B   C33 3128  12.262   2.893   5.582
   92PS8B    C0 3129  -0.250   0.110   7.171
   92PS8B    C1 3130  -0.172   0.200   7.042
   92PS8B    C2 3131  -0.061   0.143   6.919
   92PS8B    C3 3132   0.078   0.223   6.827
   92PS8B    B4 3133   0.080   0.336   6.745
   92PS8B    B5 3134   0.151   0.408   6.632
   92PS8B    B6 3135   0.242   0.359   6.553
   92PS8B    B7 3136   0.270   0.240   6.511
   92PS8B    B8 3137   0.203   0.142   6.461
   92PS8B    B9 3138   0.092   0.130   6.397
   92PS8B   B10 3139   0.019   0.208   6.337
   92PS8B   B11 3140  -0.014   0.327   6.352
   92PS8B   B12 3141   0.050   0.437   6.363
   92PS8B   B13 3142   0.170   0.476   6.342
   92PS8B   B14 3143   0.286   0.418   6.344
   92PS8B   B15 3144   0.327   0.295   6.347
   92PS8B   B16 3145   0.029   0.308   6.296
   92PS8B   B17 3146   0.116   0.271   6.287
   92PS8B   B18 3147   0.100   0.357   6.260
   92PS8B   B19 3148   0.174   0.176   6.264
   92PS8B   B20 3149   0.148   0.079   6.183
   92PS8B   B21 3150   0.075   0.065   6.078
   92PS8B   B22 3151  -0.024  -0.009   6.045
   92PS8B   B23 3152  -0.103  -0.017   5.943
   92PS8B   B24 3153   0.126   0.432   6.184
   92PS8B   B25 3154   0.069   0.525   6.116
   92PS8B   B26 3155  -0.051   0.569   6.105
   92PS8B   B27 3156  -0.118   0.664   6.159
   92PS8B   B28 3157  -0.190   0.761   6.116
   92PS8B   B29 3158   0.454   0.240   6.286
   92PS8B   C30 3159   0.595   0.248   6.282
   92PS8B   C31 3160   0.713   0.331   6.397
   92PS8B   C32 3161   0.839   0.450   6.376
   92PS8B   C33 3162   0.979   0.444   6.270
   93PS8B    C0 3163  13.565  11.377   2.968
   93PS8B    C1 3164  13.700  11.394   2.858
   93PS8B    C2 3165  13.717  11.331   2.695
   93PS8B    C3 3166  13.862  11.277   2.594
   93PS8B    B4 3167  13.977  11.346   2.556
   93PS8B    B5 3168  14.091  11.355   2.455
   93PS8B    B6 3169  14.098  11.294   2.340
   93PS8B    B7 3170  14.011  11.249   2.257
   93PS8B    B8 3171  13.904  11.295   2.202
   93PS8B    B9 3172  13.857  11.413   2.175
   93PS8B   B10 3173  13.906  11.525   2.169
   93PS8B   B11 3174  13.995  11.585   2.230
   93PS8B   B12 3175  14.119  11.562   2.256
   93PS8B   B13 3176  14.207  11.480   2.210
   93PS8B   B14 3177  14.204  11.363   2.158
   93PS8B   B15 3178  14.111  11.286   2.109
   93PS8B   B16 3179  14.006  11.566   2.161
   93PS8B   B17 3180  14.012  11.483   2.115
   93PS8B   B18 3181  14.086  11.536   2.122
   93PS8B   B19 3182  13.955  11.412   2.045
   93PS8B   B20 3183  13.871  11.436   1.950
   93PS8B   B21 3184  13.846  11.537   1.874
   93PS8B   B22 3185  13.743  11.611   1.852
   93PS8B   B23 3186  13.721  11.718   1.784
   93PS8B   B24 3187  14.177  11.569   2.070
   93PS8B   B25 3188  14.246  11.676   2.056
   93PS8B   B26 3189  14.237  11.797   2.098
   93PS8B   B27 3190  14.284  11.862   2.197
   93PS8B   B28 3191  14.349  11.973   2.212
   93PS8B   B29 3192  14.126  11.185   1.997
   93PS8B   C30 3193  14.193  11.070   1.952
   93PS8B   C31 3194  14.297  10.949   2.044
   93PS8B   C32 3195  14.460  10.889   2.023
   93PS8B   C33 3196  14.531  10.812   1.883
   94PS8B    C0 3197  18.135  21.198  11.167
   94PS8B    C1 3198  18.003  21.265  11.073
   94PS8B    C2 3199  18.010  21.369  10.932
   94PS8B    C3 3200  17.898  21.500  10.865
   94PS8B    B4 3201  17.764  21.494  10.827
   94PS8B    B5 3202  17.654  21.556  10.741
   94PS8B    B6 3203  17.670  21.643  10.646
   94PS8B    B7 3204  17.766  21.671  10.565
   94PS8B    B8 3205  17.845  21.603  10.488
   94PS8B    B9 3206  17.839  21.488  10.429
   94PS8B   B10 3207  17.749  21.410  10.403
   94PS8B   B11 3208  17.644  21.375  10.459
   94PS8B   B12 3209  17.541  21.437  10.504
   94PS8B   B13 3210  17.492  21.555  10.491
   94PS8B   B14 3211  17.542  21.672  10.467
   94PS8B   B15 3212  17.657  21.716  10.426
   94PS8B   B16 3213  17.640  21.414  10.398
   94PS8B   B17 3214  17.668  21.502  10.373
   94PS8B   B18 3215  17.579  21.482  10.377
   94PS8B   B19 3216  17.747  21.561  10.316
   94PS8B   B20 3217  17.812  21.532  10.208
   94PS8B   B21 3218  17.793  21.453  10.108
   94PS8B   B22 3219  17.856  21.353  10.057
   94PS8B   B23 3220  17.832  21.269   9.963
   94PS8B   B24 3221  17.482  21.502  10.331
   94PS8B   B25 3222  17.374  21.438  10.301
   94PS8B   B26 3223  17.335  21.317  10.312
   94PS8B   B27 3224  17.266  21.251  10.398
   94PS8B   B28 3225  17.163  21.174  10.394
   94PS8B   B29 3226  17.682  21.840  10.343
   94PS8B   C30 3227  17.667  21.980  10.335
   94PS8B   C31 3228  17.623  22.103  10.465
   94PS8B   C32 3229  17.498  22.225  10.479
   94PS8B   C33 3230  17.462  22.358  10.370
   95PS8B    C0 3231  23.228  22.854  15.233
   95PS8B    C1 3232  23.159  22.881  15.391
   95PS8B    C2 3233  23.049  22.779  15.482
   95PS8B    C3 3234  22.918  22.814  15.607
   95PS8B    B4 3235  22.924  22.880  15.730
   95PS8B    B5 3236  22.860  22.897  15.868
   95PS8B    B6 3237  22.770  22.820  15.921
   95PS8B    B7 3238  22.738  22.696  15.909
   95PS8B    B8 3239  22.802  22.585  15.907
   95PS8B    B9 3240  22.914  22.543  15.954
   95PS8B   B10 3241  22.993  22.584  16.038
   95PS8B   B11 3242  23.031  22.696  16.075
   95PS8B   B12 3243  22.972  22.802  16.116
   95PS8B   B13 3244  22.854  22.831  16.159
   95PS8B   B14 3245  22.736  22.783  16.137
   95PS8B   B15 3246  22.689  22.675  16.083
   95PS8B   B16 3247  22.989  22.656  16.119
   95PS8B   B17 3248  22.901  22.622  16.115
   95PS8B   B18 3249  22.922  22.687  16.177
   95PS8B   B19 3250  22.839  22.528  16.097
   95PS8B   B20 3251  22.863  22.404  16.126
   95PS8B   B21 3252  22.939  22.344  16.211
   95PS8B   B22 3253  23.036  22.259  16.203
   95PS8B   B23 3254  23.117  22.206  16.287
   95PS8B   B24 3255  22.901  22.721  16.278
   95PS8B   B25 3256  22.966  22.773  16.377
   95PS8B   B26 3257  23.088  22.804  16.400
   95PS8B   B27 3258  23.158  22.912  16.390
   95PS8B   B28 3259  23.235  22.978  16.468
   95PS8B   B29 3260  22.562  22.602  16.120
   95PS8B   C30 3261  22.422  22.612  16.134
   95PS8B   C31 3262  22.304  22.740  16.073
   95PS8B   C32 3263  22.184  22.841  16.151
   95PS8B   C33 3264  22.048  22.793  16.251
   96PS8B    C0 3265   5.407  21.054  10.077
   96PS8B    C1 3266   5.519  21.186  10.049
   96PS8B    C2 3267   5.642  21.201   9.925
   96PS8B    C3 3268   5.806  21.287   9.918
   96PS8B    B4 3269   5.839  21.422   9.937
   96PS8B    B5 3270   5.939  21.532   9.908
   96PS8B    B6 3271   6.035  21.528   9.820
   96PS8B    B7 3272   6.053  21.466   9.709
   96PS8B    B8 3273   5.983  21.444   9.603
   96PS8B    B9 3274   5.885  21.505   9.544
   96PS8B   B10 3275   5.836  21.617   9.552
   96PS8B   B11 3276   5.819  21.699   9.643
   96PS8B   B12 3277   5.894  21.755   9.730
   96PS8B   B13 3278   6.021  21.769   9.745
   96PS8B   B14 3279   6.125  21.699   9.710
   96PS8B   B15 3280   6.147  21.600   9.630
   96PS8B   B16 3281   5.868  21.713   9.591
   96PS8B   B17 3282   5.949  21.672   9.563
   96PS8B   B18 3283   5.951  21.755   9.601
   96PS8B   B19 3284   5.996  21.606   9.482
   96PS8B   B20 3285   5.972  21.597   9.356
   96PS8B   B21 3286   5.919  21.674   9.268
   96PS8B   B22 3287   5.817  21.666   9.189
   96PS8B   B23 3288   5.759  21.747   9.107
   96PS8B   B24 3289   6.001  21.852   9.600
   96PS8B   B25 3290   5.971  21.977   9.612
   96PS8B   B26 3291   5.863  22.043   9.630
   96PS8B   B27 3292   5.801  22.090   9.732
   96PS8B   B28 3293   5.753  22.205   9.766
   96PS8B   B29 3294   6.274  21.573   9.552
   96PS8B   C30 3295   6.412  21.549   9.560
   96PS8B   C31 3296   6.517  21.503   9.704
   96PS8B   C32 3297   6.661  21.573   9.775
   96PS8B   C33 3298   6.816  21.607   9.700
   97PS8B    C0 3299  21.882   5.936  22.292
   97PS8B    C1 3300  21.947   5.986  22.137
   97PS8B    C2 3301  22.016   5.887  22.010
   97PS8B    C3 3302  22.145   5.918  21.881
   97PS8B    B4 3303  22.151   6.014  21.780
   97PS8B    B5 3304  22.209   6.051  21.644
   97PS8B    B6 3305  22.270   5.970  21.562
   97PS8B    B7 3306  22.265   5.844  21.539
   97PS8B    B8 3307  22.171   5.757  21.522
   97PS8B    B9 3308  22.048   5.762  21.481
   97PS8B   B10 3309  21.981   5.844  21.422
   97PS8B   B11 3310  21.975   5.968  21.419
   97PS8B   B12 3311  22.060   6.061  21.397
   97PS8B   B13 3312  22.179   6.067  21.348
   97PS8B   B14 3313  22.278   5.985  21.341
   97PS8B   B15 3314  22.295   5.859  21.360
   97PS8B   B16 3315  22.001   5.932  21.361
   97PS8B   B17 3316  22.075   5.875  21.344
   97PS8B   B18 3317  22.071   5.957  21.304
   97PS8B   B19 3318  22.108   5.767  21.330
   97PS8B   B20 3319  22.047   5.667  21.275
   97PS8B   B21 3320  21.952   5.655  21.189
   97PS8B   B22 3321  21.835   5.601  21.189
   97PS8B   B23 3322  21.737   5.597  21.106
   97PS8B   B24 3323  22.095   6.012  21.212
   97PS8B   B25 3324  22.043   6.104  21.138
   97PS8B   B26 3325  21.934   6.172  21.141
   97PS8B   B27 3326  21.900   6.287  21.186
   97PS8B   B28 3327  21.841   6.391  21.138
   97PS8B   B29 3328  22.393   5.767  21.289
   97PS8B   C30 3329  22.528   5.743  21.260
   97PS8B   C31 3330  22.682   5.812  21.334
   97PS8B   C32 3331  22.821   5.895  21.268
   97PS8B   C33 3332  22.931   5.841  21.143
   98PS8B    C0 3333  21.656  20.320  14.741
   98PS8B    C1 3334  21.606  20.412  14.881
   98PS8B    C2 3335  21.483  20.373  15.000
   98PS8B    C3 3336  21.372  20.476  15.105
   98PS8B    B4 3337  21.401  20.574  15.200
   98PS8B    B5 3338  21.353  20.650  15.323
   98PS8B    B6 3339  21.251  20.618  15.398
   98PS8B    B7 3340  21.191  20.508  15.427
   98PS8B    B8 3341  21.228  20.390  15.462
   98PS8B    B9 3342  21.331  20.339  15.522
   98PS8B   B10 3343  21.423  20.386  15.588
   98PS8B   B11 3344  21.487  20.492  15.586
   98PS8B   B12 3345  21.457  20.616  15.590
   98PS8B   B13 3346  21.352  20.683  15.620
   98PS8B   B14 3347  21.225  20.660  15.614
   98PS8B   B15 3348  21.151  20.556  15.598
   98PS8B   B16 3349  21.441  20.479  15.641
   98PS8B   B17 3350  21.347  20.467  15.648
   98PS8B   B18 3351  21.386  20.541  15.685
   98PS8B   B19 3352  21.264  20.390  15.661
   98PS8B   B20 3353  21.261  20.280  15.729
   98PS8B   B21 3354  21.327  20.234  15.830
   98PS8B   B22 3355  21.402  20.131  15.851
   98PS8B   B23 3356  21.475  20.090  15.949
   98PS8B   B24 3357  21.381  20.610  15.769
   98PS8B   B25 3358  21.462  20.674  15.846
   98PS8B   B26 3359  21.590  20.681  15.859
   98PS8B   B27 3360  21.681  20.760  15.814
   98PS8B   B28 3361  21.777  20.828  15.867
   98PS8B   B29 3362  21.013  20.531  15.656
   98PS8B   C30 3363  20.880  20.578  15.665
   98PS8B   C31 3364  20.791  20.703  15.564
   98PS8B   C32 3365  20.703  20.849  15.604
   98PS8B   C33 3366  20.567  20.869  15.712
   99PS8B    C0 3367   9.249  19.803  12.547
   99PS8B    C1 3368   9.111  19.907  12.577
   99PS8B    C2 3369   9.014  19.921  12.722
   99PS8B    C3 3370   8.837  19.964  12.753
   99PS8B    B4 3371   8.764  20.079  12.719
   99PS8B    B5 3372   8.643  20.166  12.751
   99PS8B    B6 3373   8.570  20.159  12.859
   99PS8B    B7 3374   8.591  20.122  12.980
   99PS8B    B8 3375   8.682  20.143  13.069
   99PS8B    B9 3376   8.768  20.238  13.091
   99PS8B   B10 3377   8.781  20.353  13.052
   99PS8B   B11 3378   8.758  20.413  12.947
   99PS8B   B12 3379   8.655  20.428  12.872
   99PS8B   B13 3380   8.529  20.407  12.885
   99PS8B   B14 3381   8.457  20.325  12.955
   99PS8B   B15 3382   8.479  20.245  13.054
   99PS8B   B16 3383   8.717  20.427  13.005
   99PS8B   B17 3384   8.657  20.376  13.059
   99PS8B   B18 3385   8.625  20.444  13.008
   99PS8B   B19 3386   8.646  20.321  13.158
   99PS8B   B20 3387   8.694  20.347  13.275
   99PS8B   B21 3388   8.739  20.454  13.333
   99PS8B   B22 3389   8.851  20.489  13.386
   99PS8B   B23 3390   8.898  20.598  13.435
   99PS8B   B24 3391   8.550  20.524  13.005
   99PS8B   B25 3392   8.541  20.646  12.964
   99PS8B   B26 3393   8.621  20.730  12.909
   99PS8B   B27 3394   8.647  20.765  12.788
   99PS8B   B28 3395   8.653  20.877  12.725
   99PS8B   B29 3396   8.381  20.207  13.164
   99PS8B   C30 3397   8.256  20.149  13.193
   99PS8B   C31 3398   8.144  20.048  13.088
   99PS8B   C32 3399   7.976  20.062  13.043
   99PS8B   C33 3400   7.835  20.075  13.145
  100PS8B    C0 3401  17.801  16.567   9.000
  100PS8B    C1 3402  17.842  16.728   9.056
  100PS8B    C2 3403  17.933  16.775   9.198
  100PS8B    C3 3404  17.929  16.924   9.308
  100PS8B    B4 3405  17.946  17.059   9.278
  100PS8B    B5 3406  17.985  17.196   9.332
  100PS8B    B6 3407  18.043  17.221   9.446
  100PS8B    B7 3408  18.121  17.155   9.524
  100PS8B    B8 3409  18.228  17.085   9.509
  100PS8B    B9 3410  18.324  17.081   9.422
  100PS8B   B10 3411  18.363  17.158   9.335
  100PS8B   B11 3412  18.309  17.237   9.257
  100PS8B   B12 3413  18.229  17.337   9.270
  100PS8B   B13 3414  18.190  17.410   9.369
  100PS8B   B14 3415  18.176  17.391   9.496
  100PS8B   B15 3416  18.214  17.300   9.580
  100PS8B   B16 3417  18.350  17.263   9.311
  100PS8B   B17 3418  18.344  17.260   9.406
  100PS8B   B18 3419  18.334  17.340   9.363
  100PS8B   B19 3420  18.387  17.210   9.500
  100PS8B   B20 3421  18.506  17.168   9.526
  100PS8B   B21 3422  18.624  17.194   9.481
  100PS8B   B22 3423  18.717  17.126   9.425
  100PS8B   B23 3424  18.831  17.155   9.371
  100PS8B   B24 3425  18.355  17.447   9.370
  100PS8B   B25 3426  18.390  17.544   9.292
  100PS8B   B26 3427  18.419  17.555   9.168
  100PS8B   B27 3428  18.354  17.586   9.062
  100PS8B   B28 3429  18.370  17.670   8.966
  100PS8B   B29 3430  18.248  17.321   9.727
  100PS8B   C30 3431  18.201  17.365   9.852
  100PS8B   C31 3432  18.030  17.400   9.909
  100PS8B   C32 3433  17.954  17.540   9.982
  100PS8B   C33 3434  17.998  17.627  10.127
  101PS8B    C0 3435   1.175   1.914  19.761
  101PS8B    C1 3436   1.195   1.874  19.592
  101PS8B    C2 3437   1.118   1.747  19.499
  101PS8B    C3 3438   1.171   1.647  19.352
  101PS8B    B4 3439   1.210   1.688  19.224
  101PS8B    B5 3440   1.223   1.647  19.078
  101PS8B    B6 3441   1.170   1.543  19.022
  101PS8B    B7 3442   1.067   1.470  19.044
  101PS8B    B8 3443   0.942   1.493  19.070
  101PS8B    B9 3444   0.860   1.590  19.045
  101PS8B   B10 3445   0.861   1.686  18.970
  101PS8B   B11 3446   0.948   1.762  18.925
  101PS8B   B12 3447   1.058   1.746  18.863
  101PS8B   B13 3448   1.114   1.649  18.800
  101PS8B   B14 3449   1.110   1.520  18.809
  101PS8B   B15 3450   1.033   1.435  18.869
  101PS8B   B16 3451   0.916   1.714  18.880
  101PS8B   B17 3452   0.912   1.619  18.876
  101PS8B   B18 3453   0.955   1.666  18.810
  101PS8B   B19 3454   0.846   1.528  18.896
  101PS8B   B20 3455   0.718   1.513  18.886
  101PS8B   B21 3456   0.624   1.573  18.822
  101PS8B   B22 3457   0.516   1.635  18.855
  101PS8B   B23 3458   0.427   1.703  18.791
  101PS8B   B24 3459   0.977   1.669  18.703
  101PS8B   B25 3460   0.989   1.757  18.609
  101PS8B   B26 3461   0.977   1.884  18.601
  101PS8B   B27 3462   1.057   1.984  18.609
  101PS8B   B28 3463   1.082   2.086  18.535
  101PS8B   B29 3464   0.998   1.295  18.822
  101PS8B   C30 3465   1.048   1.168  18.786
  101PS8B   C31 3466   1.215   1.094  18.813
  101PS8B   C32 3467   1.333   1.023  18.706
  101PS8B   C33 3468   1.314   0.889  18.594
  102PS8B    C0 3469  14.009  22.331  15.856
  102PS8B    C1 3470  14.146  22.395  15.767
  102PS8B    C2 3471  14.293  22.314  15.717
  102PS8B    C3 3472  14.466  22.370  15.689
  102PS8B    B4 3473  14.517  22.468  15.604
  102PS8B    B5 3474  14.640  22.518  15.528
  102PS8B    B6 3475  14.750  22.452  15.507
  102PS8B    B7 3476  14.780  22.327  15.497
  102PS8B    B8 3477  14.731  22.225  15.435
  102PS8B    B9 3478  14.660  22.208  15.329
  102PS8B   B10 3479  14.630  22.278  15.233
  102PS8B   B11 3480  14.609  22.399  15.216
  102PS8B   B12 3481  14.673  22.507  15.242
  102PS8B   B13 3482  14.794  22.536  15.273
  102PS8B   B14 3483  14.889  22.473  15.335
  102PS8B   B15 3484  14.910  22.351  15.372
  102PS8B   B16 3485  14.669  22.370  15.189
  102PS8B   B17 3486  14.746  22.328  15.226
  102PS8B   B18 3487  14.755  22.409  15.183
  102PS8B   B19 3488  14.797  22.228  15.244
  102PS8B   B20 3489  14.799  22.120  15.173
  102PS8B   B21 3490  14.780  22.092  15.049
  102PS8B   B22 3491  14.697  22.018  14.983
  102PS8B   B23 3492  14.672  21.998  14.858
  102PS8B   B24 3493  14.820  22.469  15.120
  102PS8B   B25 3494  14.810  22.552  15.022
  102PS8B   B26 3495  14.714  22.599  14.952
  102PS8B   B27 3496  14.641  22.704  14.957
  102PS8B   B28 3497  14.608  22.797  14.874
  102PS8B   B29 3498  15.044  22.281  15.384
  102PS8B   C30 3499  15.171  22.282  15.444
  102PS8B   C31 3500  15.234  22.377  15.589
  102PS8B   C32 3501  15.369  22.484  15.613
  102PS8B   C33 3502  15.540  22.455  15.585
  103PS8B    C0 3503   4.307   5.633  18.741
  103PS8B    C1 3504   4.249   5.777  18.660
  103PS8B    C2 3505   4.103   5.800  18.567
  103PS8B    C3 3506   4.059   5.909  18.425
  103PS8B    B4 3507   4.062   6.048  18.413
  103PS8B    B5 3508   4.007   6.170  18.340
  103PS8B    B6 3509   3.902   6.173  18.262
  103PS8B    B7 3510   3.794   6.103  18.254
  103PS8B    B8 3511   3.705   6.061  18.337
  103PS8B    B9 3512   3.663   6.100  18.454
  103PS8B   B10 3513   3.673   6.203  18.519
  103PS8B   B11 3514   3.760   6.289  18.533
  103PS8B   B12 3515   3.827   6.365  18.454
  103PS8B   B13 3516   3.816   6.400  18.331
  103PS8B   B14 3517   3.767   6.345  18.225
  103PS8B   B15 3518   3.690   6.243  18.201
  103PS8B   B16 3519   3.699   6.306  18.498
  103PS8B   B17 3520   3.658   6.276  18.417
  103PS8B   B18 3521   3.690   6.362  18.423
  103PS8B   B19 3522   3.574   6.211  18.375
  103PS8B   B20 3523   3.456   6.186  18.419
  103PS8B   B21 3524   3.375   6.245  18.501
  103PS8B   B22 3525   3.318   6.214  18.612
  103PS8B   B23 3526   3.245   6.277  18.697
  103PS8B   B24 3527   3.672   6.465  18.391
  103PS8B   B25 3528   3.682   6.584  18.439
  103PS8B   B26 3529   3.717   6.633  18.552
  103PS8B   B27 3530   3.826   6.680  18.602
  103PS8B   B28 3531   3.861   6.788  18.661
  103PS8B   B29 3532   3.591   6.229  18.088
  103PS8B   C30 3533   3.573   6.227  17.948
  103PS8B   C31 3534   3.696   6.213  17.812
  103PS8B   C32 3535   3.733   6.311  17.672
  103PS8B   C33 3536   3.627   6.362  17.542
  104PS8B    C0 3537   3.220  19.589  21.965
  104PS8B    C1 3538   3.158  19.691  22.093
  104PS8B    C2 3539   3.055  19.648  22.228
  104PS8B    C3 3540   2.929  19.740  22.326
  104PS8B    B4 3541   2.940  19.858  22.400
  104PS8B    B5 3542   2.882  19.941  22.514
  104PS8B    B6 3543   2.796  19.901  22.603
  104PS8B    B7 3544   2.766  19.787  22.655
  104PS8B    B8 3545   2.832  19.689  22.705
  104PS8B    B9 3546   2.947  19.675  22.761
  104PS8B   B10 3547   3.029  19.752  22.809
  104PS8B   B11 3548   3.066  19.867  22.784
  104PS8B   B12 3549   3.007  19.980  22.771
  104PS8B   B13 3550   2.891  20.027  22.800
  104PS8B   B14 3551   2.773  19.975  22.811
  104PS8B   B15 3552   2.725  19.855  22.819
  104PS8B   B16 3553   3.028  19.855  22.845
  104PS8B   B17 3554   2.940  19.823  22.863
  104PS8B   B18 3555   2.962  19.910  22.883
  104PS8B   B19 3556   2.879  19.733  22.897
  104PS8B   B20 3557   2.907  19.640  22.981
  104PS8B   B21 3558   2.988  19.628  23.081
  104PS8B   B22 3559   3.086  19.550  23.110
  104PS8B   B23 3560   3.173  19.545  23.206
  104PS8B   B24 3561   2.946  19.990  22.956
  104PS8B   B25 3562   3.014  20.083  23.013
  104PS8B   B26 3563   3.136  20.121  23.011
  104PS8B   B27 3564   3.203  20.209  22.945
  104PS8B   B28 3565   3.283  20.305  22.977
  104PS8B   B29 3566   2.602  19.811  22.894
  104PS8B   C30 3567   2.462  19.827  22.909
  104PS8B   C31 3568   2.340  19.908  22.799
  104PS8B   C32 3569   2.221  20.035  22.823
  104PS8B   C33 3570   2.091  20.044  22.940
  105PS8B    C0 3571   1.994   3.433  15.111
  105PS8B    C1 3572   1.923   3.588  15.154
  105PS8B    C2 3573   1.927   3.739  15.066
  105PS8B    C3 3574   1.924   3.916  15.117
  105PS8B    B4 3575   1.831   3.988  15.192
  105PS8B    B5 3576   1.773   4.125  15.224
  105PS8B    B6 3577   1.792   4.234  15.156
  105PS8B    B7 3578   1.820   4.261  15.034
  105PS8B    B8 3579   1.775   4.223  14.919
  105PS8B    B9 3580   1.663   4.176  14.876
  105PS8B   B10 3581   1.549   4.170  14.920
  105PS8B   B11 3582   1.499   4.156  15.033
  105PS8B   B12 3583   1.511   4.217  15.145
  105PS8B   B13 3584   1.560   4.330  15.182
  105PS8B   B14 3585   1.654   4.407  15.138
  105PS8B   B15 3586   1.723   4.416  15.029
  105PS8B   B16 3587   1.494   4.220  14.999
  105PS8B   B17 3588   1.555   4.286  14.969
  105PS8B   B18 3589   1.497   4.306  15.037
  105PS8B   B19 3590   1.608   4.328  14.876
  105PS8B   B20 3591   1.567   4.341  14.755
  105PS8B   B21 3592   1.451   4.348  14.697
  105PS8B   B22 3593   1.390   4.279  14.608
  105PS8B   B23 3594   1.271   4.280  14.558
  105PS8B   B24 3595   1.437   4.386  15.081
  105PS8B   B25 3596   1.322   4.400  15.137
  105PS8B   B26 3597   1.224   4.322  15.164
  105PS8B   B27 3598   1.188   4.253  15.267
  105PS8B   B28 3599   1.080   4.242  15.336
  105PS8B   B29 3600   1.779   4.542  14.966
  105PS8B   C30 3601   1.864   4.653  14.984
  105PS8B   C31 3602   1.991   4.687  15.112
  105PS8B   C32 3603   2.017   4.819  15.225
  105PS8B   C33 3604   2.034   4.990  15.192
  106PS8B    C0 3605   5.610  -0.672   4.830
  106PS8B    C1 3606   5.740  -0.573   4.894
  106PS8B    C2 3607   5.768  -0.402   4.874
  106PS8B    C3 3608   5.921  -0.298   4.869
  106PS8B    B4 3609   6.022  -0.281   4.964
  106PS8B    B5 3610   6.133  -0.190   5.015
  106PS8B    B6 3611   6.151  -0.065   4.984
  106PS8B    B7 3612   6.075   0.031   4.945
  106PS8B    B8 3613   5.961   0.078   4.982
  106PS8B    B9 3614   5.895   0.080   5.094
  106PS8B   B10 3615   5.923   0.059   5.211
  106PS8B   B11 3616   6.000  -0.018   5.270
  106PS8B   B12 3617   6.125  -0.043   5.263
  106PS8B   B13 3618   6.227   0.016   5.210
  106PS8B   B14 3619   6.245   0.093   5.109
  106PS8B   B15 3620   6.167   0.162   5.030
  106PS8B   B16 3621   6.014   0.054   5.269
  106PS8B   B17 3622   6.034   0.117   5.201
  106PS8B   B18 3623   6.098   0.095   5.263
  106PS8B   B19 3624   5.991   0.203   5.139
  106PS8B   B20 3625   5.905   0.294   5.169
  106PS8B   B21 3626   5.862   0.346   5.279
  106PS8B   B22 3627   5.748   0.356   5.337
  106PS8B   B23 3628   5.708   0.400   5.451
  106PS8B   B24 3629   6.182   0.134   5.321
  106PS8B   B25 3630   6.231   0.121   5.439
  106PS8B   B26 3631   6.201   0.054   5.544
  106PS8B   B27 3632   6.235  -0.060   5.593
  106PS8B   B28 3633   6.279  -0.101   5.707
  106PS8B   B29 3634   6.200   0.293   4.962
  106PS8B   C30 3635   6.287   0.359   4.873
  106PS8B   C31 3636   6.410   0.291   4.753
  106PS8B   C32 3637   6.581   0.318   4.729
  106PS8B   C33 3638   6.665   0.469   4.698
  107PS8B    C0 3639  18.054  13.618  16.044
  107PS8B    C1 3640  18.058  13.590  15.871
  107PS8B    C2 3641  18.187  13.623  15.758
  107PS8B    C3 3642  18.191  13.666  15.578
  107PS8B    B4 3643  18.140  13.598  15.467
  107PS8B    B5 3644  18.150  13.577  15.317
  107PS8B    B6 3645  18.246  13.617  15.239
  107PS8B    B7 3646  18.372  13.641  15.256
  107PS8B    B8 3647  18.470  13.580  15.313
  107PS8B    B9 3648  18.497  13.456  15.342
  107PS8B   B10 3649  18.453  13.348  15.306
  107PS8B   B11 3650  18.341  13.305  15.274
  107PS8B   B12 3651  18.252  13.340  15.189
  107PS8B   B13 3652  18.250  13.417  15.086
  107PS8B   B14 3653  18.315  13.523  15.050
  107PS8B   B15 3654  18.421  13.584  15.091
  107PS8B   B16 3655  18.393  13.312  15.223
  107PS8B   B17 3656  18.441  13.385  15.186
  107PS8B   B18 3657  18.381  13.339  15.134
  107PS8B   B19 3658  18.542  13.439  15.186
  107PS8B   B20 3659  18.662  13.394  15.199
  107PS8B   B21 3660  18.718  13.279  15.181
  107PS8B   B22 3661  18.783  13.196  15.255
  107PS8B   B23 3662  18.831  13.078  15.238
  107PS8B   B24 3663  18.363  13.303  15.033
  107PS8B   B25 3664  18.313  13.199  14.975
  107PS8B   B26 3665  18.264  13.088  15.015
  107PS8B   B27 3666  18.146  13.044  15.040
  107PS8B   B28 3667  18.077  12.942  15.004
  107PS8B   B29 3668  18.519  13.663  15.006
  107PS8B   C30 3669  18.535  13.772  14.919
  107PS8B   C31 3670  18.423  13.914  14.883
  107PS8B   C32 3671  18.354  13.978  14.735
  107PS8B   C33 3672  18.435  14.033  14.590
  108PS8B    C0 3673   1.961   2.384   2.355
  108PS8B    C1 3674   2.064   2.499   2.438
  108PS8B    C2 3675   2.090   2.517   2.611
  108PS8B    C3 3676   2.132   2.661   2.718
  108PS8B    B4 3677   2.240   2.749   2.715
  108PS8B    B5 3678   2.326   2.847   2.794
  108PS8B    B6 3679   2.329   2.859   2.923
  108PS8B    B7 3680   2.305   2.781   3.023
  108PS8B    B8 3681   2.338   2.661   3.055
  108PS8B    B9 3682   2.437   2.582   3.026
  108PS8B   B10 3683   2.548   2.597   2.977
  108PS8B   B11 3684   2.596   2.672   2.891
  108PS8B   B12 3685   2.600   2.799   2.873
  108PS8B   B13 3686   2.577   2.902   2.947
  108PS8B   B14 3687   2.500   2.926   3.048
  108PS8B   B15 3688   2.432   2.854   3.131
  108PS8B   B16 3689   2.615   2.682   2.960
  108PS8B   B17 3690   2.568   2.705   3.040
  108PS8B   B18 3691   2.630   2.763   3.005
  108PS8B   B19 3692   2.523   2.664   3.137
  108PS8B   B20 3693   2.563   2.568   3.213
  108PS8B   B21 3694   2.676   2.509   3.235
  108PS8B   B22 3695   2.720   2.389   3.224
  108PS8B   B23 3696   2.835   2.332   3.237
  108PS8B   B24 3697   2.707   2.836   3.032
  108PS8B   B25 3698   2.823   2.872   2.991
  108PS8B   B26 3699   2.903   2.834   2.898
  108PS8B   B27 3700   2.926   2.871   2.777
  108PS8B   B28 3701   3.031   2.904   2.710
  108PS8B   B29 3702   2.403   2.885   3.276
  108PS8B   C30 3703   2.345   2.976   3.367
  108PS8B   C31 3704   2.230   3.117   3.336
  108PS8B   C32 3705   2.235   3.287   3.376
  108PS8B   C33 3706   2.255   3.364   3.532
  109PS8B    C0 3707  17.776   6.083  19.146
  109PS8B    C1 3708  17.627   6.026  19.219
  109PS8B    C2 3709  17.560   6.064  19.377
  109PS8B    C3 3710  17.454   5.970  19.495
  109PS8B    B4 3711  17.327   5.914  19.479
  109PS8B    B5 3712  17.200   5.868  19.549
  109PS8B    B6 3713  17.165   5.893  19.672
  109PS8B    B7 3714  17.191   5.987  19.756
  109PS8B    B8 3715  17.191   6.116  19.752
  109PS8B    B9 3716  17.131   6.206  19.681
  109PS8B   B10 3717  17.034   6.205  19.606
  109PS8B   B11 3718  16.984   6.124  19.527
  109PS8B   B12 3719  16.945   6.002  19.536
  109PS8B   B13 3720  16.918   5.922  19.632
  109PS8B   B14 3721  16.960   5.909  19.754
  109PS8B   B15 3722  17.028   5.982  19.836
  109PS8B   B16 3723  16.949   6.139  19.589
  109PS8B   B17 3724  16.969   6.128  19.682
  109PS8B   B18 3725  16.900   6.080  19.643
  109PS8B   B19 3726  17.002   6.182  19.776
  109PS8B   B20 3727  16.979   6.302  19.818
  109PS8B   B21 3728  16.888   6.391  19.793
  109PS8B   B22 3729  16.888   6.511  19.747
  109PS8B   B23 3730  16.796   6.595  19.714
  109PS8B   B24 3731  16.801   6.039  19.661
  109PS8B   B25 3732  16.690   6.023  19.597
  109PS8B   B26 3733  16.648   6.053  19.480
  109PS8B   B27 3734  16.640   5.991  19.368
  109PS8B   B28 3735  16.547   5.968  19.282
  109PS8B   B29 3736  17.014   5.986  19.987
  109PS8B   C30 3737  17.020   5.912  20.106
  109PS8B   C31 3738  17.089   5.744  20.139
  109PS8B   C32 3739  17.022   5.598  20.210
  109PS8B   C33 3740  16.948   5.575  20.366
  110PS8B    C0 3741   4.582  13.177   7.890
  110PS8B    C1 3742   4.512  13.210   8.048
  110PS8B    C2 3743   4.344  13.232   8.091
  110PS8B    C3 3744   4.258  13.330   8.222
  110PS8B    B4 3745   4.271  13.327   8.361
  110PS8B    B5 3746   4.205  13.357   8.495
  110PS8B    B6 3747   4.079  13.383   8.514
  110PS8B    B7 3748   3.969  13.354   8.452
  110PS8B    B8 3749   3.918  13.247   8.403
  110PS8B    B9 3750   3.930  13.120   8.427
  110PS8B   B10 3751   3.976  13.054   8.519
  110PS8B   B11 3752   4.071  13.067   8.597
  110PS8B   B12 3753   4.107  13.158   8.680
  110PS8B   B13 3754   4.052  13.261   8.733
  110PS8B   B14 3755   3.958  13.342   8.696
  110PS8B   B15 3756   3.868  13.343   8.603
  110PS8B   B16 3757   4.003  13.072   8.622
  110PS8B   B17 3758   3.930  13.131   8.606
  110PS8B   B18 3759   3.970  13.130   8.689
  110PS8B   B19 3760   3.830  13.143   8.553
  110PS8B   B20 3761   3.737  13.056   8.528
  110PS8B   B21 3762   3.703  12.943   8.578
  110PS8B   B22 3763   3.692  12.822   8.534
  110PS8B   B23 3764   3.666  12.708   8.588
  110PS8B   B24 3765   3.952  13.140   8.796
  110PS8B   B25 3766   3.993  13.087   8.906
  110PS8B   B26 3767   4.076  12.994   8.937
  110PS8B   B27 3768   4.200  12.989   8.970
  110PS8B   B28 3769   4.267  12.937   9.067
  110PS8B   B29 3770   3.731  13.407   8.611
  110PS8B   C30 3771   3.659  13.526   8.630
  110PS8B   C31 3772   3.715  13.701   8.630
  110PS8B   C32 3773   3.703  13.832   8.745
  110PS8B   C33 3774   3.559  13.901   8.819
  111PS8B    C0 3775   4.528  11.266  -0.240
  111PS8B    C1 3776   4.519  11.375  -0.103
  111PS8B    C2 3777   4.470  11.543  -0.100
  111PS8B    C3 3778   4.516  11.687   0.006
  111PS8B    B4 3779   4.508  11.705   0.145
  111PS8B    B5 3780   4.499  11.805   0.259
  111PS8B    B6 3781   4.472  11.932   0.248
  111PS8B    B7 3782   4.408  12.004   0.164
  111PS8B    B8 3783   4.293  11.997   0.106
  111PS8B    B9 3784   4.179  11.941   0.133
  111PS8B   B10 3785   4.130  11.893   0.234
  111PS8B   B11 3786   4.173  11.831   0.333
  111PS8B   B12 3787   4.264  11.852   0.420
  111PS8B   B13 3788   4.333  11.954   0.457
  111PS8B   B14 3789   4.374  12.062   0.399
  111PS8B   B15 3790   4.347  12.123   0.288
  111PS8B   B16 3791   4.149  11.899   0.341
  111PS8B   B17 3792   4.176  11.984   0.308
  111PS8B   B18 3793   4.184  11.965   0.398
  111PS8B   B19 3794   4.151  12.066   0.233
  111PS8B   B20 3795   4.038  12.109   0.189
  111PS8B   B21 3796   3.916  12.106   0.232
  111PS8B   B22 3797   3.805  12.057   0.188
  111PS8B   B23 3798   3.686  12.046   0.236
  111PS8B   B24 3799   4.178  12.008   0.498
  111PS8B   B25 3800   4.137  11.975   0.615
  111PS8B   B26 3801   4.081  11.871   0.665
  111PS8B   B27 3802   4.122  11.765   0.726
  111PS8B   B28 3803   4.094  11.706   0.836
  111PS8B   B29 3804   4.351  12.272   0.262
  111PS8B   C30 3805   4.430  12.388   0.263
  111PS8B   C31 3806   4.613  12.407   0.273
  111PS8B   C32 3807   4.719  12.496   0.380
  111PS8B   C33 3808   4.720  12.667   0.418
  112PS8B    C0 3809  20.182   0.431   3.874
  112PS8B    C1 3810  20.109   0.551   3.770
  112PS8B    C2 3811  20.163   0.714   3.736
  112PS8B    C3 3812  20.075   0.871   3.692
  112PS8B    B4 3813  19.989   0.900   3.586
  112PS8B    B5 3814  19.931   1.010   3.498
  112PS8B    B6 3815  19.973   1.132   3.489
  112PS8B    B7 3816  20.086   1.191   3.507
  112PS8B    B8 3817  20.208   1.169   3.470
  112PS8B    B9 3818  20.264   1.106   3.372
  112PS8B   B10 3819  20.225   1.064   3.264
  112PS8B   B11 3820  20.120   1.016   3.221
  112PS8B   B12 3821  19.997   1.052   3.220
  112PS8B   B13 3822  19.935   1.163   3.242
  112PS8B   B14 3823  19.958   1.268   3.313
  112PS8B   B15 3824  20.061   1.315   3.376
  112PS8B   B16 3825  20.140   1.082   3.199
  112PS8B   B17 3826  20.153   1.166   3.243
  112PS8B   B18 3827  20.084   1.156   3.183
  112PS8B   B19 3828  20.232   1.238   3.282
  112PS8B   B20 3829  20.350   1.267   3.237
  112PS8B   B21 3830  20.408   1.258   3.122
  112PS8B   B22 3831  20.512   1.197   3.077
  112PS8B   B23 3832  20.564   1.180   2.960
  112PS8B   B24 3833  20.026   1.208   3.107
  112PS8B   B25 3834  19.972   1.182   2.993
  112PS8B   B26 3835  19.965   1.079   2.917
  112PS8B   B27 3836  19.881   0.984   2.900
  112PS8B   B28 3837  19.819   0.933   2.799
  112PS8B   B29 3838  20.094   1.461   3.400
  112PS8B   C30 3839  20.050   1.583   3.455
  112PS8B   C31 3840  19.914   1.618   3.574
  112PS8B   C32 3841  19.775   1.725   3.570
  112PS8B   C33 3842  19.770   1.898   3.545
  113PS8B    C0 3843   0.279   3.942  10.021
  113PS8B    C1 3844   0.435   3.889   9.961
  113PS8B    C2 3845   0.587   3.975   9.961
  113PS8B    C3 3846   0.735   3.972   9.851
  113PS8B    B4 3847   0.819   3.867   9.814
  113PS8B    B5 3848   0.957   3.827   9.763
  113PS8B    B6 3849   1.062   3.904   9.757
  113PS8B    B7 3850   1.102   4.008   9.822
  113PS8B    B8 3851   1.112   4.040   9.947
  113PS8B    B9 3852   1.124   3.975  10.058
  113PS8B   B10 3853   1.154   3.860  10.087
  113PS8B   B11 3854   1.136   3.749  10.035
  113PS8B   B12 3855   1.161   3.698   9.921
  113PS8B   B13 3856   1.234   3.731   9.820
  113PS8B   B14 3857   1.275   3.843   9.771
  113PS8B   B15 3858   1.279   3.965   9.812
  113PS8B   B16 3859   1.203   3.777  10.037
  113PS8B   B17 3860   1.244   3.854   9.999
  113PS8B   B18 3861   1.270   3.771   9.971
  113PS8B   B19 3862   1.282   3.960  10.022
  113PS8B   B20 3863   1.336   4.008  10.128
  113PS8B   B21 3864   1.401   3.959  10.229
  113PS8B   B22 3865   1.383   3.957  10.356
  113PS8B   B23 3866   1.443   3.900  10.455
  113PS8B   B24 3867   1.355   3.712   9.936
  113PS8B   B25 3868   1.401   3.592   9.949
  113PS8B   B26 3869   1.364   3.487  10.013
  113PS8B   B27 3870   1.295   3.383   9.985
  113PS8B   B28 3871   1.313   3.256   9.996
  113PS8B   B29 3872   1.383   4.070   9.776
  113PS8B   C30 3873   1.445   4.142   9.672
  113PS8B   C31 3874   1.396   4.163   9.496
  113PS8B   C32 3875   1.478   4.134   9.344
  113PS8B   C33 3876   1.631   4.198   9.287
  114PS8B    C0 3877   2.984  15.975  13.644
  114PS8B    C1 3878   3.019  16.079  13.508
  114PS8B    C2 3879   3.145  16.064  13.388
  114PS8B    C3 3880   3.240  16.187  13.287
  114PS8B    B4 3881   3.195  16.284  13.197
  114PS8B    B5 3882   3.231  16.371  13.077
  114PS8B    B6 3883   3.336  16.357  13.000
  114PS8B    B7 3884   3.411  16.259  12.967
  114PS8B    B8 3885   3.392  16.138  12.926
  114PS8B    B9 3886   3.296  16.076  12.865
  114PS8B   B10 3887   3.198  16.111  12.801
  114PS8B   B11 3888   3.119  16.206  12.807
  114PS8B   B12 3889   3.131  16.334  12.809
  114PS8B   B13 3890   3.225  16.417  12.782
  114PS8B   B14 3891   3.354  16.413  12.786
  114PS8B   B15 3892   3.443  16.319  12.798
  114PS8B   B16 3893   3.166  16.203  12.752
  114PS8B   B17 3894   3.261  16.205  12.744
  114PS8B   B18 3895   3.211  16.275  12.711
  114PS8B   B19 3896   3.354  16.141  12.727
  114PS8B   B20 3897   3.372  16.036  12.655
  114PS8B   B21 3898   3.313  15.985  12.552
  114PS8B   B22 3899   3.254  15.874  12.527
  114PS8B   B23 3900   3.187  15.827  12.427
  114PS8B   B24 3901   3.205  16.347  12.629
  114PS8B   B25 3902   3.115  16.402  12.555
  114PS8B   B26 3903   2.988  16.391  12.544
  114PS8B   B27 3904   2.886  16.453  12.592
  114PS8B   B28 3905   2.781  16.509  12.542
  114PS8B   B29 3906   3.582  16.318  12.738
  114PS8B   C30 3907   3.706  16.383  12.732
  114PS8B   C31 3908   3.777  16.516  12.838
  114PS8B   C32 3909   3.843  16.674  12.804
  114PS8B   C33 3910   3.974  16.719  12.697
  115PS8B    C0 3911   1.391   2.883  16.992
  115PS8B    C1 3912   1.521   2.767  17.011
  115PS8B    C2 3913   1.662   2.743  16.910
  115PS8B    C3 3914   1.765   2.595  16.870
  115PS8B    B4 3915   1.836   2.508  16.953
  115PS8B    B5 3916   1.952   2.409  16.963
  115PS8B    B6 3917   2.046   2.392  16.875
  115PS8B    B7 3918   2.102   2.466  16.786
  115PS8B    B8 3919   2.150   2.585  16.783
  115PS8B    B9 3920   2.200   2.666  16.870
  115PS8B   B10 3921   2.242   2.654  16.984
  115PS8B   B11 3922   2.213   2.583  17.082
  115PS8B   B12 3923   2.200   2.457  17.101
  115PS8B   B13 3924   2.235   2.351  17.037
  115PS8B   B14 3925   2.254   2.323  16.912
  115PS8B   B15 3926   2.267   2.391  16.803
  115PS8B   B16 3927   2.275   2.571  17.047
  115PS8B   B17 3928   2.299   2.544  16.958
  115PS8B   B18 3929   2.317   2.489  17.029
  115PS8B   B19 3930   2.338   2.581  16.858
  115PS8B   B20 3931   2.423   2.674  16.829
  115PS8B   B21 3932   2.518   2.734  16.893
  115PS8B   B22 3933   2.543   2.855  16.927
  115PS8B   B23 3934   2.634   2.913  16.998
  115PS8B   B24 3935   2.388   2.416  17.068
  115PS8B   B25 3936   2.439   2.383  17.181
  115PS8B   B26 3937   2.430   2.425  17.302
  115PS8B   B27 3938   2.359   2.393  17.404
  115PS8B   B28 3939   2.384   2.364  17.527
  115PS8B   B29 3940   2.350   2.353  16.682
  115PS8B   C30 3941   2.372   2.258  16.581
  115PS8B   C31 3942   2.267   2.117  16.525
  115PS8B   C32 3943   2.296   1.945  16.507
  115PS8B   C33 3944   2.419   1.863  16.415
  116PS8B    C0 3945  21.584  18.342   7.035
  116PS8B    C1 3946  21.515  18.303   6.878
  116PS8B    C2 3947  21.528  18.392   6.728
  116PS8B    C3 3948  21.416  18.411   6.582
  116PS8B    B4 3949  21.362  18.315   6.496
  116PS8B    B5 3950  21.304  18.288   6.357
  116PS8B    B6 3951  21.310  18.367   6.254
  116PS8B    B7 3952  21.390  18.459   6.216
  116PS8B    B8 3953  21.518  18.471   6.205
  116PS8B    B9 3954  21.617  18.389   6.190
  116PS8B   B10 3955  21.627  18.271   6.157
  116PS8B   B11 3956  21.557  18.170   6.173
  116PS8B   B12 3957  21.436  18.139   6.148
  116PS8B   B13 3958  21.341  18.190   6.078
  116PS8B   B14 3959  21.310  18.310   6.040
  116PS8B   B15 3960  21.371  18.424   6.038
  116PS8B   B16 3961  21.563  18.199   6.106
  116PS8B   B17 3962  21.538  18.283   6.068
  116PS8B   B18 3963  21.496  18.206   6.041
  116PS8B   B19 3964  21.578  18.384   6.033
  116PS8B   B20 3965  21.690  18.416   5.978
  116PS8B   B21 3966  21.780  18.352   5.911
  116PS8B   B22 3967  21.906  18.329   5.926
  116PS8B   B23 3968  21.993  18.257   5.864
  116PS8B   B24 3969  21.452  18.155   5.955
  116PS8B   B25 3970  21.444  18.036   5.906
  116PS8B   B26 3971  21.490  17.921   5.939
  116PS8B   B27 3972  21.446  17.821   6.007
  116PS8B   B28 3973  21.435  17.695   5.986
  116PS8B   B29 3974  21.352  18.535   5.937
  116PS8B   C30 3975  21.261  18.625   5.878
  116PS8B   C31 3976  21.091  18.673   5.930
  116PS8B   C32 3977  20.935  18.672   5.850
  116PS8B   C33 3978  20.888  18.748   5.699
  117PS8B    C0 3979   7.185  12.274   3.274
  117PS8B    C1 3980   7.239  12.149   3.164
  117PS8B    C2 3981   7.150  12.070   3.035
  117PS8B    C3 3982   7.159  11.902   2.960
  117PS8B    B4 3983   7.265  11.835   2.898
  117PS8B    B5 3984   7.305  11.726   2.800
  117PS8B    B6 3985   7.227  11.665   2.715
  117PS8B    B7 3986   7.118  11.697   2.655
  117PS8B    B8 3987   7.076  11.799   2.588
  117PS8B    B9 3988   7.132  11.894   2.520
  117PS8B   B10 3989   7.243  11.911   2.473
  117PS8B   B11 3990   7.359  11.881   2.507
  117PS8B   B12 3991   7.418  11.772   2.538
  117PS8B   B13 3992   7.391  11.646   2.525
  117PS8B   B14 3993   7.282  11.577   2.519
  117PS8B   B15 3994   7.157  11.604   2.503
  117PS8B   B16 3995   7.328  11.848   2.450
  117PS8B   B17 3996   7.254  11.791   2.437
  117PS8B   B18 3997   7.338  11.758   2.423
  117PS8B   B19 3998   7.146  11.787   2.399
  117PS8B   B20 3999   7.088  11.850   2.302
  117PS8B   B21 4000   7.128  11.909   2.195
  117PS8B   B22 4001   7.120  12.028   2.148
  117PS8B   B23 4002   7.169  12.089   2.045
  117PS8B   B24 4003   7.398  11.690   2.362
  117PS8B   B25 4004   7.515  11.686   2.309
  117PS8B   B26 4005   7.616  11.766   2.304
  117PS8B   B27 4006   7.724  11.781   2.372
  117PS8B   B28 4007   7.849  11.789   2.344
  117PS8B   B29 4008   7.053  11.516   2.435
  117PS8B   C30 4009   6.988  11.391   2.436
  117PS8B   C31 4010   6.982  11.260   2.565
  117PS8B   C32 4011   7.021  11.090   2.565
  117PS8B   C33 4012   6.958  10.962   2.463
  118PS8B    C0 4013   9.638  10.959   0.406
  118PS8B    C1 4014   9.719  11.114   0.408
  118PS8B    C2 4015   9.880  11.154   0.352
  118PS8B    C3 4016  10.005  11.280   0.405
  118PS8B    B4 4017   9.996  11.419   0.411
  118PS8B    B5 4018  10.073  11.551   0.411
  118PS8B    B6 4019  10.198  11.567   0.378
  118PS8B    B7 4020  10.280  11.505   0.301
  118PS8B    B8 4021  10.276  11.459   0.181
  118PS8B    B9 4022  10.209  11.487   0.074
  118PS8B   B10 4023  10.140  11.582   0.038
  118PS8B   B11 4024  10.064  11.662   0.095
  118PS8B   B12 4025  10.075  11.742   0.195
  118PS8B   B13 4026  10.173  11.790   0.263
  118PS8B   B14 4027  10.292  11.749   0.292
  118PS8B   B15 4028  10.370  11.655   0.250
  118PS8B   B16 4029  10.128  11.686   0.069
  118PS8B   B17 4030  10.219  11.667   0.089
  118PS8B   B18 4031  10.185  11.750   0.108
  118PS8B   B19 4032  10.312  11.611   0.052
  118PS8B   B20 4033  10.355  11.588  -0.067
  118PS8B   B21 4034  10.336  11.642  -0.183
  118PS8B   B22 4035  10.290  11.603  -0.296
  118PS8B   B23 4036  10.262  11.660  -0.409
  118PS8B   B24 4037  10.209  11.856   0.112
  118PS8B   B25 4038  10.152  11.968   0.086
  118PS8B   B26 4039  10.037  12.004   0.041
  118PS8B   B27 4040   9.925  12.039   0.094
  118PS8B   B28 4041   9.845  12.139   0.080
  118PS8B   B29 4042  10.521  11.658   0.245
  118PS8B   C30 4043  10.640  11.672   0.319
  118PS8B   C31 4044  10.669  11.666   0.500
  118PS8B   C32 4045  10.743  11.776   0.615
  118PS8B   C33 4046  10.904  11.845   0.613
  119PS8B    C0 4047  20.191  15.347   3.206
  119PS8B    C1 4048  20.290  15.325   3.349
  119PS8B    C2 4049  20.348  15.447   3.461
  119PS8B    C3 4050  20.499  15.459   3.568
  119PS8B    B4 4051  20.547  15.374   3.668
  119PS8B    B5 4052  20.633  15.363   3.793
  119PS8B    B6 4053  20.681  15.462   3.863
  119PS8B    B7 4054  20.646  15.583   3.884
  119PS8B    B8 4055  20.536  15.643   3.915
  119PS8B    B9 4056  20.427  15.609   3.976
  119PS8B   B10 4057  20.395  15.515   4.047
  119PS8B   B11 4058  20.424  15.395   4.053
  119PS8B   B12 4059  20.533  15.329   4.061
  119PS8B   B13 4060  20.655  15.357   4.091
  119PS8B   B14 4061  20.728  15.463   4.080
  119PS8B   B15 4062  20.707  15.588   4.055
  119PS8B   B16 4063  20.447  15.440   4.105
  119PS8B   B17 4064  20.505  15.515   4.108
  119PS8B   B18 4065  20.530  15.437   4.150
  119PS8B   B19 4066  20.509  15.629   4.115
  119PS8B   B20 4067  20.432  15.712   4.177
  119PS8B   B21 4068  20.352  15.704   4.278
  119PS8B   B22 4069  20.227  15.725   4.296
  119PS8B   B23 4070  20.145  15.708   4.395
  119PS8B   B24 4071  20.581  15.397   4.237
  119PS8B   B25 4072  20.568  15.299   4.320
  119PS8B   B26 4073  20.483  15.205   4.337
  119PS8B   B27 4074  20.475  15.082   4.300
  119PS8B   B28 4075  20.455  14.970   4.359
  119PS8B   B29 4076  20.786  15.706   4.108
  119PS8B   C30 4077  20.913  15.768   4.114
  119PS8B   C31 4078  21.065  15.737   4.016
  119PS8B   C32 4079  21.231  15.699   4.060
  119PS8B   C33 4080  21.340  15.787   4.164
  23.00000  23.00000  23.00000
