/home/3770/.conda/envs/md/bin/polyply gen_coords -p top/system_surfactant.top -o surfactant.gro -name surfactant -box 3 3 3
106776
    0PS8B    C0    1   2.269   0.728  15.503
    0PS8B    C1    2   2.428   0.697  15.568
    0PS8B    C2    3   2.524   0.797  15.675
    0PS8B    C3    4   2.706   0.820  15.698
    0PS8B    B4    5   2.806   0.728  15.730
    0PS8B    B5    6   2.945   0.708  15.790
    0PS8B    B6    7   3.012   0.795  15.859
    0PS8B    B7    8   2.982   0.895  15.934
    0PS8B    B8    9   2.898   0.915  16.030
    0PS8B    B9   10   2.839   0.840  16.118
    0PS8B   B10   11   2.856   0.726  16.159
    0PS8B   B11   12   2.895   0.620  16.110
    0PS8B   B12   13   3.000   0.583  16.044
    0PS8B   B13   14   3.116   0.634  16.023
    0PS8B   B14   15   3.163   0.754  16.017
    0PS8B   B15   16   3.121   0.871  16.050
    0PS8B   B16   17   2.938   0.655  16.158
    0PS8B   B17   18   2.982   0.739  16.159
    0PS8B   B18   19   3.032   0.662  16.156
    0PS8B   B19   20   2.978   0.845  16.202
    0PS8B   B20   21   2.937   0.887  16.317
    0PS8B   B21   22   2.920   0.835  16.433
    0PS8B   B22   23   2.820   0.818  16.512
    0PS8B   B23   24   2.802   0.757  16.625
    0PS8B   B24   25   3.124   0.615  16.191
    0PS8B   B25   26   3.165   0.500  16.231
    0PS8B   B26   27   3.109   0.386  16.251
    0PS8B   B27   28   3.095   0.278  16.183
    0PS8B   B28   29   3.118   0.153  16.202
    0PS8B   B29   30   3.204   0.989  16.097
    0PS8B   C30   31   3.310   1.076  16.066
    0PS8B   C31   32   3.393   1.110  15.905
    0PS8B   C32   33   3.560   1.105  15.853
    0PS8B   C33   34   3.699   1.189  15.919
    1PS8B    C0   35  18.033   5.399  15.633
    1PS8B    C1   36  17.884   5.475  15.685
    1PS8B    C2   37  17.789   5.443  15.828
    1PS8B    C3   38  17.609   5.456  15.866
    1PS8B    B4   39  17.522   5.565  15.860
    1PS8B    B5   40  17.392   5.626  15.910
    1PS8B    B6   41  17.322   5.586  16.013
    1PS8B    B7   42  17.350   5.524  16.122
    1PS8B    B8   43  17.439   5.536  16.214
    1PS8B    B9   44  17.514   5.632  16.259
    1PS8B   B10   45  17.512   5.754  16.248
    1PS8B   B11   46  17.479   5.834  16.159
    1PS8B   B12   47  17.374   5.852  16.089
    1PS8B   B13   48  17.251   5.813  16.096
    1PS8B   B14   49  17.192   5.709  16.143
    1PS8B   B15   50  17.225   5.612  16.222
    1PS8B   B16   51  17.438   5.828  16.219
    1PS8B   B17   52  17.386   5.759  16.258
    1PS8B   B18   53  17.344   5.833  16.225
    1PS8B   B19   54  17.383   5.681  16.342
    1PS8B   B20   55  17.430   5.686  16.462
    1PS8B   B21   56  17.463   5.780  16.544
    1PS8B   B22   57  17.570   5.815  16.605
    1PS8B   B23   58  17.605   5.915  16.679
    1PS8B   B24   59  17.260   5.902  16.239
    1PS8B   B25   60  17.236   6.027  16.228
    1PS8B   B26   61  17.304   6.131  16.195
    1PS8B   B27   62  17.323   6.197  16.087
    1PS8B   B28   63  17.314   6.320  16.051
    1PS8B   B29   64  17.135   5.537  16.318
    1PS8B   C30   65  17.019   5.459  16.332
    1PS8B   C31   66  16.918   5.372  16.205
    1PS8B   C32   67  16.748   5.376  16.162
    1PS8B   C33   68  16.608   5.347  16.264
    2PS8B    C0   69  12.206   1.260   3.682
    2PS8B    C1   70  12.038   1.228   3.643
    2PS8B    C2   71  11.963   1.076   3.596
    2PS8B    C3   72  11.819   1.033   3.489
    2PS8B    B4   73  11.685   1.072   3.498
    2PS8B    B5   74  11.541   1.037   3.461
    2PS8B    B6   75  11.498   0.923   3.416
    2PS8B    B7   76  11.538   0.801   3.427
    2PS8B    B8   77  11.575   0.725   3.524
    2PS8B    B9   78  11.554   0.721   3.651
    2PS8B   B10   79  11.473   0.773   3.726
    2PS8B   B11   80  11.413   0.882   3.730
    2PS8B   B12   81  11.340   0.947   3.648
    2PS8B   B13   82  11.278   0.919   3.538
    2PS8B   B14   83  11.296   0.835   3.443
    2PS8B   B15   84  11.370   0.730   3.425
    2PS8B   B16   85  11.376   0.821   3.714
    2PS8B   B17   86  11.378   0.757   3.644
    2PS8B   B18   87  11.305   0.812   3.654
    2PS8B   B19   88  11.411   0.651   3.616
    2PS8B   B20   89  11.418   0.544   3.687
    2PS8B   B21   90  11.361   0.502   3.795
    2PS8B   B22   91  11.401   0.464   3.911
    2PS8B   B23   92  11.343   0.432   4.021
    2PS8B   B24   93  11.196   0.816   3.644
    2PS8B   B25   94  11.096   0.869   3.705
    2PS8B   B26   95  11.081   0.940   3.811
    2PS8B   B27   96  11.072   1.065   3.836
    2PS8B   B28   97  10.990   1.140   3.900
    2PS8B   B29   98  11.337   0.608   3.341
    2PS8B   C30   99  11.304   0.561   3.213
    2PS8B   C31  100  11.317   0.643   3.049
    2PS8B   C32  101  11.202   0.673   2.920
    2PS8B   C33  102  11.102   0.559   2.832
    3PS8B    C0  103   8.783   8.405   2.121
    3PS8B    C1  104   8.610   8.412   2.099
    3PS8B    C2  105   8.484   8.417   2.220
    3PS8B    C3  106   8.309   8.357   2.225
    3PS8B    B4  107   8.201   8.386   2.143
    3PS8B    B5  108   8.049   8.391   2.131
    3PS8B    B6  109   7.963   8.383   2.228
    3PS8B    B7  110   7.966   8.410   2.354
    3PS8B    B8  111   8.006   8.510   2.425
    3PS8B    B9  112   8.021   8.637   2.405
    3PS8B   B10  113   7.983   8.715   2.319
    3PS8B   B11  114   7.962   8.708   2.197
    3PS8B   B12  115   7.891   8.633   2.122
    3PS8B   B13  116   7.795   8.549   2.141
    3PS8B   B14  117   7.760   8.472   2.238
    3PS8B   B15  118   7.792   8.461   2.363
    3PS8B   B16  119   7.905   8.715   2.243
    3PS8B   B17  120   7.869   8.662   2.312
    3PS8B   B18  121   7.821   8.676   2.235
    3PS8B   B19  122   7.860   8.651   2.426
    3PS8B   B20  123   7.854   8.740   2.519
    3PS8B   B21  124   7.820   8.864   2.524
    3PS8B   B22  125   7.879   8.973   2.558
    3PS8B   B23  126   7.848   9.098   2.554
    3PS8B   B24  127   7.720   8.690   2.195
    3PS8B   B25  128   7.661   8.759   2.104
    3PS8B   B26  129   7.698   8.848   2.019
    3PS8B   B27  130   7.734   8.846   1.896
    3PS8B   B28  131   7.699   8.909   1.790
    3PS8B   B29  132   7.702   8.415   2.477
    3PS8B   C30  133   7.622   8.311   2.527
    3PS8B   C31  134   7.612   8.134   2.476
    3PS8B   C32  135   7.479   8.031   2.425
    3PS8B   C33  136   7.330   7.994   2.509
    4PS8B    C0  137  18.928  19.053  21.778
    4PS8B    C1  138  18.899  18.882  21.753
    4PS8B    C2  139  18.749  18.800  21.713
    4PS8B    C3  140  18.683  18.632  21.749
    4PS8B    B4  141  18.734  18.506  21.719
    4PS8B    B5  142  18.702  18.358  21.697
    4PS8B    B6  143  18.584  18.307  21.680
    4PS8B    B7  144  18.472  18.350  21.634
    4PS8B    B8  145  18.435  18.417  21.530
    4PS8B    B9  146  18.482  18.435  21.411
    4PS8B   B10  147  18.567  18.378  21.342
    4PS8B   B11  148  18.674  18.320  21.365
    4PS8B   B12  149  18.710  18.224  21.442
    4PS8B   B13  150  18.648  18.133  21.509
    4PS8B   B14  151  18.532  18.124  21.565
    4PS8B   B15  152  18.422  18.192  21.560
    4PS8B   B16  153  18.616  18.281  21.344
    4PS8B   B17  154  18.530  18.263  21.381
    4PS8B   B18  155  18.590  18.195  21.373
    4PS8B   B19  156  18.419  18.290  21.373
    4PS8B   B20  157  18.346  18.319  21.271
    4PS8B   B21  158  18.354  18.298  21.144
    4PS8B   B22  159  18.360  18.372  21.040
    4PS8B   B23  160  18.377  18.350  20.914
    4PS8B   B24  161  18.601  18.088  21.353
    4PS8B   B25  162  18.682  18.010  21.291
    4PS8B   B26  163  18.789  18.025  21.222
    4PS8B   B27  164  18.915  18.021  21.247
    4PS8B   B28  165  19.016  17.959  21.198
    4PS8B   B29  166  18.281  18.138  21.576
    4PS8B   C30  167  18.192  18.070  21.661
    4PS8B   C31  168  18.204  18.031  21.841
    4PS8B   C32  169  18.194  17.882  21.933
    4PS8B   C33  170  18.065  17.764  21.937
    5PS8B    C0  171  17.156  10.563  15.615
    5PS8B    C1  172  17.050  10.481  15.727
    5PS8B    C2  173  16.965  10.329  15.708
    5PS8B    C3  174  16.805  10.264  15.774
    5PS8B    B4  175  16.762  10.246  15.906
    5PS8B    B5  176  16.668  10.170  15.999
    5PS8B    B6  177  16.600  10.063  15.969
    5PS8B    B7  178  16.616   9.966  15.886
    5PS8B    B8  179  16.713   9.888  15.853
    5PS8B    B9  180  16.820   9.845  15.912
    5PS8B   B10  181  16.860   9.843  16.028
    5PS8B   B11  182  16.848   9.917  16.126
    5PS8B   B12  183  16.749   9.969  16.189
    5PS8B   B13  184  16.622   9.947  16.192
    5PS8B   B14  185  16.535   9.902  16.108
    5PS8B   B15  186  16.541   9.840  15.994
    5PS8B   B16  187  16.814   9.853  16.126
    5PS8B   B17  188  16.746   9.813  16.073
    5PS8B   B18  189  16.729   9.833  16.161
    5PS8B   B19  190  16.725   9.738  15.989
    5PS8B   B20  191  16.783   9.627  15.960
    5PS8B   B21  192  16.855   9.542  16.024
    5PS8B   B22  193  16.974   9.495  16.013
    5PS8B   B23  194  17.049   9.417  16.083
    5PS8B   B24  195  16.677   9.799  16.250
    5PS8B   B25  196  16.696   9.793  16.377
    5PS8B   B26  197  16.792   9.825  16.456
    5PS8B   B27  198  16.822   9.928  16.527
    5PS8B   B28  199  16.853   9.949  16.650
    5PS8B   B29  200  16.441   9.740  15.941
    5PS8B   C30  201  16.307   9.716  15.905
    5PS8B   C31  202  16.169   9.835  15.876
    5PS8B   C32  203  16.008   9.851  15.943
    5PS8B   C33  204  15.878   9.733  15.947
    6PS8B    C0  205  16.618  12.777  15.014
    6PS8B    C1  206  16.656  12.806  15.183
    6PS8B    C2  207  16.556  12.878  15.307
    6PS8B    C3  208  16.593  12.978  15.458
    6PS8B    B4  209  16.672  12.948  15.569
    6PS8B    B5  210  16.699  12.977  15.716
    6PS8B    B6  211  16.621  13.043  15.798
    6PS8B    B7  212  16.495  13.064  15.804
    6PS8B    B8  213  16.389  12.991  15.796
    6PS8B    B9  214  16.362  12.866  15.816
    6PS8B   B10  215  16.419  12.774  15.873
    6PS8B   B11  216  16.537  12.740  15.889
    6PS8B   B12  217  16.642  12.798  15.935
    6PS8B   B13  218  16.664  12.904  16.004
    6PS8B   B14  219  16.605  13.018  16.018
    6PS8B   B15  220  16.489  13.065  15.986
    6PS8B   B16  221  16.499  12.765  15.946
    6PS8B   B17  222  16.457  12.848  15.968
    6PS8B   B18  223  16.529  12.819  16.016
    6PS8B   B19  224  16.357  12.901  15.974
    6PS8B   B20  225  16.240  12.858  16.006
    6PS8B   B21  226  16.195  12.757  16.074
    6PS8B   B22  227  16.119  12.657  16.048
    6PS8B   B23  228  16.082  12.552  16.113
    6PS8B   B24  229  16.573  12.817  16.116
    6PS8B   B25  230  16.640  12.736  16.190
    6PS8B   B26  231  16.684  12.616  16.178
    6PS8B   B27  232  16.795  12.563  16.141
    6PS8B   B28  233  16.876  12.477  16.191
    6PS8B   B29  234  16.410  13.171  16.062
    6PS8B   C30  235  16.410  13.303  16.110
    6PS8B   C31  236  16.520  13.445  16.071
    6PS8B   C32  237  16.618  13.552  16.168
    6PS8B   C33  238  16.571  13.653  16.303
    7PS8B    C0  239  20.662   4.860  11.537
    7PS8B    C1  240  20.518   4.767  11.502
    7PS8B    C2  241  20.350   4.809  11.530
    7PS8B    C3  242  20.199   4.710  11.567
    7PS8B    B4  243  20.138   4.607  11.494
    7PS8B    B5  244  20.009   4.531  11.467
    7PS8B    B6  245  19.889   4.567  11.504
    7PS8B    B7  246  19.832   4.679  11.529
    7PS8B    B8  247  19.825   4.794  11.471
    7PS8B    B9  248  19.837   4.835  11.349
    7PS8B   B10  249  19.836   4.781  11.239
    7PS8B   B11  250  19.874   4.672  11.194
    7PS8B   B12  251  19.852   4.550  11.225
    7PS8B   B13  252  19.766   4.488  11.298
    7PS8B   B14  253  19.697   4.519  11.403
    7PS8B   B15  254  19.669   4.628  11.466
    7PS8B   B16  255  19.803   4.686  11.200
    7PS8B   B17  256  19.743   4.703  11.271
    7PS8B   B18  257  19.734   4.626  11.223
    7PS8B   B19  258  19.684   4.785  11.325
    7PS8B   B20  259  19.628   4.892  11.281
    7PS8B   B21  260  19.585   4.931  11.166
    7PS8B   B22  261  19.612   5.029  11.086
    7PS8B   B23  262  19.576   5.062  10.967
    7PS8B   B24  263  19.662   4.554  11.183
    7PS8B   B25  264  19.646   4.483  11.076
    7PS8B   B26  265  19.710   4.468  10.966
    7PS8B   B27  266  19.799   4.385  10.923
    7PS8B   B28  267  19.811   4.310  10.820
    7PS8B   B29  268  19.541   4.659  11.542
    7PS8B   C30  269  19.457   4.621  11.648
    7PS8B   C31  270  19.486   4.504  11.787
    7PS8B   C32  271  19.401   4.363  11.846
    7PS8B   C33  272  19.233   4.347  11.895
    8PS8B    C0  273  16.034   1.350   5.095
    8PS8B    C1  274  15.955   1.483   5.012
    8PS8B    C2  275  16.002   1.563   4.863
    8PS8B    C3  276  15.980   1.735   4.799
    8PS8B    B4  277  15.864   1.810   4.778
    8PS8B    B5  278  15.801   1.926   4.701
    8PS8B    B6  279  15.852   1.986   4.597
    8PS8B    B7  280  15.933   1.952   4.503
    8PS8B    B8  281  15.944   1.851   4.424
    8PS8B    B9  282  15.863   1.763   4.376
    8PS8B   B10  283  15.742   1.753   4.367
    8PS8B   B11  284  15.646   1.787   4.438
    8PS8B   B12  285  15.607   1.898   4.489
    8PS8B   B13  286  15.636   2.022   4.472
    8PS8B   B14  287  15.741   2.086   4.433
    8PS8B   B15  288  15.852   2.054   4.375
    8PS8B   B16  289  15.657   1.821   4.374
    8PS8B   B17  290  15.727   1.875   4.339
    8PS8B   B18  291  15.645   1.913   4.355
    8PS8B   B19  292  15.817   1.876   4.268
    8PS8B   B20  293  15.836   1.814   4.157
    8PS8B   B21  294  15.760   1.762   4.067
    8PS8B   B22  295  15.744   1.645   4.017
    8PS8B   B23  296  15.661   1.591   3.934
    8PS8B   B24  297  15.573   1.986   4.319
    8PS8B   B25  298  15.446   1.999   4.308
    8PS8B   B26  299  15.344   1.925   4.333
    8PS8B   B27  300  15.264   1.912   4.433
    8PS8B   B28  301  15.136   1.912   4.447
    8PS8B   B29  302  15.933   2.139   4.280
    8PS8B   C30  303  16.003   2.260   4.262
    8PS8B   C31  304  16.059   2.385   4.386
    8PS8B   C32  305  16.033   2.557   4.404
    8PS8B   C33  306  16.067   2.686   4.290
    9PS8B    C0  307  21.517  13.156   3.126
    9PS8B    C1  308  21.621  13.208   2.995
    9PS8B    C2  309  21.604  13.177   2.823
    9PS8B    C3  310  21.725  13.159   2.685
    9PS8B    B4  311  21.823  13.247   2.637
    9PS8B    B5  312  21.909  13.287   2.518
    9PS8B    B6  313  21.893  13.249   2.395
    9PS8B    B7  314  21.793  13.209   2.324
    9PS8B    B8  315  21.673  13.251   2.304
    9PS8B    B9  316  21.613  13.365   2.312
    9PS8B   B10  317  21.651  13.481   2.318
    9PS8B   B11  318  21.747  13.540   2.369
    9PS8B   B12  319  21.874  13.527   2.362
    9PS8B   B13  320  21.956  13.466   2.284
    9PS8B   B14  321  21.949  13.360   2.211
    9PS8B   B15  322  21.854  13.283   2.169
    9PS8B   B16  323  21.743  13.535   2.297
    9PS8B   B17  324  21.743  13.463   2.235
    9PS8B   B18  325  21.813  13.522   2.236
    9PS8B   B19  326  21.678  13.399   2.166
    9PS8B   B20  327  21.572  13.429   2.098
    9PS8B   B21  328  21.523  13.538   2.051
    9PS8B   B22  329  21.412  13.603   2.067
    9PS8B   B23  330  21.367  13.717   2.027
    9PS8B   B24  331  21.886  13.574   2.174
    9PS8B   B25  332  21.943  13.689   2.167
    9PS8B   B26  333  21.934  13.799   2.233
    9PS8B   B27  334  21.999  13.851   2.331
    9PS8B   B28  335  22.056  13.964   2.353
    9PS8B   B29  336  21.849  13.206   2.039
    9PS8B   C30  337  21.913  13.109   1.959
    9PS8B   C31  338  22.044  12.987   2.001
    9PS8B   C32  339  22.201  12.951   1.933
    9PS8B   C33  340  22.244  12.909   1.769
   10PS8B    C0  341   5.404   2.217  19.185
   10PS8B    C1  342   5.420   2.392  19.186
   10PS8B    C2  343   5.565   2.489  19.196
   10PS8B    C3  344   5.600   2.657  19.265
   10PS8B    B4  345   5.545   2.781  19.235
   10PS8B    B5  346   5.565   2.932  19.237
   10PS8B    B6  347   5.678   2.995  19.257
   10PS8B    B7  348   5.802   2.966  19.239
   10PS8B    B8  349   5.872   2.916  19.143
   10PS8B    B9  350   5.859   2.910  19.014
   10PS8B   B10  351   5.790   2.968  18.932
   10PS8B   B11  352   5.675   3.014  18.930
   10PS8B   B12  353   5.610   3.097  19.003
   10PS8B   B13  354   5.641   3.183  19.093
   10PS8B   B14  355   5.737   3.194  19.179
   10PS8B   B15  356   5.851   3.137  19.197
   10PS8B   B16  357   5.732   3.060  18.930
   10PS8B   B17  358   5.803   3.079  18.990
   10PS8B   B18  359   5.739   3.143  18.973
   10PS8B   B19  360   5.914   3.063  19.010
   10PS8B   B20  361   6.014   3.052  18.929
   10PS8B   B21  362   6.037   3.088  18.807
   10PS8B   B22  363   6.066   3.027  18.698
   10PS8B   B23  364   6.080   3.063  18.575
   10PS8B   B24  365   5.722   3.250  18.961
   10PS8B   B25  366   5.651   3.329  18.888
   10PS8B   B26  367   5.568   3.314  18.791
   10PS8B   B27  368   5.441   3.305  18.782
   10PS8B   B28  369   5.350   3.364  18.712
   10PS8B   B29  370   5.976   3.199  19.256
   10PS8B   C30  371   6.033   3.263  19.368
   10PS8B   C31  372   5.971   3.278  19.541
   10PS8B   C32  373   5.940   3.415  19.646
   10PS8B   C33  374   6.050   3.542  19.697
   11PS8B    C0  375  12.294   2.401  12.809
   11PS8B    C1  376  12.229   2.466  12.959
   11PS8B    C2  377  12.199   2.633  13.002
   11PS8B    C3  378  12.200   2.724  13.163
   11PS8B    B4  379  12.127   2.704  13.279
   11PS8B    B5  380  12.072   2.766  13.407
   11PS8B    B6  381  12.065   2.894  13.433
   11PS8B    B7  382  12.056   3.001  13.362
   11PS8B    B8  383  11.984   3.039  13.263
   11PS8B    B9  384  11.867   3.008  13.216
   11PS8B   B10  385  11.771   2.947  13.261
   11PS8B   B11  386  11.755   2.852  13.338
   11PS8B   B12  387  11.793   2.824  13.457
   11PS8B   B13  388  11.844   2.891  13.554
   11PS8B   B14  389  11.917   2.997  13.563
   11PS8B   B15  390  11.953   3.091  13.482
   11PS8B   B16  391  11.736   2.918  13.360
   11PS8B   B17  392  11.783   2.999  13.375
   11PS8B   B18  393  11.745   2.955  13.446
   11PS8B   B19  394  11.805   3.103  13.332
   11PS8B   B20  395  11.732   3.183  13.263
   11PS8B   B21  396  11.605   3.199  13.245
   11PS8B   B22  397  11.526   3.194  13.144
   11PS8B   B23  398  11.398   3.200  13.129
   11PS8B   B24  399  11.694   2.968  13.541
   11PS8B   B25  400  11.598   2.914  13.608
   11PS8B   B26  401  11.516   2.818  13.588
   11PS8B   B27  402  11.514   2.693  13.617
   11PS8B   B28  403  11.430   2.614  13.674
   11PS8B   B29  404  11.982   3.235  13.518
   11PS8B   C30  405  12.061   3.323  13.595
   11PS8B   C31  406  12.216   3.292  13.688
   11PS8B   C32  407  12.264   3.317  13.855
   11PS8B   C33  408  12.261   3.464  13.950
   12PS8B    C0  409  14.087   1.109  15.048
   12PS8B    C1  410  14.118   0.937  15.037
   12PS8B    C2  411  14.144   0.821  15.166
   12PS8B    C3  412  14.241   0.665  15.178
   12PS8B    B4  413  14.234   0.547  15.104
   12PS8B    B5  414  14.262   0.397  15.101
   12PS8B    B6  415  14.291   0.322  15.203
   12PS8B    B7  416  14.267   0.328  15.330
   12PS8B    B8  417  14.162   0.349  15.402
   12PS8B    B9  418  14.035   0.335  15.386
   12PS8B   B10  419  13.965   0.275  15.305
   12PS8B   B11  420  13.973   0.248  15.184
   12PS8B   B12  421  14.061   0.190  15.111
   12PS8B   B13  422  14.164   0.117  15.132
   12PS8B   B14  423  14.249   0.106  15.229
   12PS8B   B15  424  14.255   0.147  15.351
   12PS8B   B16  425  13.980   0.195  15.234
   12PS8B   B17  426  14.041   0.175  15.303
   12PS8B   B18  427  14.037   0.120  15.230
   12PS8B   B19  428  14.057   0.177  15.416
   12PS8B   B20  429  13.974   0.158  15.513
   12PS8B   B21  430  13.860   0.098  15.525
   12PS8B   B22  431  13.741   0.134  15.559
   12PS8B   B23  432  13.626   0.076  15.562
   12PS8B   B24  433  14.044   0.016  15.197
   12PS8B   B25  434  13.987  -0.062  15.112
   12PS8B   B26  435  13.891  -0.051  15.028
   12PS8B   B27  436  13.881  -0.024  14.903
   12PS8B   B28  437  13.825  -0.079  14.801
   12PS8B   B29  438  14.322   0.078  15.468
   12PS8B   C30  439  14.443   0.026  15.518
   12PS8B   C31  440  14.617   0.050  15.462
   12PS8B   C32  441  14.745  -0.059  15.415
   12PS8B   C33  442  14.815  -0.191  15.506
   13PS8B    C0  443   2.967  16.491   7.448
   13PS8B    C1  444   2.936  16.545   7.284
   13PS8B    C2  445   3.051  16.579   7.156
   13PS8B    C3  446   3.049  16.695   7.012
   13PS8B    B4  447   2.960  16.706   6.905
   13PS8B    B5  448   2.940  16.753   6.762
   13PS8B    B6  449   3.034  16.788   6.678
   13PS8B    B7  450   3.158  16.757   6.664
   13PS8B    B8  451   3.226  16.648   6.662
   13PS8B    B9  452   3.200  16.524   6.635
   13PS8B   B10  453   3.109  16.466   6.578
   13PS8B   B11  454   2.986  16.483   6.569
   13PS8B   B12  455   2.911  16.580   6.532
   13PS8B   B13  456   2.930  16.691   6.470
   13PS8B   B14  457   3.029  16.772   6.457
   13PS8B   B15  458   3.156  16.768   6.482
   13PS8B   B16  459   3.029  16.494   6.510
   13PS8B   B17  460   3.099  16.555   6.489
   13PS8B   B18  461   3.019  16.560   6.445
   13PS8B   B19  462   3.212  16.565   6.478
   13PS8B   B20  463   3.300  16.480   6.436
   13PS8B   B21  464   3.298  16.375   6.362
   13PS8B   B22  465   3.329  16.251   6.378
   13PS8B   B23  466   3.317  16.144   6.307
   13PS8B   B24  467   2.973  16.583   6.348
   13PS8B   B25  468   2.876  16.540   6.275
   13PS8B   B26  469   2.789  16.447   6.285
   13PS8B   B27  470   2.668  16.440   6.328
   13PS8B   B28  471   2.557  16.396   6.280
   13PS8B   B29  472   3.267  16.838   6.406
   13PS8B   C30  473   3.318  16.962   6.363
   13PS8B   C31  474   3.275  17.133   6.416
   13PS8B   C32  475   3.224  17.277   6.329
   13PS8B   C33  476   3.301  17.359   6.196
   14PS8B    C0  477  18.160  18.859   9.525
   14PS8B    C1  478  18.040  18.833   9.650
   14PS8B    C2  479  18.034  18.708   9.773
   14PS8B    C3  480  17.896  18.622   9.861
   14PS8B    B4  481  17.793  18.673   9.939
   14PS8B    B5  482  17.691  18.644  10.049
   14PS8B    B6  483  17.691  18.541  10.128
   14PS8B    B7  484  17.781  18.461  10.173
   14PS8B    B8  485  17.897  18.475  10.227
   14PS8B    B9  486  17.957  18.568  10.294
   14PS8B   B10  487  17.920  18.669  10.352
   14PS8B   B11  488  17.831  18.753  10.334
   14PS8B   B12  489  17.704  18.748  10.318
   14PS8B   B13  490  17.613  18.659  10.337
   14PS8B   B14  491  17.611  18.530  10.335
   14PS8B   B15  492  17.700  18.436  10.335
   14PS8B   B16  493  17.825  18.707  10.390
   14PS8B   B17  494  17.817  18.613  10.398
   14PS8B   B18  495  17.747  18.667  10.423
   14PS8B   B19  496  17.874  18.517  10.424
   14PS8B   B20  497  17.969  18.495  10.508
   14PS8B   B21  498  18.011  18.553  10.615
   14PS8B   B22  499  18.122  18.607  10.651
   14PS8B   B23  500  18.162  18.674  10.754
   14PS8B   B24  501  17.666  18.678  10.496
   14PS8B   B25  502  17.609  18.773  10.562
   14PS8B   B26  503  17.625  18.899  10.573
   14PS8B   B27  504  17.574  19.003  10.517
   14PS8B   B28  505  17.520  19.112  10.558
   14PS8B   B29  506  17.688  18.299  10.396
   14PS8B   C30  507  17.615  18.178  10.398
   14PS8B   C31  508  17.491  18.112  10.278
   14PS8B   C32  509  17.327  18.055  10.295
   14PS8B   C33  510  17.263  17.929  10.398
   15PS8B    C0  511   9.314   4.133   3.910
   15PS8B    C1  512   9.283   3.961   3.921
   15PS8B    C2  513   9.280   3.858   4.063
   15PS8B    C3  514   9.318   3.680   4.092
   15PS8B    B4  515   9.264   3.565   4.035
   15PS8B    B5  516   9.239   3.415   4.051
   15PS8B    B6  517   9.251   3.347   4.161
   15PS8B    B7  518   9.243   3.374   4.286
   15PS8B    B8  519   9.160   3.438   4.361
   15PS8B    B9  520   9.034   3.468   4.354
   15PS8B   B10  521   8.940   3.429   4.286
   15PS8B   B11  522   8.927   3.387   4.170
   15PS8B   B12  523   8.981   3.295   4.101
   15PS8B   B13  524   9.055   3.192   4.126
   15PS8B   B14  525   9.140   3.163   4.218
   15PS8B   B15  526   9.173   3.213   4.333
   15PS8B   B16  527   8.920   3.341   4.226
   15PS8B   B17  528   8.978   3.308   4.294
   15PS8B   B18  529   8.947   3.251   4.229
   15PS8B   B19  530   9.004   3.317   4.405
   15PS8B   B20  531   8.930   3.339   4.508
   15PS8B   B21  532   8.805   3.325   4.535
   15PS8B   B22  533   8.709   3.404   4.570
   15PS8B   B23  534   8.582   3.391   4.588
   15PS8B   B24  535   8.915   3.148   4.210
   15PS8B   B25  536   8.826   3.086   4.141
   15PS8B   B26  537   8.732   3.121   4.062
   15PS8B   B27  538   8.720   3.136   3.935
   15PS8B   B28  539   8.638   3.094   3.845
   15PS8B   B29  540   9.224   3.137   4.454
   15PS8B   C30  541   9.324   3.052   4.505
   15PS8B   C31  542   9.488   3.007   4.435
   15PS8B   C32  543   9.566   2.855   4.397
   15PS8B   C33  544   9.596   2.718   4.502
   16PS8B    C0  545   0.625  10.063   9.463
   16PS8B    C1  546   0.683  10.226   9.491
   16PS8B    C2  547   0.598  10.363   9.560
   16PS8B    C3  548   0.610  10.546   9.537
   16PS8B    B4  549   0.718  10.632   9.552
   16PS8B    B5  550   0.762  10.776   9.578
   16PS8B    B6  551   0.686  10.874   9.620
   16PS8B    B7  552   0.579  10.881   9.690
   16PS8B    B8  553   0.537  10.830   9.801
   16PS8B    B9  554   0.595  10.783   9.907
   16PS8B   B10  555   0.707  10.790   9.954
   16PS8B   B11  556   0.822  10.796   9.908
   16PS8B   B12  557   0.881  10.872   9.823
   16PS8B   B13  558   0.856  10.986   9.769
   16PS8B   B14  559   0.748  11.050   9.740
   16PS8B   B15  560   0.622  11.039   9.770
   16PS8B   B16  561   0.793  10.855   9.940
   16PS8B   B17  562   0.719  10.912   9.923
   16PS8B   B18  563   0.805  10.945   9.915
   16PS8B   B19  564   0.613  10.937   9.955
   16PS8B   B20  565   0.557  10.935  10.071
   16PS8B   B21  566   0.599  10.940  10.192
   16PS8B   B22  567   0.592  10.863  10.295
   16PS8B   B23  568   0.642  10.864  10.414
   16PS8B   B24  569   0.867  11.033   9.931
   16PS8B   B25  570   0.985  11.062   9.972
   16PS8B   B26  571   1.085  10.995  10.016
   16PS8B   B27  572   1.191  10.944   9.964
   16PS8B   B28  573   1.317  10.949   9.989
   16PS8B   B29  574   0.521  11.151   9.784
   16PS8B   C30  575   0.458  11.258   9.719
   16PS8B   C31  576   0.449  11.303   9.541
   16PS8B   C32  577   0.489  11.447   9.450
   16PS8B   C33  578   0.431  11.611   9.472
   17PS8B    C0  579  16.285   5.840  15.559
   17PS8B    C1  580  16.173   5.870  15.691
   17PS8B    C2  581  16.074   5.756  15.779
   17PS8B    C3  582  15.910   5.769  15.864
   17PS8B    B4  583  15.868   5.852  15.967
   17PS8B    B5  584  15.768   5.872  16.080
   17PS8B    B6  585  15.690   5.781  16.131
   17PS8B    B7  586  15.695   5.653  16.142
   17PS8B    B8  587  15.784   5.567  16.179
   17PS8B    B9  588  15.888   5.570  16.256
   17PS8B   B10  589  15.929   5.647  16.342
   17PS8B   B11  590  15.925   5.770  16.359
   17PS8B   B12  591  15.832   5.858  16.361
   17PS8B   B13  592  15.704   5.855  16.372
   17PS8B   B14  593  15.612   5.771  16.339
   17PS8B   B15  594  15.610   5.646  16.303
   17PS8B   B16  595  15.885   5.727  16.402
   17PS8B   B17  596  15.813   5.667  16.388
   17PS8B   B18  597  15.800   5.744  16.436
   17PS8B   B19  598  15.784   5.556  16.381
   17PS8B   B20  599  15.831   5.453  16.442
   17PS8B   B21  600  15.895   5.433  16.551
   17PS8B   B22  601  16.009   5.382  16.583
   17PS8B   B23  602  16.077   5.371  16.692
   17PS8B   B24  603  15.746   5.787  16.521
   17PS8B   B25  604  15.767   5.871  16.616
   17PS8B   B26  605  15.866   5.942  16.654
   17PS8B   B27  606  15.906   6.062  16.633
   17PS8B   B28  607  15.941   6.161  16.708
   17PS8B   B29  608  15.501   5.545  16.330
   17PS8B   C30  609  15.365   5.514  16.313
   17PS8B   C31  610  15.238   5.588  16.202
   17PS8B   C32  611  15.080   5.658  16.229
   17PS8B   C33  612  14.940   5.588  16.307
   18PS8B    C0  613  10.630   8.415   1.627
   18PS8B    C1  614  10.647   8.485   1.467
   18PS8B    C2  615  10.713   8.640   1.422
   18PS8B    C3  616  10.679   8.757   1.282
   18PS8B    B4  617  10.686   8.738   1.144
   18PS8B    B5  618  10.702   8.805   1.008
   18PS8B    B6  619  10.742   8.927   0.987
   18PS8B    B7  620  10.816   9.011   1.050
   18PS8B    B8  621  10.931   9.006   1.108
   18PS8B    B9  622  11.037   8.933   1.096
   18PS8B   B10  623  11.079   8.856   1.010
   18PS8B   B11  624  11.027   8.776   0.931
   18PS8B   B12  625  10.936   8.785   0.841
   18PS8B   B13  626  10.878   8.881   0.779
   18PS8B   B14  627  10.850   9.004   0.808
   18PS8B   B15  628  10.886   9.087   0.901
   18PS8B   B16  629  11.058   8.837   0.905
   18PS8B   B17  630  11.041   8.930   0.916
   18PS8B   B18  631  11.028   8.891   0.834
   18PS8B   B19  632  11.076   9.025   0.968
   18PS8B   B20  633  11.194   9.065   1.000
   18PS8B   B21  634  11.314   9.038   0.959
   18PS8B   B22  635  11.420   8.991   1.014
   18PS8B   B23  636  11.536   8.955   0.970
   18PS8B   B24  637  11.036   8.906   0.726
   18PS8B   B25  638  11.070   8.840   0.621
   18PS8B   B26  639  11.113   8.721   0.599
   18PS8B   B27  640  11.060   8.609   0.567
   18PS8B   B28  641  11.079   8.522   0.475
   18PS8B   B29  642  10.898   9.238   0.887
   18PS8B   C30  643  10.831   9.358   0.857
   18PS8B   C31  644  10.651   9.394   0.843
   18PS8B   C32  645  10.552   9.463   0.717
   18PS8B   C33  646  10.568   9.618   0.637
   19PS8B    C0  647  19.607   8.940  18.395
   19PS8B    C1  648  19.586   8.937  18.222
   19PS8B    C2  649  19.684   9.014  18.098
   19PS8B    C3  650  19.647   9.081  17.930
   19PS8B    B4  651  19.591   9.020  17.818
   19PS8B    B5  652  19.578   9.022  17.666
   19PS8B    B6  653  19.650   9.092  17.583
   19PS8B    B7  654  19.770   9.141  17.586
   19PS8B    B8  655  19.886   9.096  17.616
   19PS8B    B9  656  19.942   8.979  17.619
   19PS8B   B10  657  19.914   8.870  17.572
   19PS8B   B11  658  19.809   8.808  17.550
   19PS8B   B12  659  19.701   8.834  17.485
   19PS8B   B13  660  19.666   8.922  17.398
   19PS8B   B14  661  19.701   9.043  17.373
   19PS8B   B15  662  19.799   9.120  17.407
   19PS8B   B16  663  19.848   8.833  17.494
   19PS8B   B17  664  19.874   8.920  17.464
   19PS8B   B18  665  19.816   8.869  17.413
   19PS8B   B19  666  19.960   8.994  17.458
   19PS8B   B20  667  20.087   8.975  17.445
   19PS8B   B21  668  20.161   8.879  17.400
   19PS8B   B22  669  20.253   8.803  17.448
   19PS8B   B23  670  20.319   8.702  17.405
   19PS8B   B24  671  19.787   8.844  17.311
   19PS8B   B25  672  19.749   8.741  17.244
   19PS8B   B26  673  19.731   8.617  17.271
   19PS8B   B27  674  19.630   8.545  17.304
   19PS8B   B28  675  19.577   8.436  17.261
   19PS8B   B29  676  19.863   9.230  17.325
   19PS8B   C30  677  19.841   9.351  17.256
   19PS8B   C31  678  19.699   9.468  17.261
   19PS8B   C32  679  19.594   9.535  17.139
   19PS8B   C33  680  19.636   9.626  16.995
   20PS8B    C0  681  10.684   5.396   1.890
   20PS8B    C1  682  10.570   5.363   1.760
   20PS8B    C2  683  10.409   5.295   1.771
   20PS8B    C3  684  10.306   5.193   1.656
   20PS8B    B4  685  10.264   5.217   1.525
   20PS8B    B5  686  10.161   5.186   1.418
   20PS8B    B6  687  10.048   5.124   1.435
   20PS8B    B7  688   9.967   5.109   1.534
   20PS8B    B8  689   9.913   5.188   1.621
   20PS8B    B9  690   9.884   5.314   1.626
   20PS8B   B10  691   9.874   5.402   1.542
   20PS8B   B11  692   9.932   5.429   1.435
   20PS8B   B12  693   9.955   5.366   1.327
   20PS8B   B13  694   9.910   5.258   1.272
   20PS8B   B14  695   9.861   5.148   1.317
   20PS8B   B15  696   9.816   5.107   1.432
   20PS8B   B16  697   9.863   5.406   1.434
   20PS8B   B17  698   9.818   5.326   1.458
   20PS8B   B18  699   9.823   5.350   1.370
   20PS8B   B19  700   9.752   5.277   1.538
   20PS8B   B20  701   9.658   5.326   1.611
   20PS8B   B21  702   9.580   5.429   1.603
   20PS8B   B22  703   9.558   5.533   1.674
   20PS8B   B23  704   9.487   5.640   1.661
   20PS8B   B24  705   9.768   5.349   1.275
   20PS8B   B25  706   9.750   5.426   1.174
   20PS8B   B26  707   9.788   5.543   1.140
   20PS8B   B27  708   9.885   5.591   1.070
   20PS8B   B28  709   9.895   5.673   0.972
   20PS8B   B29  710   9.707   5.005   1.455
   20PS8B   C30  711   9.664   4.872   1.433
   20PS8B   C31  712   9.758   4.725   1.374
   20PS8B   C32  713   9.735   4.613   1.242
   20PS8B   C33  714   9.595   4.513   1.205
   21PS8B    C0  715  18.428  14.114   7.440
   21PS8B    C1  716  18.481  14.109   7.273
   21PS8B    C2  717  18.541  13.973   7.181
   21PS8B    C3  718  18.660  13.958   7.040
   21PS8B    B4  719  18.659  14.016   6.914
   21PS8B    B5  720  18.708  14.005   6.770
   21PS8B    B6  721  18.762  13.900   6.714
   21PS8B    B7  722  18.755  13.773   6.734
   21PS8B    B8  723  18.660  13.688   6.752
   21PS8B    B9  724  18.535  13.683   6.720
   21PS8B   B10  725  18.463  13.743   6.642
   21PS8B   B11  726  18.458  13.860   6.599
   21PS8B   B12  727  18.542  13.939   6.543
   21PS8B   B13  728  18.656  13.925   6.486
   21PS8B   B14  729  18.755  13.843   6.499
   21PS8B   B15  730  18.772  13.729   6.558
   21PS8B   B16  731  18.479  13.806   6.554
   21PS8B   B17  732  18.552  13.746   6.552
   21PS8B   B18  733  18.545  13.810   6.488
   21PS8B   B19  734  18.583  13.637   6.572
   21PS8B   B20  735  18.518  13.527   6.556
   21PS8B   B21  736  18.417  13.490   6.485
   21PS8B   B22  737  18.300  13.442   6.511
   21PS8B   B23  738  18.196  13.414   6.440
   21PS8B   B24  739  18.562  13.832   6.382
   21PS8B   B25  740  18.506  13.896   6.286
   21PS8B   B26  741  18.398  13.964   6.273
   21PS8B   B27  742  18.367  14.088   6.282
   21PS8B   B28  743  18.305  14.173   6.206
   21PS8B   B29  744  18.865  13.617   6.514
   21PS8B   C30  745  18.998  13.581   6.485
   21PS8B   C31  746  19.156  13.667   6.522
   21PS8B   C32  747  19.291  13.719   6.424
   21PS8B   C33  748  19.391  13.626   6.315
   22PS8B    C0  749  17.367  22.998   1.580
   22PS8B    C1  750  17.325  22.888   1.710
   22PS8B    C2  751  17.389  22.880   1.872
   22PS8B    C3  752  17.412  22.742   1.993
   22PS8B    B4  753  17.320  22.654   2.049
   22PS8B    B5  754  17.289  22.561   2.165
   22PS8B    B6  755  17.352  22.556   2.279
   22PS8B    B7  756  17.420  22.639   2.348
   22PS8B    B8  757  17.405  22.761   2.387
   22PS8B    B9  758  17.303  22.838   2.408
   22PS8B   B10  759  17.183  22.820   2.423
   22PS8B   B11  760  17.100  22.740   2.377
   22PS8B   B12  761  17.092  22.613   2.370
   22PS8B   B13  762  17.152  22.514   2.427
   22PS8B   B14  763  17.269  22.496   2.476
   22PS8B   B15  764  17.368  22.573   2.510
   22PS8B   B16  765  17.120  22.735   2.447
   22PS8B   B17  766  17.201  22.716   2.492
   22PS8B   B18  767  17.131  22.656   2.497
   22PS8B   B19  768  17.287  22.763   2.551
   22PS8B   B20  769  17.288  22.863   2.633
   22PS8B   B21  770  17.200  22.922   2.706
   22PS8B   B22  771  17.154  23.042   2.713
   22PS8B   B23  772  17.059  23.099   2.780
   22PS8B   B24  773  17.081  22.585   2.562
   22PS8B   B25  774  16.961  22.546   2.588
   22PS8B   B26  775  16.844  22.579   2.547
   22PS8B   B27  776  16.764  22.536   2.457
   22PS8B   B28  777  16.640  22.499   2.454
   22PS8B   B29  778  17.468  22.550   2.621
   22PS8B   C30  779  17.566  22.464   2.674
   22PS8B   C31  780  17.654  22.322   2.596
   22PS8B   C32  781  17.674  22.154   2.641
   22PS8B   C33  782  17.739  22.086   2.789
   23PS8B    C0  783  23.237   4.366  11.586
   23PS8B    C1  784  23.141   4.338  11.730
   23PS8B    C2  785  23.092   4.186  11.802
   23PS8B    C3  786  22.945   4.135  11.902
   23PS8B    B4  787  22.896   4.183  12.023
   23PS8B    B5  788  22.813   4.152  12.147
   23PS8B    B6  789  22.771   4.035  12.185
   23PS8B    B7  790  22.813   3.914  12.168
   23PS8B    B8  791  22.927   3.854  12.178
   23PS8B    B9  792  23.036   3.874  12.245
   23PS8B   B10  793  23.066   3.944  12.341
   23PS8B   B11  794  23.031   4.055  12.383
   23PS8B   B12  795  22.919   4.110  12.412
   23PS8B   B13  796  22.800   4.067  12.433
   23PS8B   B14  797  22.731   3.966  12.392
   23PS8B   B15  798  22.758   3.855  12.331
   23PS8B   B16  799  23.012   3.996  12.419
   23PS8B   B17  800  22.957   3.920  12.400
   23PS8B   B18  801  22.930   3.980  12.464
   23PS8B   B19  802  22.959   3.809  12.373
   23PS8B   B20  803  23.041   3.716  12.406
   23PS8B   B21  804  23.124   3.697  12.504
   23PS8B   B22  805  23.251   3.679  12.513
   23PS8B   B23  806  23.334   3.670  12.611
   23PS8B   B24  807  22.879   3.990  12.560
   23PS8B   B25  808  22.890   4.059  12.668
   23PS8B   B26  809  22.971   4.149  12.712
   23PS8B   B27  810  22.973   4.277  12.713
   23PS8B   B28  811  22.989   4.368  12.802
   23PS8B   B29  812  22.686   3.723  12.347
   23PS8B   C30  813  22.562   3.655  12.336
   23PS8B   C31  814  22.405   3.706  12.254
   23PS8B   C32  815  22.240   3.720  12.309
   23PS8B   C33  816  22.138   3.600  12.384
   24PS8B    C0  817  14.784  19.186  22.130
   24PS8B    C1  818  14.850  19.318  22.223
   24PS8B    C2  819  14.845  19.345  22.397
   24PS8B    C3  820  14.843  19.496  22.502
   24PS8B    B4  821  14.934  19.602  22.511
   24PS8B    B5  822  14.988  19.715  22.597
   24PS8B    B6  823  14.968  19.731  22.725
   24PS8B    B7  824  14.942  19.652  22.823
   24PS8B    B8  825  14.990  19.540  22.866
   24PS8B    B9  826  15.103  19.479  22.857
   24PS8B   B10  827  15.216  19.513  22.825
   24PS8B   B11  828  15.264  19.593  22.744
   24PS8B   B12  829  15.249  19.718  22.721
   24PS8B   B13  830  15.198  19.817  22.785
   24PS8B   B14  831  15.103  19.829  22.872
   24PS8B   B15  832  15.035  19.748  22.946
   24PS8B   B16  833  15.270  19.607  22.815
   24PS8B   B17  834  15.207  19.623  22.885
   24PS8B   B18  835  15.263  19.690  22.857
   24PS8B   B19  836  15.156  19.577  22.975
   24PS8B   B20  837  15.198  19.492  23.062
   24PS8B   B21  838  15.314  19.454  23.104
   24PS8B   B22  839  15.379  19.343  23.107
   24PS8B   B23  840  15.498  19.308  23.140
   24PS8B   B24  841  15.321  19.776  22.892
   24PS8B   B25  842  15.435  19.832  22.868
   24PS8B   B26  843  15.534  19.806  22.791
   24PS8B   B27  844  15.570  19.844  22.673
   24PS8B   B28  845  15.677  19.893  22.622
   24PS8B   B29  846  14.978  19.777  23.083
   24PS8B   C30  847  14.891  19.859  23.159
   24PS8B   C31  848  14.761  19.976  23.104
   24PS8B   C32  849  14.731  20.146  23.135
   24PS8B   C33  850  14.711  20.228  23.288
   25PS8B    C0  851  20.880  16.088  22.110
   25PS8B    C1  852  20.996  16.153  21.995
   25PS8B    C2  853  21.169  16.170  22.012
   25PS8B    C3  854  21.293  16.290  21.945
   25PS8B    B4  855  21.324  16.324  21.813
   25PS8B    B5  856  21.430  16.380  21.719
   25PS8B    B6  857  21.555  16.399  21.747
   25PS8B    B7  858  21.639  16.346  21.828
   25PS8B    B8  859  21.673  16.225  21.859
   25PS8B    B9  860  21.668  16.110  21.800
   25PS8B   B10  861  21.652  16.074  21.684
   25PS8B   B11  862  21.587  16.115  21.587
   25PS8B   B12  863  21.579  16.227  21.525
   25PS8B   B13  864  21.649  16.335  21.522
   25PS8B   B14  865  21.727  16.395  21.605
   25PS8B   B15  866  21.783  16.365  21.718
   25PS8B   B16  867  21.660  16.121  21.587
   25PS8B   B17  868  21.724  16.167  21.639
   25PS8B   B18  869  21.712  16.190  21.551
   25PS8B   B19  870  21.803  16.155  21.721
   25PS8B   B20  871  21.882  16.057  21.749
   25PS8B   B21  872  21.930  15.958  21.682
   25PS8B   B22  873  21.926  15.830  21.693
   25PS8B   B23  874  21.966  15.730  21.621
   25PS8B   B24  875  21.763  16.225  21.461
   25PS8B   B25  876  21.758  16.206  21.334
   25PS8B   B26  877  21.689  16.131  21.256
   25PS8B   B27  878  21.582  16.146  21.187
   25PS8B   B28  879  21.548  16.127  21.064
   25PS8B   B29  880  21.916  16.415  21.769
   25PS8B   C30  881  21.991  16.529  21.805
   25PS8B   C31  882  21.939  16.702  21.836
   25PS8B   C32  883  21.988  16.857  21.770
   25PS8B   C33  884  22.147  16.929  21.764
   26PS8B    C0  885  12.426   5.046  13.125
   26PS8B    C1  886  12.460   4.976  13.281
   26PS8B    C2  887  12.580   5.024  13.400
   26PS8B    C3  888  12.676   4.932  13.528
   26PS8B    B4  889  12.633   4.854  13.635
   26PS8B    B5  890  12.668   4.797  13.772
   26PS8B    B6  891  12.769   4.833  13.847
   26PS8B    B7  892  12.837   4.941  13.861
   26PS8B    B8  893  12.810   5.066  13.874
   26PS8B    B9  894  12.709   5.134  13.917
   26PS8B   B10  895  12.610   5.107  13.984
   26PS8B   B11  896  12.536   5.009  13.996
   26PS8B   B12  897  12.555   4.885  14.022
   26PS8B   B13  898  12.652   4.815  14.070
   26PS8B   B14  899  12.780   4.826  14.069
   26PS8B   B15  900  12.864   4.920  14.040
   26PS8B   B16  901  12.581   5.027  14.051
   26PS8B   B17  902  12.675   5.032  14.061
   26PS8B   B18  903  12.627   4.969  14.108
   26PS8B   B19  904  12.764   5.103  14.067
   26PS8B   B20  905  12.773   5.222  14.116
   26PS8B   B21  906  12.707   5.291  14.203
   26PS8B   B22  907  12.641   5.401  14.201
   26PS8B   B23  908  12.568   5.464  14.286
   26PS8B   B24  909  12.622   4.915  14.203
   26PS8B   B25  910  12.531   4.872  14.284
   26PS8B   B26  911  12.403   4.878  14.289
   26PS8B   B27  912  12.307   4.800  14.253
   26PS8B   B28  913  12.203   4.751  14.309
   26PS8B   B29  914  13.001   4.943  14.102
   26PS8B   C30  915  13.128   4.888  14.127
   26PS8B   C31  916  13.210   4.740  14.054
   26PS8B   C32  917  13.283   4.596  14.123
   26PS8B   C33  918  13.411   4.584  14.242
   27PS8B    C0  919  17.009   3.502   7.264
   27PS8B    C1  920  17.032   3.485   7.437
   27PS8B    C2  921  17.111   3.596   7.548
   27PS8B    C3  922  17.204   3.572   7.705
   27PS8B    B4  923  17.166   3.512   7.826
   27PS8B    B5  924  17.190   3.504   7.976
   27PS8B    B6  925  17.261   3.587   8.047
   27PS8B    B7  926  17.293   3.711   8.037
   27PS8B    B8  927  17.230   3.820   8.011
   27PS8B    B9  928  17.108   3.860   8.024
   27PS8B   B10  929  17.010   3.820   8.085
   27PS8B   B11  930  16.966   3.709   8.117
   27PS8B   B12  931  17.013   3.607   8.179
   27PS8B   B13  932  17.116   3.585   8.253
   27PS8B   B14  933  17.234   3.636   8.262
   27PS8B   B15  934  17.292   3.742   8.216
   27PS8B   B16  935  16.993   3.753   8.169
   27PS8B   B17  936  17.078   3.790   8.187
   27PS8B   B18  937  17.043   3.728   8.244
   27PS8B   B19  938  17.141   3.885   8.181
   27PS8B   B20  939  17.108   4.009   8.195
   27PS8B   B21  940  17.010   4.071   8.252
   27PS8B   B22  941  16.918   4.151   8.214
   27PS8B   B23  942  16.815   4.206   8.269
   27PS8B   B24  943  17.035   3.699   8.349
   27PS8B   B25  944  16.948   3.650   8.430
   27PS8B   B26  945  16.825   3.615   8.420
   27PS8B   B27  946  16.762   3.505   8.398
   27PS8B   B28  947  16.668   3.440   8.456
   27PS8B   B29  948  17.403   3.821   8.283
   27PS8B   C30  949  17.534   3.817   8.335
   27PS8B   C31  950  17.666   3.691   8.315
   27PS8B   C32  951  17.762   3.599   8.428
   27PS8B   C33  952  17.865   3.656   8.558
   28PS8B    C0  953   5.089  19.371   5.471
   28PS8B    C1  954   4.975  19.278   5.566
   28PS8B    C2  955   4.970  19.105   5.593
   28PS8B    C3  956   4.833  18.985   5.624
   28PS8B    B4  957   4.737  18.982   5.725
   28PS8B    B5  958   4.640  18.895   5.805
   28PS8B    B6  959   4.639  18.764   5.808
   28PS8B    B7  960   4.727  18.672   5.791
   28PS8B    B8  961   4.847  18.651   5.834
   28PS8B    B9  962   4.915  18.687   5.938
   28PS8B   B10  963   4.886  18.735   6.047
   28PS8B   B11  964   4.801  18.815   6.088
   28PS8B   B12  965   4.673  18.821   6.082
   28PS8B   B13  966   4.579  18.738   6.052
   28PS8B   B14  967   4.570  18.635   5.975
   28PS8B   B15  968   4.655  18.558   5.914
   28PS8B   B16  969   4.796  18.745   6.107
   28PS8B   B17  970   4.784  18.663   6.059
   28PS8B   B18  971   4.718  18.693   6.116
   28PS8B   B19  972   4.837  18.570   6.019
   28PS8B   B20  973   4.935  18.502   6.067
   28PS8B   B21  974   4.987  18.487   6.184
   28PS8B   B22  975   5.102  18.508   6.237
   28PS8B   B23  976   5.150  18.501   6.356
   28PS8B   B24  977   4.642  18.660   6.188
   28PS8B   B25  978   4.594  18.698   6.300
   28PS8B   B26  979   4.617  18.795   6.382
   28PS8B   B27  980   4.568  18.912   6.401
   28PS8B   B28  981   4.522  18.976   6.502
   28PS8B   B29  982   4.638  18.411   5.884
   28PS8B   C30  983   4.560  18.313   5.820
   28PS8B   C31  984   4.427  18.330   5.694
   28PS8B   C32  985   4.260  18.276   5.687
   28PS8B   C33  986   4.197  18.113   5.702
   29PS8B    C0  987  12.183  15.080  17.626
   29PS8B    C1  988  12.269  15.061  17.777
   29PS8B    C2  989  12.217  15.101  17.939
   29PS8B    C3  990  12.306  15.153  18.092
   29PS8B    B4  991  12.408  15.091  18.164
   29PS8B    B5  992  12.478  15.077  18.299
   29PS8B    B6  993  12.434  15.122  18.413
   29PS8B    B7  994  12.318  15.146  18.462
   29PS8B    B8  995  12.205  15.083  18.468
   29PS8B    B9  996  12.169  14.959  18.463
   29PS8B   B10  997  12.228  14.852  18.476
   29PS8B   B11  998  12.341  14.810  18.448
   29PS8B   B12  999  12.460  14.848  18.473
   29PS8B   B13 1000  12.514  14.930  18.556
   29PS8B   B14 1001  12.475  15.038  18.615
   29PS8B   B15 1002  12.362  15.098  18.632
   29PS8B   B16 1003  12.323  14.820  18.517
   29PS8B   B17 1004  12.299  14.896  18.570
   29PS8B   B18 1005  12.378  14.851  18.587
   29PS8B   B19 1006  12.212  14.950  18.620
   29PS8B   B20 1007  12.104  14.905  18.673
   29PS8B   B21 1008  12.067  14.793  18.724
   29PS8B   B22 1009  11.975  14.707  18.698
   29PS8B   B23 1010  11.944  14.590  18.743
   29PS8B   B24 1011  12.447  14.820  18.665
   29PS8B   B25 1012  12.521  14.719  18.694
   29PS8B   B26 1013  12.544  14.605  18.640
   29PS8B   B27 1014  12.633  14.559  18.560
   29PS8B   B28 1015  12.713  14.458  18.560
   29PS8B   B29 1016  12.321  15.183  18.751
   29PS8B   C30 1017  12.350  15.296  18.829
   29PS8B   C31 1018  12.462  15.438  18.795
   29PS8B   C32 1019  12.596  15.510  18.882
   29PS8B   C33 1020  12.601  15.572  19.045
   30PS8B    C0 1021  20.025   5.216   1.498
   30PS8B    C1 1022  19.986   5.083   1.606
   30PS8B    C2 1023  20.073   4.934   1.633
   30PS8B    C3 1024  20.022   4.763   1.681
   30PS8B    B4 1025  19.953   4.718   1.793
   30PS8B    B5 1026  19.924   4.599   1.884
   30PS8B    B6 1027  19.990   4.486   1.887
   30PS8B    B7 1028  20.111   4.451   1.859
   30PS8B    B8 1029  20.228   4.497   1.886
   30PS8B    B9 1030  20.279   4.569   1.981
   30PS8B   B10 1031  20.242   4.603   2.092
   30PS8B   B11 1032  20.133   4.630   2.144
   30PS8B   B12 1033  20.021   4.570   2.154
   30PS8B   B13 1034  19.980   4.449   2.136
   30PS8B   B14 1035  20.017   4.351   2.061
   30PS8B   B15 1036  20.121   4.324   1.989
   30PS8B   B16 1037  20.167   4.568   2.163
   30PS8B   B17 1038  20.193   4.489   2.117
   30PS8B   B18 1039  20.129   4.485   2.182
   30PS8B   B19 1040  20.282   4.434   2.071
   30PS8B   B20 1041  20.406   4.429   2.106
   30PS8B   B21 1042  20.470   4.449   2.216
   30PS8B   B22 1043  20.563   4.529   2.253
   30PS8B   B23 1044  20.621   4.556   2.366
   30PS8B   B24 1045  20.088   4.423   2.263
   30PS8B   B25 1046  20.040   4.437   2.381
   30PS8B   B26 1047  20.019   4.537   2.459
   30PS8B   B27 1048  19.920   4.614   2.485
   30PS8B   B28 1049  19.858   4.652   2.591
   30PS8B   B29 1050  20.180   4.188   1.961
   30PS8B   C30 1051  20.157   4.060   1.907
   30PS8B   C31 1052  20.021   3.999   1.799
   30PS8B   C32 1053  19.906   3.867   1.813
   30PS8B   C33 1054  19.937   3.696   1.835
   31PS8B    C0 1055  16.043  11.787  11.290
   31PS8B    C1 1056  16.210  11.739  11.311
   31PS8B    C2 1057  16.351  11.839  11.335
   31PS8B    C3 1058  16.529  11.820  11.291
   31PS8B    B4 1059  16.621  11.721  11.324
   31PS8B    B5 1060  16.769  11.686  11.342
   31PS8B    B6 1061  16.868  11.770  11.347
   31PS8B    B7 1062  16.881  11.893  11.382
   31PS8B    B8 1063  16.843  11.964  11.483
   31PS8B    B9 1064  16.812  11.940  11.606
   31PS8B   B10 1065  16.830  11.845  11.682
   31PS8B   B11 1066  16.833  11.722  11.669
   31PS8B   B12 1067  16.899  11.641  11.596
   31PS8B   B13 1068  17.004  11.649  11.522
   31PS8B   B14 1069  17.061  11.744  11.455
   31PS8B   B15 1070  17.049  11.873  11.450
   31PS8B   B16 1071  16.895  11.758  11.684
   31PS8B   B17 1072  16.946  11.824  11.639
   31PS8B   B18 1073  16.981  11.740  11.652
   31PS8B   B19 1074  16.972  11.935  11.636
   31PS8B   B20 1075  16.983  12.022  11.731
   31PS8B   B21 1076  17.005  12.016  11.858
   31PS8B   B22 1077  16.942  12.052  11.963
   31PS8B   B23 1078  16.960  12.038  12.090
   31PS8B   B24 1079  17.073  11.685  11.672
   31PS8B   B25 1080  17.111  11.582  11.740
   31PS8B   B26 1081  17.053  11.499  11.820
   31PS8B   B27 1082  17.000  11.383  11.807
   31PS8B   B28 1083  17.013  11.270  11.866
   31PS8B   B29 1084  17.158  11.973  11.419
   31PS8B   C30 1085  17.254  12.016  11.325
   31PS8B   C31 1086  17.275  11.973  11.147
   31PS8B   C32 1087  17.407  11.908  11.054
   31PS8B   C33 1088  17.570  11.970  11.036
   32PS8B    C0 1089   8.192   2.330  13.883
   32PS8B    C1 1090   8.133   2.335  13.718
   32PS8B    C2 1091   7.971   2.307  13.658
   32PS8B    C3 1092   7.904   2.241  13.500
   32PS8B    B4 1093   7.921   2.285  13.368
   32PS8B    B5 1094   7.863   2.287  13.227
   32PS8B    B6 1095   7.742   2.253  13.193
   32PS8B    B7 1096   7.628   2.250  13.252
   32PS8B    B8 1097   7.561   2.332  13.326
   32PS8B    B9 1098   7.557   2.461  13.339
   32PS8B   B10 1099   7.597   2.555  13.273
   32PS8B   B11 1100   7.695   2.577  13.201
   32PS8B   B12 1101   7.747   2.518  13.099
   32PS8B   B13 1102   7.707   2.428  13.015
   32PS8B   B14 1103   7.624   2.330  13.021
   32PS8B   B15 1104   7.532   2.291  13.103
   32PS8B   B16 1105   7.629   2.571  13.171
   32PS8B   B17 1106   7.565   2.501  13.164
   32PS8B   B18 1107   7.607   2.531  13.088
   32PS8B   B19 1108   7.465   2.463  13.205
   32PS8B   B20 1109   7.361   2.528  13.247
   32PS8B   B21 1110   7.313   2.646  13.228
   32PS8B   B22 1111   7.286   2.746  13.303
   32PS8B   B23 1112   7.247   2.868  13.282
   32PS8B   B24 1113   7.594   2.550  12.982
   32PS8B   B25 1114   7.632   2.636  12.894
   32PS8B   B26 1115   7.702   2.744  12.896
   32PS8B   B27 1116   7.825   2.772  12.875
   32PS8B   B28 1117   7.888   2.857  12.801
   32PS8B   B29 1118   7.404   2.217  13.069
   32PS8B   C30 1119   7.349   2.101  13.012
   32PS8B   C31 1120   7.429   1.940  12.968
   32PS8B   C32 1121   7.438   1.847  12.820
   32PS8B   C33 1122   7.307   1.787  12.720
   33PS8B    C0 1123   7.423  10.432  22.161
   33PS8B    C1 1124   7.260  10.407  22.102
   33PS8B    C2 1125   7.188  10.465  21.953
   33PS8B    C3 1126   7.015  10.509  21.906
   33PS8B    B4 1127   6.897  10.434  21.908
   33PS8B    B5 1128   6.757  10.417  21.851
   33PS8B    B6 1129   6.710  10.475  21.745
   33PS8B    B7 1130   6.761  10.522  21.637
   33PS8B    B8 1131   6.847  10.480  21.550
   33PS8B    B9 1132   6.888  10.365  21.510
   33PS8B   B10 1133   6.846  10.250  21.521
   33PS8B   B11 1134   6.785  10.187  21.608
   33PS8B   B12 1135   6.676  10.205  21.673
   33PS8B   B13 1136   6.573  10.281  21.659
   33PS8B   B14 1137   6.553  10.397  21.608
   33PS8B   B15 1138   6.620  10.477  21.531
   33PS8B   B16 1139   6.751  10.204  21.546
   33PS8B   B17 1140   6.726  10.285  21.504
   33PS8B   B18 1141   6.661  10.229  21.536
   33PS8B   B19 1142   6.753  10.357  21.419
   33PS8B   B20 1143   6.802  10.336  21.302
   33PS8B   B21 1144   6.806  10.234  21.223
   33PS8B   B22 1145   6.900  10.165  21.168
   33PS8B   B23 1146   6.904  10.058  21.096
   33PS8B   B24 1147   6.561  10.191  21.517
   33PS8B   B25 1148   6.496  10.080  21.527
   33PS8B   B26 1149   6.526   9.961  21.564
   33PS8B   B27 1150   6.517   9.895  21.674
   33PS8B   B28 1151   6.467   9.782  21.710
   33PS8B   B29 1152   6.563  10.574  21.429
   33PS8B   C30 1153   6.479  10.685  21.409
   33PS8B   C31 1154   6.405  10.803  21.530
   33PS8B   C32 1155   6.241  10.854  21.563
   33PS8B   C33 1156   6.124  10.925  21.454
   34PS8B    C0 1157   0.439  14.182   3.971
   34PS8B    C1 1158   0.413  14.071   3.838
   34PS8B    C2 1159   0.291  14.076   3.713
   34PS8B    C3 1160   0.205  13.946   3.614
   34PS8B    B4 1161   0.257  13.847   3.530
   34PS8B    B5 1162   0.229  13.754   3.412
   34PS8B    B6 1163   0.127  13.760   3.331
   34PS8B    B7 1164   0.049  13.854   3.291
   34PS8B    B8 1165   0.066  13.974   3.246
   34PS8B    B9 1166   0.162  14.037   3.185
   34PS8B   B10 1167   0.264  14.002   3.127
   34PS8B   B11 1168   0.346  13.911   3.140
   34PS8B   B12 1169   0.339  13.783   3.147
   34PS8B   B13 1170   0.249  13.695   3.120
   34PS8B   B14 1171   0.120  13.695   3.119
   34PS8B   B15 1172   0.027  13.786   3.124
   34PS8B   B16 1173   0.301  13.910   3.083
   34PS8B   B17 1174   0.207  13.904   3.072
   34PS8B   B18 1175   0.260  13.835   3.043
   34PS8B   B19 1176   0.112  13.963   3.049
   34PS8B   B20 1177   0.093  14.064   2.971
   34PS8B   B21 1178   0.155  14.113   2.869
   34PS8B   B22 1179   0.211  14.226   2.841
   34PS8B   B23 1180   0.280  14.271   2.742
   34PS8B   B24 1181   0.272  13.759   2.966
   34PS8B   B25 1182   0.367  13.705   2.898
   34PS8B   B26 1183   0.494  13.720   2.890
   34PS8B   B27 1184   0.596  13.664   2.945
   34PS8B   B28 1185   0.704  13.610   2.902
   34PS8B   B29 1186  -0.110  13.779   3.059
   34PS8B   C30 1187  -0.231  13.709   3.050
   34PS8B   C31 1188  -0.302  13.579   3.159
   34PS8B   C32 1189  -0.360  13.416   3.130
   34PS8B   C33 1190  -0.485  13.362   3.019
   35PS8B    C0 1191  17.500   7.658  10.680
   35PS8B    C1 1192  17.565   7.634  10.519
   35PS8B    C2 1193  17.533   7.505  10.406
   35PS8B    C3 1194  17.633   7.425  10.272
   35PS8B    B4 1195  17.693   7.479  10.159
   35PS8B    B5 1196  17.746   7.452  10.018
   35PS8B    B6 1197  17.725   7.346   9.947
   35PS8B    B7 1198  17.631   7.257   9.942
   35PS8B    B8 1199  17.502   7.260   9.938
   35PS8B    B9 1200  17.414   7.345   9.898
   35PS8B   B10 1201  17.416   7.446   9.829
   35PS8B   B11 1202  17.498   7.537   9.809
   35PS8B   B12 1203  17.621   7.542   9.774
   35PS8B   B13 1204  17.705   7.459   9.723
   35PS8B   B14 1205  17.719   7.330   9.726
   35PS8B   B15 1206  17.645   7.231   9.762
   35PS8B   B16 1207  17.485   7.489   9.756
   35PS8B   B17 1208  17.498   7.395   9.747
   35PS8B   B18 1209  17.547   7.452   9.695
   35PS8B   B19 1210  17.444   7.294   9.747
   35PS8B   B20 1211  17.326   7.261   9.707
   35PS8B   B21 1212  17.240   7.311   9.625
   35PS8B   B22 1213  17.120   7.354   9.633
   35PS8B   B23 1214  17.038   7.413   9.553
   35PS8B   B24 1215  17.592   7.466   9.597
   35PS8B   B25 1216  17.611   7.561   9.512
   35PS8B   B26 1217  17.581   7.685   9.506
   35PS8B   B27 1218  17.641   7.795   9.536
   35PS8B   B28 1219  17.666   7.905   9.475
   35PS8B   B29 1220  17.644   7.091   9.703
   35PS8B   C30 1221  17.721   6.976   9.676
   35PS8B   C31 1222  17.886   6.925   9.738
   35PS8B   C32 1223  18.036   6.880   9.660
   35PS8B   C33 1224  18.064   6.753   9.542
   36PS8B    C0 1225  10.930   6.254  15.452
   36PS8B    C1 1226  10.949   6.080  15.442
   36PS8B    C2 1227  11.076   5.987  15.367
   36PS8B    C3 1228  11.082   5.821  15.286
   36PS8B    B4 1229  11.050   5.695  15.336
   36PS8B    B5 1230  11.072   5.544  15.323
   36PS8B    B6 1231  11.165   5.485  15.254
   36PS8B    B7 1232  11.283   5.518  15.215
   36PS8B    B8 1233  11.387   5.570  15.270
   36PS8B    B9 1234  11.433   5.576  15.391
   36PS8B   B10 1235  11.410   5.516  15.495
   36PS8B   B11 1236  11.309   5.466  15.547
   36PS8B   B12 1237  11.221   5.381  15.509
   36PS8B   B13 1238  11.211   5.296  15.413
   36PS8B   B14 1239  11.259   5.288  15.294
   36PS8B   B15 1240  11.351   5.350  15.227
   36PS8B   B16 1241  11.362   5.422  15.521
   36PS8B   B17 1242  11.399   5.405  15.435
   36PS8B   B18 1243  11.351   5.339  15.478
   36PS8B   B19 1244  11.488   5.425  15.368
   36PS8B   B20 1245  11.614   5.439  15.396
   36PS8B   B21 1246  11.690   5.404  15.494
   36PS8B   B22 1247  11.763   5.465  15.579
   36PS8B   B23 1248  11.832   5.430  15.683
   36PS8B   B24 1249  11.344   5.232  15.495
   36PS8B   B25 1250  11.316   5.150  15.590
   36PS8B   B26 1251  11.285   5.163  15.714
   36PS8B   B27 1252  11.175   5.168  15.780
   36PS8B   B28 1253  11.126   5.106  15.882
   36PS8B   B29 1254  11.438   5.292  15.118
   36PS8B   C30 1255  11.440   5.230  14.991
   36PS8B   C31 1256  11.308   5.212  14.864
   36PS8B   C32 1257  11.237   5.075  14.782
   36PS8B   C33 1258  11.316   4.952  14.686
   37PS8B    C0 1259   4.857  10.163  22.129
   37PS8B    C1 1260   5.000  10.168  22.229
   37PS8B    C2 1261   5.138  10.059  22.229
   37PS8B    C3 1262   5.257  10.004  22.359
   37PS8B    B4 1263   5.342  10.078  22.441
   37PS8B    B5 1264   5.469  10.076  22.525
   37PS8B    B6 1265   5.561   9.983  22.525
   37PS8B    B7 1266   5.602   9.896  22.439
   37PS8B    B8 1267   5.634   9.899  22.314
   37PS8B    B9 1268   5.678   9.990  22.233
   37PS8B   B10 1269   5.728  10.101  22.247
   37PS8B   B11 1270   5.713  10.194  22.327
   37PS8B   B12 1271   5.717  10.205  22.454
   37PS8B   B13 1272   5.762  10.133  22.551
   37PS8B   B14 1273   5.777  10.006  22.569
   37PS8B   B15 1274   5.775   9.901  22.493
   37PS8B   B16 1275   5.774  10.156  22.328
   37PS8B   B17 1276   5.796  10.065  22.346
   37PS8B   B18 1277   5.825  10.131  22.404
   37PS8B   B19 1278   5.825   9.965  22.299
   37PS8B   B20 1279   5.896   9.939  22.194
   37PS8B   B21 1280   5.986  10.002  22.127
   37PS8B   B22 1281   5.998  10.043  22.006
   37PS8B   B23 1282   6.084  10.114  21.941
   37PS8B   B24 1283   5.906  10.161  22.469
   37PS8B   B25 1284   5.968  10.269  22.502
   37PS8B   B26 1285   5.960  10.393  22.469
   37PS8B   B27 1286   5.899  10.496  22.516
   37PS8B   B28 1287   5.934  10.615  22.549
   37PS8B   B29 1288   5.855   9.774  22.512
   37PS8B   C30 1289   5.884   9.666  22.598
   37PS8B   C31 1290   5.795   9.605  22.747
   37PS8B   C32 1291   5.843   9.575  22.912
   37PS8B   C33 1292   5.971   9.471  22.972
   38PS8B    C0 1293  15.919  14.683  15.957
   38PS8B    C1 1294  16.024  14.711  15.819
   38PS8B    C2 1295  16.197  14.741  15.818
   38PS8B    C3 1296  16.308  14.836  15.705
   38PS8B    B4 1297  16.331  14.824  15.568
   38PS8B    B5 1298  16.428  14.849  15.454
   38PS8B    B6 1299  16.553  14.883  15.465
   38PS8B    B7 1300  16.644  14.864  15.553
   38PS8B    B8 1301  16.687  14.764  15.622
   38PS8B    B9 1302  16.687  14.635  15.606
   38PS8B   B10 1303  16.669  14.561  15.511
   38PS8B   B11 1304  16.597  14.563  15.410
   38PS8B   B12 1305  16.578  14.646  15.314
   38PS8B   B13 1306  16.640  14.749  15.269
   38PS8B   B14 1307  16.717  14.838  15.322
   38PS8B   B15 1308  16.781  14.851  15.434
   38PS8B   B16 1309  16.669  14.571  15.402
   38PS8B   B17 1310  16.732  14.636  15.431
   38PS8B   B18 1311  16.714  14.627  15.342
   38PS8B   B19 1312  16.815  14.656  15.507
   38PS8B   B20 1313  16.902  14.578  15.561
   38PS8B   B21 1314  16.954  14.464  15.530
   38PS8B   B22 1315  16.958  14.348  15.584
   38PS8B   B23 1316  17.002  14.232  15.547
   38PS8B   B24 1317  16.758  14.631  15.242
   38PS8B   B25 1318  16.749  14.569  15.130
   38PS8B   B26 1319  16.681  14.469  15.087
   38PS8B   B27 1320  16.570  14.454  15.024
   38PS8B   B28 1321  16.533  14.392  14.918
   38PS8B   B29 1322  16.912  14.923  15.456
   38PS8B   C30 1323  16.982  15.045  15.446
   38PS8B   C31 1324  16.919  15.216  15.419
   38PS8B   C32 1325  16.954  15.340  15.301
   38PS8B   C33 1326  17.108  15.413  15.261
   39PS8B    C0 1327  15.064  17.280   2.345
   39PS8B    C1 1328  14.953  17.259   2.479
   39PS8B    C2 1329  14.934  17.121   2.585
   39PS8B    C3 1330  14.790  17.050   2.677
   39PS8B    B4 1331  14.706  17.107   2.773
   39PS8B    B5 1332  14.612  17.082   2.889
   39PS8B    B6 1333  14.598  16.970   2.954
   39PS8B    B7 1334  14.674  16.869   2.978
   39PS8B    B8 1335  14.795  16.853   3.019
   39PS8B    B9 1336  14.878  16.923   3.089
   39PS8B   B10 1337  14.867  17.020   3.164
   39PS8B   B11 1338  14.795  17.120   3.167
   39PS8B   B12 1339  14.669  17.141   3.166
   39PS8B   B13 1340  14.564  17.068   3.184
   39PS8B   B14 1341  14.537  16.944   3.166
   39PS8B   B15 1342  14.605  16.836   3.144
   39PS8B   B16 1343  14.786  17.068   3.217
   39PS8B   B17 1344  14.760  16.977   3.214
   39PS8B   B18 1345  14.705  17.039   3.254
   39PS8B   B19 1346  14.798  16.869   3.221
   39PS8B   B20 1347  14.895  16.818   3.290
   39PS8B   B21 1348  14.958  16.852   3.397
   39PS8B   B22 1349  15.080  16.878   3.427
   39PS8B   B23 1350  15.141  16.920   3.532
   39PS8B   B24 1351  14.635  17.054   3.337
   39PS8B   B25 1352  14.604  17.147   3.421
   39PS8B   B26 1353  14.646  17.265   3.445
   39PS8B   B27 1354  14.612  17.383   3.409
   39PS8B   B28 1355  14.584  17.493   3.470
   39PS8B   B29 1356  14.571  16.696   3.188
   39PS8B   C30 1357  14.476  16.591   3.183
   39PS8B   C31 1358  14.332  16.567   3.072
   39PS8B   C32 1359  14.161  16.540   3.100
   39PS8B   C33 1360  14.084  16.414   3.194
   40PS8B    C0 1361  17.935  18.590  12.020
   40PS8B    C1 1362  17.788  18.654  12.090
   40PS8B    C2 1363  17.719  18.814  12.072
   40PS8B    C3 1364  17.615  18.921  12.182
   40PS8B    B4 1365  17.491  18.897  12.241
   40PS8B    B5 1366  17.365  18.960  12.299
   40PS8B    B6 1367  17.328  19.084  12.289
   40PS8B    B7 1368  17.349  19.178  12.203
   40PS8B    B8 1369  17.344  19.187  12.075
   40PS8B    B9 1370  17.281  19.125  11.981
   40PS8B   B10 1371  17.185  19.050  11.977
   40PS8B   B11 1372  17.139  18.962  12.052
   40PS8B   B12 1373  17.105  18.957  12.175
   40PS8B   B13 1374  17.080  19.045  12.266
   40PS8B   B14 1375  17.121  19.165  12.290
   40PS8B   B15 1376  17.186  19.255  12.224
   40PS8B   B16 1377  17.103  19.025  12.044
   40PS8B   B17 1378  17.122  19.116  12.064
   40PS8B   B18 1379  17.056  19.072  12.111
   40PS8B   B19 1380  17.152  19.216  12.019
   40PS8B   B20 1381  17.123  19.270  11.905
   40PS8B   B21 1382  17.029  19.254  11.818
   40PS8B   B22 1383  17.024  19.220  11.694
   40PS8B   B23 1384  16.930  19.195  11.610
   40PS8B   B24 1385  16.958  19.084  12.157
   40PS8B   B25 1386  16.849  19.017  12.171
   40PS8B   B26 1387  16.806  18.903  12.131
   40PS8B   B27 1388  16.802  18.785  12.181
   40PS8B   B28 1389  16.711  18.696  12.198
   40PS8B   B29 1390  17.171  19.405  12.236
   40PS8B   C30 1391  17.179  19.516  12.322
   40PS8B   C31 1392  17.254  19.532  12.490
   40PS8B   C32 1393  17.193  19.586  12.645
   40PS8B   C33 1394  17.118  19.738  12.687
   41PS8B    C0 1395   6.195   2.115   4.212
   41PS8B    C1 1396   6.275   2.146   4.060
   41PS8B    C2 1397   6.389   2.045   3.973
   41PS8B    C3 1398   6.530   2.082   3.859
   41PS8B    B4 1399   6.533   2.152   3.738
   41PS8B    B5 1400   6.607   2.173   3.606
   41PS8B    B6 1401   6.699   2.096   3.556
   41PS8B    B7 1402   6.729   1.971   3.567
   41PS8B    B8 1403   6.663   1.861   3.560
   41PS8B    B9 1404   6.553   1.822   3.503
   41PS8B   B10 1405   6.481   1.868   3.416
   41PS8B   B11 1406   6.448   1.982   3.381
   41PS8B   B12 1407   6.511   2.088   3.347
   41PS8B   B13 1408   6.632   2.116   3.314
   41PS8B   B14 1409   6.748   2.065   3.342
   41PS8B   B15 1410   6.789   1.955   3.396
   41PS8B   B16 1411   6.492   1.943   3.338
   41PS8B   B17 1412   6.579   1.907   3.347
   41PS8B   B18 1413   6.564   1.974   3.286
   41PS8B   B19 1414   6.638   1.811   3.365
   41PS8B   B20 1415   6.615   1.689   3.331
   41PS8B   B21 1416   6.544   1.633   3.239
   41PS8B   B22 1417   6.445   1.550   3.237
   41PS8B   B23 1418   6.369   1.501   3.145
   41PS8B   B24 1419   6.592   2.012   3.188
   41PS8B   B25 1420   6.535   2.068   3.086
   41PS8B   B26 1421   6.416   2.102   3.056
   41PS8B   B27 1422   6.347   2.210   3.066
   41PS8B   B28 1423   6.276   2.281   2.985
   41PS8B   B29 1424   6.918   1.881   3.364
   41PS8B   C30 1425   7.058   1.889   3.361
   41PS8B   C31 1426   7.173   2.012   3.434
   41PS8B   C32 1427   7.300   2.113   3.368
   41PS8B   C33 1428   7.442   2.067   3.277
   42PS8B    C0 1429   7.363  10.087   2.479
   42PS8B    C1 1430   7.378   9.973   2.347
   42PS8B    C2 1431   7.448   9.998   2.188
   42PS8B    C3 1432   7.415   9.925   2.022
   42PS8B    B4 1433   7.419   9.793   1.979
   42PS8B    B5 1434   7.435   9.699   1.859
   42PS8B    B6 1435   7.478   9.732   1.741
   42PS8B    B7 1436   7.555   9.824   1.694
   42PS8B    B8 1437   7.670   9.871   1.726
   42PS8B    B9 1438   7.774   9.825   1.788
   42PS8B   B10 1439   7.813   9.714   1.820
   42PS8B   B11 1440   7.758   9.609   1.856
   42PS8B   B12 1441   7.666   9.534   1.808
   42PS8B   B13 1442   7.609   9.522   1.693
   42PS8B   B14 1443   7.584   9.602   1.595
   42PS8B   B15 1444   7.624   9.721   1.561
   42PS8B   B16 1445   7.790   9.612   1.791
   42PS8B   B17 1446   7.775   9.662   1.712
   42PS8B   B18 1447   7.760   9.572   1.711
   42PS8B   B19 1448   7.813   9.750   1.649
   42PS8B   B20 1449   7.933   9.793   1.629
   42PS8B   B21 1450   8.051   9.742   1.638
   42PS8B   B22 1451   8.157   9.767   1.706
   42PS8B   B23 1452   8.272   9.710   1.720
   42PS8B   B24 1453   7.767   9.481   1.650
   42PS8B   B25 1454   7.798   9.357   1.664
   42PS8B   B26 1455   7.838   9.284   1.762
   42PS8B   B27 1456   7.781   9.208   1.848
   42PS8B   B28 1457   7.797   9.086   1.887
   42PS8B   B29 1458   7.640   9.774   1.420
   42PS8B   C30 1459   7.575   9.801   1.298
   42PS8B   C31 1460   7.396   9.808   1.257
   42PS8B   C32 1461   7.296   9.728   1.138
   42PS8B   C33 1462   7.315   9.723   0.964
   43PS8B    C0 1463  22.375  20.241  18.259
   43PS8B    C1 1464  22.437  20.106  18.352
   43PS8B    C2 1465  22.356  19.958  18.398
   43PS8B    C3 1466  22.372  19.844  18.543
   43PS8B    B4 1467  22.482  19.773  18.591
   43PS8B    B5 1468  22.529  19.653  18.672
   43PS8B    B6 1469  22.456  19.553  18.711
   43PS8B    B7 1470  22.349  19.496  18.668
   43PS8B    B8 1471  22.308  19.455  18.553
   43PS8B    B9 1472  22.364  19.415  18.444
   43PS8B   B10 1473  22.477  19.379  18.414
   43PS8B   B11 1474  22.592  19.410  18.450
   43PS8B   B12 1475  22.652  19.416  18.563
   43PS8B   B13 1476  22.629  19.372  18.681
   43PS8B   B14 1477  22.523  19.344  18.748
   43PS8B   B15 1478  22.397  19.329  18.720
   43PS8B   B16 1479  22.565  19.345  18.468
   43PS8B   B17 1480  22.492  19.315  18.521
   43PS8B   B18 1481  22.578  19.298  18.548
   43PS8B   B19 1482  22.387  19.272  18.518
   43PS8B   B20 1483  22.331  19.191  18.434
   43PS8B   B21 1484  22.375  19.103  18.349
   43PS8B   B22 1485  22.366  19.087  18.222
   43PS8B   B23 1486  22.417  19.004  18.137
   43PS8B   B24 1487  22.642  19.225  18.598
   43PS8B   B25 1488  22.762  19.179  18.588
   43PS8B   B26 1489  22.860  19.198  18.508
   43PS8B   B27 1490  22.965  19.273  18.509
   43PS8B   B28 1491  23.091  19.254  18.493
   43PS8B   B29 1492  22.299  19.237  18.790
   43PS8B   C30 1493  22.237  19.203  18.912
   43PS8B   C31 1494  22.229  19.296  19.071
   43PS8B   C32 1495  22.272  19.257  19.236
   43PS8B   C33 1496  22.217  19.123  19.335
   44PS8B    C0 1497  15.777   3.956   9.798
   44PS8B    C1 1498  15.951   3.956   9.818
   44PS8B    C2 1499  16.046   3.902   9.956
   44PS8B    C3 1500  16.208   3.953  10.026
   44PS8B    B4 1501  16.335   3.957   9.968
   44PS8B    B5 1502  16.486   3.955   9.993
   44PS8B    B6 1503  16.545   3.923  10.104
   44PS8B    B7 1504  16.515   3.849  10.205
   44PS8B    B8 1505  16.470   3.729  10.220
   44PS8B    B9 1506  16.470   3.621  10.149
   44PS8B   B10 1507  16.534   3.582  10.052
   44PS8B   B11 1508  16.582   3.636   9.951
   44PS8B   B12 1509  16.662   3.735   9.931
   44PS8B   B13 1510  16.743   3.803  10.004
   44PS8B   B14 1511  16.747   3.835  10.129
   44PS8B   B15 1512  16.687   3.796  10.236
   44PS8B   B16 1513  16.627   3.611  10.003
   44PS8B   B17 1514  16.642   3.632  10.095
   44PS8B   B18 1515  16.707   3.650  10.033
   44PS8B   B19 1516  16.622   3.598  10.202
   44PS8B   B20 1517  16.614   3.479  10.252
   44PS8B   B21 1518  16.657   3.363  10.218
   44PS8B   B22 1519  16.601   3.250  10.191
   44PS8B   B23 1520  16.643   3.136  10.147
   44PS8B   B24 1521  16.815   3.651  10.017
   44PS8B   B25 1522  16.899   3.622   9.924
   44PS8B   B26 1523  16.891   3.575   9.805
   44PS8B   B27 1524  16.884   3.626   9.687
   44PS8B   B28 1525  16.949   3.609   9.577
   44PS8B   B29 1526  16.743   3.792  10.377
   44PS8B   C30 1527  16.800   3.868  10.481
   44PS8B   C31 1528  16.807   4.050  10.507
   44PS8B   C32 1529  16.938   4.163  10.534
   44PS8B   C33 1530  17.060   4.161  10.660
   45PS8B    C0 1531  13.631  22.345  17.234
   45PS8B    C1 1532  13.523  22.326  17.371
   45PS8B    C2 1533  13.525  22.204  17.497
   45PS8B    C3 1534  13.393  22.126  17.600
   45PS8B    B4 1535  13.300  22.183  17.687
   45PS8B    B5 1536  13.210  22.160  17.808
   45PS8B    B6 1537  13.213  22.058  17.889
   45PS8B    B7 1538  13.303  21.975  17.926
   45PS8B    B8 1539  13.425  21.985  17.967
   45PS8B    B9 1540  13.496  22.077  18.025
   45PS8B   B10 1541  13.469  22.180  18.085
   45PS8B   B11 1542  13.382  22.268  18.074
   45PS8B   B12 1543  13.254  22.268  18.072
   45PS8B   B13 1544  13.162  22.183  18.102
   45PS8B   B14 1545  13.154  22.055  18.103
   45PS8B   B15 1546  13.239  21.957  18.095
   45PS8B   B16 1547  13.381  22.223  18.132
   45PS8B   B17 1548  13.369  22.129  18.143
   45PS8B   B18 1549  13.305  22.186  18.174
   45PS8B   B19 1550  13.424  22.031  18.164
   45PS8B   B20 1551  13.526  22.006  18.239
   45PS8B   B21 1552  13.582  22.065  18.339
   45PS8B   B22 1553  13.698  22.114  18.363
   45PS8B   B23 1554  13.751  22.180  18.460
   45PS8B   B24 1555  13.232  22.203  18.254
   45PS8B   B25 1556  13.186  22.301  18.324
   45PS8B   B26 1557  13.209  22.427  18.330
   45PS8B   B27 1558  13.157  22.531  18.277
   45PS8B   B28 1559  13.111  22.643  18.322
   45PS8B   B29 1560  13.227  21.821  18.161
   45PS8B   C30 1561  13.150  21.703  18.172
   45PS8B   C31 1562  13.012  21.641  18.068
   45PS8B   C32 1563  12.847  21.592  18.102
   45PS8B   C33 1564  12.790  21.471  18.214
   46PS8B    C0 1565   5.835  14.667  17.460
   46PS8B    C1 1566   5.823  14.640  17.633
   46PS8B    C2 1567   5.762  14.747  17.757
   46PS8B    C3 1568   5.801  14.770  17.936
   46PS8B    B4 1569   5.795  14.680  18.042
   46PS8B    B5 1570   5.782  14.663  18.193
   46PS8B    B6 1571   5.746  14.755  18.278
   46PS8B    B7 1572   5.674  14.861  18.272
   46PS8B    B8 1573   5.558  14.891  18.223
   46PS8B    B9 1574   5.450  14.825  18.197
   46PS8B   B10 1575   5.407  14.715  18.229
   46PS8B   B11 1576   5.457  14.604  18.252
   46PS8B   B12 1577   5.549  14.561  18.329
   46PS8B   B13 1578   5.612  14.607  18.432
   46PS8B   B14 1579   5.643  14.726  18.473
   46PS8B   B15 1580   5.609  14.846  18.441
   46PS8B   B16 1581   5.429  14.642  18.307
   46PS8B   B17 1582   5.449  14.726  18.347
   46PS8B   B18 1583   5.461  14.648  18.395
   46PS8B   B19 1584   5.416  14.835  18.356
   46PS8B   B20 1585   5.299  14.888  18.353
   46PS8B   B21 1586   5.179  14.846  18.376
   46PS8B   B22 1587   5.071  14.837  18.308
   46PS8B   B23 1588   4.954  14.786  18.328
   46PS8B   B24 1589   5.455  14.603  18.494
   46PS8B   B25 1590   5.420  14.492  18.547
   46PS8B   B26 1591   5.373  14.381  18.504
   46PS8B   B27 1592   5.424  14.268  18.469
   46PS8B   B28 1593   5.402  14.145  18.500
   46PS8B   B29 1594   5.601  14.966  18.533
   46PS8B   C30 1595   5.672  15.050  18.621
   46PS8B   C31 1596   5.853  15.069  18.648
   46PS8B   C32 1597   5.956  15.057  18.789
   46PS8B   C33 1598   5.946  15.145  18.940
   47PS8B    C0 1599  15.028  19.466  18.616
   47PS8B    C1 1600  15.022  19.307  18.689
   47PS8B    C2 1601  15.092  19.157  18.633
   47PS8B    C3 1602  15.043  18.980  18.650
   47PS8B    B4 1603  15.023  18.902  18.765
   47PS8B    B5 1604  15.021  18.761  18.823
   47PS8B    B6 1605  15.066  18.653  18.766
   47PS8B    B7 1606  15.157  18.629  18.679
   47PS8B    B8 1607  15.280  18.664  18.662
   47PS8B    B9 1608  15.376  18.704  18.739
   47PS8B   B10 1609  15.394  18.703  18.860
   47PS8B   B11 1610  15.322  18.713  18.960
   47PS8B   B12 1611  15.218  18.652  19.003
   47PS8B   B13 1612  15.157  18.542  18.973
   47PS8B   B14 1613  15.146  18.472  18.865
   47PS8B   B15 1614  15.205  18.468  18.750
   47PS8B   B16 1615  15.353  18.648  18.945
   47PS8B   B17 1616  15.346  18.587  18.872
   47PS8B   B18 1617  15.315  18.563  18.955
   47PS8B   B19 1618  15.398  18.548  18.778
   47PS8B   B20 1619  15.523  18.533  18.752
   47PS8B   B21 1620  15.630  18.519  18.822
   47PS8B   B22 1621  15.741  18.585  18.834
   47PS8B   B23 1622  15.844  18.576  18.911
   47PS8B   B24 1623  15.305  18.479  19.025
   47PS8B   B25 1624  15.314  18.458  19.152
   47PS8B   B26 1625  15.342  18.529  19.254
   47PS8B   B27 1626  15.274  18.594  19.341
   47PS8B   B28 1627  15.269  18.598  19.470
   47PS8B   B29 1628  15.228  18.346  18.663
   47PS8B   C30 1629  15.167  18.241  18.593
   47PS8B   C31 1630  14.991  18.215  18.545
   47PS8B   C32 1631  14.877  18.085  18.572
   47PS8B   C33 1632  14.891  17.915  18.531
   48PS8B    C0 1633  14.447  19.668  22.002
   48PS8B    C1 1634  14.389  19.570  21.868
   48PS8B    C2 1635  14.251  19.598  21.764
   48PS8B    C3 1636  14.136  19.485  21.672
   48PS8B    B4 1637  14.162  19.388  21.576
   48PS8B    B5 1638  14.106  19.307  21.459
   48PS8B    B6 1639  13.995  19.331  21.395
   48PS8B    B7 1640  13.924  19.436  21.372
   48PS8B    B8 1641  13.949  19.556  21.332
   48PS8B    B9 1642  14.041  19.612  21.261
   48PS8B   B10 1643  14.129  19.571  21.186
   48PS8B   B11 1644  14.200  19.470  21.181
   48PS8B   B12 1645  14.178  19.343  21.182
   48PS8B   B13 1646  14.075  19.268  21.165
   48PS8B   B14 1647  13.949  19.283  21.184
   48PS8B   B15 1648  13.870  19.383  21.207
   48PS8B   B16 1649  14.147  19.478  21.132
   48PS8B   B17 1650  14.053  19.483  21.135
   48PS8B   B18 1651  14.092  19.411  21.095
   48PS8B   B19 1652  13.964  19.555  21.130
   48PS8B   B20 1653  13.946  19.663  21.062
   48PS8B   B21 1654  13.997  19.712  20.954
   48PS8B   B22 1655  14.062  19.819  20.924
   48PS8B   B23 1656  14.121  19.863  20.818
   48PS8B   B24 1657  14.084  19.340  21.012
   48PS8B   B25 1658  14.160  19.281  20.927
   48PS8B   B26 1659  14.286  19.282  20.901
   48PS8B   B27 1660  14.386  19.211  20.936
   48PS8B   B28 1661  14.480  19.149  20.874
   48PS8B   B29 1662  13.725  19.397  21.164
   48PS8B   C30 1663  13.596  19.341  21.170
   48PS8B   C31 1664  13.527  19.212  21.281
   48PS8B   C32 1665  13.445  19.059  21.253
   48PS8B   C33 1666  13.300  19.028  21.161
   49PS8B    C0 1667   1.382  17.102  12.091
   49PS8B    C1 1668   1.420  17.222  11.969
   49PS8B    C2 1669   1.454  17.198  11.799
   49PS8B    C3 1670   1.559  17.288  11.676
   49PS8B    B4 1671   1.555  17.421  11.634
   49PS8B    B5 1672   1.590  17.520  11.523
   49PS8B    B6 1673   1.625  17.490  11.402
   49PS8B    B7 1674   1.604  17.390  11.323
   49PS8B    B8 1675   1.500  17.322  11.287
   49PS8B    B9 1676   1.373  17.346  11.281
   49PS8B   B10 1677   1.304  17.447  11.284
   49PS8B   B11 1678   1.311  17.556  11.341
   49PS8B   B12 1679   1.399  17.648  11.349
   49PS8B   B13 1680   1.506  17.678  11.284
   49PS8B   B14 1681   1.594  17.611  11.218
   49PS8B   B15 1682   1.601  17.490  11.171
   49PS8B   B16 1683   1.321  17.553  11.269
   49PS8B   B17 1684   1.385  17.512  11.212
   49PS8B   B18 1685   1.382  17.603  11.218
   49PS8B   B19 1686   1.403  17.424  11.141
   49PS8B   B20 1687   1.324  17.363  11.060
   49PS8B   B21 1688   1.213  17.394  11.001
   49PS8B   B22 1689   1.094  17.347  11.000
   49PS8B   B23 1690   0.981  17.383  10.948
   49PS8B   B24 1691   1.393  17.696  11.160
   49PS8B   B25 1692   1.338  17.812  11.152
   49PS8B   B26 1693   1.239  17.869  11.210
   49PS8B   B27 1694   1.225  17.947  11.311
   49PS8B   B28 1695   1.169  18.061  11.332
   49PS8B   B29 1696   1.674  17.446  11.046
   49PS8B   C30 1697   1.799  17.439  10.980
   49PS8B   C31 1698   1.969  17.464  11.044
   49PS8B   C32 1699   2.101  17.569  10.997
   49PS8B   C33 1700   2.180  17.584  10.841
   50PS8B    C0 1701   9.722   9.188   4.536
   50PS8B    C1 1702   9.756   9.036   4.457
   50PS8B    C2 1703   9.909   8.951   4.444
   50PS8B    C3 1704   9.981   8.838   4.317
   50PS8B    B4 1705   9.934   8.716   4.267
   50PS8B    B5 1706   9.971   8.585   4.200
   50PS8B    B6 1707  10.091   8.537   4.185
   50PS8B    B7 1708  10.202   8.549   4.249
   50PS8B    B8 1709  10.238   8.543   4.373
   50PS8B    B9 1710  10.191   8.487   4.479
   50PS8B   B10 1711  10.110   8.398   4.500
   50PS8B   B11 1712  10.005   8.361   4.447
   50PS8B   B12 1713   9.971   8.326   4.328
   50PS8B   B13 1714  10.035   8.294   4.221
   50PS8B   B14 1715  10.150   8.323   4.172
   50PS8B   B15 1716  10.258   8.379   4.217
   50PS8B   B16 1717  10.064   8.319   4.442
   50PS8B   B17 1718  10.150   8.329   4.403
   50PS8B   B18 1719  10.092   8.267   4.368
   50PS8B   B19 1720  10.260   8.349   4.425
   50PS8B   B20 1721  10.333   8.316   4.527
   50PS8B   B21 1722  10.327   8.225   4.617
   50PS8B   B22 1723  10.320   8.224   4.745
   50PS8B   B23 1724  10.304   8.132   4.835
   50PS8B   B24 1725  10.085   8.168   4.323
   50PS8B   B25 1726  10.007   8.066   4.326
   50PS8B   B26 1727   9.900   8.034   4.390
   50PS8B   B27 1728   9.774   8.042   4.365
   50PS8B   B28 1729   9.675   7.959   4.369
   50PS8B   B29 1730  10.400   8.349   4.174
   50PS8B   C30 1731  10.491   8.347   4.066
   50PS8B   C31 1732  10.479   8.419   3.898
   50PS8B   C32 1733  10.493   8.353   3.736
   50PS8B   C33 1734  10.626   8.263   3.665
   51PS8B    C0 1735  22.267  12.567  11.479
   51PS8B    C1 1736  22.162  12.454  11.562
   51PS8B    C2 1737  22.205  12.313  11.656
   51PS8B    C3 1738  22.122  12.152  11.689
   51PS8B    B4 1739  21.997  12.124  11.745
   51PS8B    B5 1740  21.911  12.021  11.818
   51PS8B    B6 1741  21.954  11.912  11.876
   51PS8B    B7 1742  22.065  11.875  11.929
   51PS8B    B8 1743  22.148  11.927  12.013
   51PS8B    B9 1744  22.141  12.015  12.108
   51PS8B   B10 1745  22.049  12.066  12.170
   51PS8B   B11 1746  21.932  12.099  12.144
   51PS8B   B12 1747  21.830  12.039  12.095
   51PS8B   B13 1748  21.798  11.916  12.074
   51PS8B   B14 1749  21.864  11.808  12.050
   51PS8B   B15 1750  21.988  11.772  12.058
   51PS8B   B16 1751  21.944  12.042  12.188
   51PS8B   B17 1752  21.985  11.957  12.178
   51PS8B   B18 1753  21.895  11.962  12.193
   51PS8B   B19 1754  22.079  11.896  12.201
   51PS8B   B20 1755  22.159  11.900  12.302
   51PS8B   B21 1756  22.150  11.939  12.424
   51PS8B   B22 1757  22.210  12.026  12.497
   51PS8B   B23 1758  22.194  12.072  12.617
   51PS8B   B24 1759  21.811  11.913  12.242
   51PS8B   B25 1760  21.704  11.947  12.306
   51PS8B   B26 1761  21.650  12.057  12.342
   51PS8B   B27 1762  21.561  12.135  12.293
   51PS8B   B28 1763  21.452  12.189  12.336
   51PS8B   B29 1764  22.041  11.633  12.089
   51PS8B   C30 1765  22.042  11.498  12.051
   51PS8B   C31 1766  21.989  11.417  11.895
   51PS8B   C32 1767  21.878  11.287  11.858
   51PS8B   C33 1768  21.876  11.123  11.919
   52PS8B    C0 1769  19.488  17.560  10.481
   52PS8B    C1 1770  19.539  17.427  10.582
   52PS8B    C2 1771  19.675  17.417  10.692
   52PS8B    C3 1772  19.782  17.278  10.749
   52PS8B    B4 1773  19.750  17.159  10.814
   52PS8B    B5 1774  19.800  17.046  10.903
   52PS8B    B6 1775  19.910  17.046  10.973
   52PS8B    B7 1776  19.984  17.137  11.025
   52PS8B    B8 1777  19.964  17.241  11.098
   52PS8B    B9 1778  19.872  17.279  11.181
   52PS8B   B10 1779  19.782  17.222  11.240
   52PS8B   B11 1780  19.706  17.128  11.215
   52PS8B   B12 1781  19.722  17.006  11.178
   52PS8B   B13 1782  19.821  16.924  11.175
   52PS8B   B14 1783  19.949  16.938  11.163
   52PS8B   B15 1784  20.033  17.036  11.169
   52PS8B   B16 1785  19.757  17.119  11.265
   52PS8B   B17 1786  19.853  17.121  11.264
   52PS8B   B18 1787  19.809  17.043  11.283
   52PS8B   B19 1788  19.944  17.184  11.291
   52PS8B   B20 1789  19.965  17.267  11.387
   52PS8B   B21 1790  19.913  17.286  11.504
   52PS8B   B22 1791  19.852  17.383  11.562
   52PS8B   B23 1792  19.792  17.399  11.675
   52PS8B   B24 1793  19.813  16.951  11.342
   52PS8B   B25 1794  19.732  16.874  11.405
   52PS8B   B26 1795  19.606  16.873  11.429
   52PS8B   B27 1796  19.503  16.820  11.374
   52PS8B   B28 1797  19.405  16.747  11.415
   52PS8B   B29 1798  20.177  17.031  11.216
   52PS8B   C30 1799  20.304  16.973  11.196
   52PS8B   C31 1800  20.370  16.877  11.054
   52PS8B   C32 1801  20.445  16.719  11.039
   52PS8B   C33 1802  20.586  16.656  11.121
   53PS8B    C0 1803  14.718  14.745   9.610
   53PS8B    C1 1804  14.756  14.823   9.763
   53PS8B    C2 1805  14.651  14.917   9.867
   53PS8B    C3 1806  14.681  15.057   9.984
   53PS8B    B4 1807  14.764  15.066  10.096
   53PS8B    B5 1808  14.790  15.136  10.229
   53PS8B    B6 1809  14.707  15.214  10.292
   53PS8B    B7 1810  14.579  15.226  10.298
   53PS8B    B8 1811  14.481  15.145  10.313
   53PS8B    B9 1812  14.465  15.028  10.367
   53PS8B   B10 1813  14.531  14.960  10.444
   53PS8B   B11 1814  14.652  14.942  10.465
   53PS8B   B12 1815  14.751  15.019  10.490
   53PS8B   B13 1816  14.765  15.141  10.526
   53PS8B   B14 1817  14.696  15.249  10.511
   53PS8B   B15 1818  14.575  15.276  10.472
   53PS8B   B16 1819  14.612  14.978  10.514
   53PS8B   B17 1820  14.563  15.060  10.514
   53PS8B   B18 1821  14.639  15.052  10.566
   53PS8B   B19 1822  14.459  15.105  10.510
   53PS8B   B20 1823  14.346  15.062  10.557
   53PS8B   B21 1824  14.312  14.980  10.650
   53PS8B   B22 1825  14.245  14.871  10.656
   53PS8B   B23 1826  14.218  14.784  10.748
   53PS8B   B24 1827  14.684  15.081  10.661
   53PS8B   B25 1828  14.759  15.029  10.752
   53PS8B   B26 1829  14.813  14.915  10.771
   53PS8B   B27 1830  14.928  14.863  10.746
   53PS8B   B28 1831  15.017  14.800  10.814
   53PS8B   B29 1832  14.489  15.391  10.519
   53PS8B   C30 1833  14.477  15.531  10.530
   53PS8B   C31 1834  14.573  15.666  10.450
   53PS8B   C32 1835  14.663  15.803  10.511
   53PS8B   C33 1836  14.608  15.933  10.615
   54PS8B    C0 1837   9.400   7.589   5.059
   54PS8B    C1 1838   9.512   7.484   4.976
   54PS8B    C2 1839   9.505   7.423   4.812
   54PS8B    C3 1840   9.566   7.269   4.730
   54PS8B    B4 1841   9.694   7.215   4.721
   54PS8B    B5 1842   9.788   7.124   4.643
   54PS8B    B6 1843   9.767   7.075   4.524
   54PS8B    B7 1844   9.698   7.112   4.422
   54PS8B    B8 1845   9.684   7.222   4.356
   54PS8B    B9 1846   9.756   7.328   4.338
   54PS8B   B10 1847   9.874   7.355   4.355
   54PS8B   B11 1848   9.961   7.323   4.437
   54PS8B   B12 1849  10.008   7.212   4.479
   54PS8B   B13 1850  10.004   7.089   4.440
   54PS8B   B14 1851   9.919   7.019   4.372
   54PS8B   B15 1852   9.815   7.045   4.299
   54PS8B   B16 1853   9.966   7.299   4.368
   54PS8B   B17 1854   9.913   7.242   4.313
   54PS8B   B18 1855   9.996   7.214   4.340
   54PS8B   B19 1856   9.838   7.241   4.227
   54PS8B   B20 1857   9.828   7.317   4.123
   54PS8B   B21 1858   9.910   7.393   4.058
   54PS8B   B22 1859   9.914   7.518   4.028
   54PS8B   B23 1860  10.000   7.595   3.971
   54PS8B   B24 1861  10.084   7.158   4.308
   54PS8B   B25 1862  10.212   7.165   4.320
   54PS8B   B26 1863  10.294   7.247   4.375
   54PS8B   B27 1864  10.354   7.254   4.489
   54PS8B   B28 1865  10.475   7.269   4.528
   54PS8B   B29 1866   9.766   6.967   4.179
   54PS8B   C30 1867   9.722   6.841   4.132
   54PS8B   C31 1868   9.667   6.692   4.224
   54PS8B   C32 1869   9.717   6.524   4.223
   54PS8B   C33 1870   9.725   6.413   4.088
   55PS8B    C0 1871  20.167  17.035  13.754
   55PS8B    C1 1872  20.271  17.053  13.894
   55PS8B    C2 1873  20.263  17.173  14.022
   55PS8B    C3 1874  20.390  17.252  14.130
   55PS8B    B4 1875  20.483  17.195  14.218
   55PS8B    B5 1876  20.570  17.217  14.341
   55PS8B    B6 1877  20.562  17.317  14.424
   55PS8B    B7 1878  20.468  17.397  14.461
   55PS8B    B8 1879  20.346  17.383  14.499
   55PS8B    B9 1880  20.277  17.289  14.554
   55PS8B   B10 1881  20.304  17.184  14.612
   55PS8B   B11 1882  20.394  17.099  14.601
   55PS8B   B12 1883  20.522  17.102  14.602
   55PS8B   B13 1884  20.611  17.189  14.636
   55PS8B   B14 1885  20.615  17.318  14.640
   55PS8B   B15 1886  20.528  17.413  14.633
   55PS8B   B16 1887  20.393  17.143  14.659
   55PS8B   B17 1888  20.401  17.237  14.673
   55PS8B   B18 1889  20.466  17.180  14.704
   55PS8B   B19 1890  20.344  17.333  14.695
   55PS8B   B20 1891  20.239  17.353  14.768
   55PS8B   B21 1892  20.182  17.291  14.866
   55PS8B   B22 1893  20.067  17.239  14.886
   55PS8B   B23 1894  20.014  17.168  14.980
   55PS8B   B24 1895  20.537  17.164  14.786
   55PS8B   B25 1896  20.585  17.066  14.854
   55PS8B   B26 1897  20.565  16.939  14.858
   55PS8B   B27 1898  20.621  16.837  14.804
   55PS8B   B28 1899  20.668  16.726  14.847
   55PS8B   B29 1900  20.535  17.548  14.701
   55PS8B   C30 1901  20.609  17.667  14.717
   55PS8B   C31 1902  20.747  17.736  14.617
   55PS8B   C32 1903  20.910  17.788  14.657
   55PS8B   C33 1904  20.961  17.908  14.773
   56PS8B    C0 1905   6.869  21.507   3.500
   56PS8B    C1 1906   6.849  21.571   3.338
   56PS8B    C2 1907   6.934  21.527   3.191
   56PS8B    C3 1908   6.978  21.620   3.038
   56PS8B    B4 1909   6.898  21.687   2.945
   56PS8B    B5 1910   6.886  21.738   2.802
   56PS8B    B6 1911   6.963  21.707   2.702
   56PS8B    B7 1912   7.036  21.605   2.672
   56PS8B    B8 1913   7.019  21.478   2.672
   56PS8B    B9 1914   6.917  21.398   2.662
   56PS8B   B10 1915   6.801  21.412   2.626
   56PS8B   B11 1916   6.717  21.502   2.634
   56PS8B   B12 1917   6.714  21.626   2.599
   56PS8B   B13 1918   6.785  21.701   2.523
   56PS8B   B14 1919   6.909  21.702   2.487
   56PS8B   B15 1920   7.007  21.618   2.493
   56PS8B   B16 1921   6.745  21.485   2.569
   56PS8B   B17 1922   6.832  21.488   2.531
   56PS8B   B18 1923   6.767  21.544   2.499
   56PS8B   B19 1924   6.923  21.425   2.502
   56PS8B   B20 1925   6.930  21.305   2.456
   56PS8B   B21 1926   6.849  21.226   2.394
   56PS8B   B22 1927   6.798  21.110   2.418
   56PS8B   B23 1928   6.710  21.035   2.361
   56PS8B   B24 1929   6.728  21.591   2.408
   56PS8B   B25 1930   6.614  21.621   2.356
   56PS8B   B26 1931   6.492  21.603   2.389
   56PS8B   B27 1932   6.403  21.673   2.450
   56PS8B   B28 1933   6.282  21.710   2.425
   56PS8B   B29 1934   7.121  21.604   2.394
   56PS8B   C30 1935   7.229  21.669   2.331
   56PS8B   C31 1936   7.313  21.828   2.371
   56PS8B   C32 1937   7.347  21.973   2.280
   56PS8B   C33 1938   7.433  21.990   2.128
   57PS8B    C0 1939  14.456   3.525  18.195
   57PS8B    C1 1940  14.400   3.575  18.353
   57PS8B    C2 1941  14.363   3.476  18.493
   57PS8B    C3 1942  14.244   3.494  18.633
   57PS8B    B4 1943  14.231   3.595  18.729
   57PS8B    B5 1944  14.181   3.632  18.868
   57PS8B    B6 1945  14.145   3.548  18.961
   57PS8B    B7 1946  14.175   3.427  18.991
   57PS8B    B8 1947  14.284   3.360  19.002
   57PS8B    B9 1948  14.408   3.389  19.029
   57PS8B   B10 1949  14.464   3.487  19.075
   57PS8B   B11 1950  14.447   3.609  19.070
   57PS8B   B12 1951  14.349   3.688  19.095
   57PS8B   B13 1952  14.237   3.677  19.158
   57PS8B   B14 1953  14.155   3.579  19.181
   57PS8B   B15 1954  14.160   3.450  19.171
   57PS8B   B16 1955  14.435   3.574  19.133
   57PS8B   B17 1956  14.374   3.507  19.161
   57PS8B   B18 1957  14.367   3.591  19.196
   57PS8B   B19 1958  14.363   3.396  19.185
   57PS8B   B20 1959  14.447   3.313  19.238
   57PS8B   B21 1960  14.551   3.324  19.314
   57PS8B   B22 1961  14.675   3.292  19.304
   57PS8B   B23 1962  14.780   3.312  19.376
   57PS8B   B24 1963  14.343   3.648  19.286
   57PS8B   B25 1964  14.384   3.753  19.348
   57PS8B   B26 1965  14.478   3.839  19.329
   57PS8B   B27 1966  14.486   3.954  19.273
   57PS8B   B28 1967  14.529   4.070  19.308
   57PS8B   B29 1968  14.089   3.349  19.258
   57PS8B   C30 1969  13.964   3.303  19.304
   57PS8B   C31 1970  13.794   3.339  19.243
   57PS8B   C32 1971  13.649   3.400  19.320
   57PS8B   C33 1972  13.563   3.339  19.460
   58PS8B    C0 1973   2.900   3.425  16.310
   58PS8B    C1 1974   2.747   3.371  16.245
   58PS8B    C2 1975   2.595   3.344  16.328
   58PS8B    C3 1976   2.454   3.229  16.299
   58PS8B    B4 1977   2.371   3.212  16.188
   58PS8B    B5 1978   2.235   3.164  16.138
   58PS8B    B6 1979   2.131   3.136  16.211
   58PS8B    B7 1980   2.088   3.175  16.326
   58PS8B    B8 1981   2.073   3.288  16.384
   58PS8B    B9 1982   2.055   3.410  16.345
   58PS8B   B10 1983   2.023   3.463  16.240
   58PS8B   B11 1984   2.042   3.438  16.120
   58PS8B   B12 1985   2.023   3.336  16.045
   58PS8B   B13 1986   1.955   3.227  16.054
   58PS8B   B14 1987   1.918   3.152  16.152
   58PS8B   B15 1988   1.912   3.165  16.281
   58PS8B   B16 1989   1.975   3.430  16.148
   58PS8B   B17 1990   1.937   3.374  16.214
   58PS8B   B18 1991   1.912   3.363  16.127
   58PS8B   B19 1992   1.899   3.371  16.322
   58PS8B   B20 1993   1.839   3.461  16.393
   58PS8B   B21 1994   1.770   3.566  16.366
   58PS8B   B22 1995   1.780   3.691  16.392
   58PS8B   B23 1996   1.716   3.798  16.358
   58PS8B   B24 1997   1.829   3.338  16.061
   58PS8B   B25 1998   1.782   3.375  15.947
   58PS8B   B26 1999   1.814   3.462  15.859
   58PS8B   B27 2000   1.884   3.461  15.751
   58PS8B   B28 2001   1.865   3.499  15.629
   58PS8B   B29 2002   1.811   3.102  16.374
   58PS8B   C30 2003   1.755   2.981  16.421
   58PS8B   C31 2004   1.813   2.808  16.403
   58PS8B   C32 2005   1.739   2.662  16.341
   58PS8B   C33 2006   1.589   2.584  16.390
   59PS8B    C0 2007   6.959   0.755   9.655
   59PS8B    C1 2008   6.847   0.624   9.683
   59PS8B    C2 2009   6.806   0.544   9.834
   59PS8B    C3 2010   6.753   0.373   9.877
   59PS8B    B4 2011   6.643   0.298   9.834
   59PS8B    B5 2012   6.548   0.183   9.865
   59PS8B    B6 2013   6.534   0.124   9.980
   59PS8B    B7 2014   6.553   0.158  10.103
   59PS8B    B8 2015   6.520   0.259  10.175
   59PS8B    B9 2016   6.426   0.349  10.172
   59PS8B   B10 2017   6.319   0.358  10.114
   59PS8B   B11 2018   6.276   0.324  10.003
   59PS8B   B12 2019   6.271   0.213   9.939
   59PS8B   B13 2020   6.285   0.089   9.970
   59PS8B   B14 2021   6.352   0.025  10.060
   59PS8B   B15 2022   6.416   0.057  10.168
   59PS8B   B16 2023   6.252   0.290  10.063
   59PS8B   B17 2024   6.292   0.236  10.130
   59PS8B   B18 2025   6.231   0.199  10.073
   59PS8B   B19 2026   6.329   0.236  10.238
   59PS8B   B20 2027   6.286   0.298  10.343
   59PS8B   B21 2028   6.174   0.351  10.377
   59PS8B   B22 2029   6.134   0.469  10.410
   59PS8B   B23 2030   6.020   0.523  10.435
   59PS8B   B24 2031   6.150   0.126  10.065
   59PS8B   B25 2032   6.036   0.113  10.006
   59PS8B   B26 2033   5.965   0.188   9.930
   59PS8B   B27 2034   5.950   0.200   9.803
   59PS8B   B28 2035   5.851   0.200   9.722
   59PS8B   B29 2036   6.433  -0.027  10.292
   59PS8B   C30 2037   6.481  -0.149  10.345
   59PS8B   C31 2038   6.594  -0.274  10.272
   59PS8B   C32 2039   6.581  -0.446  10.244
   59PS8B   C33 2040   6.548  -0.574  10.359
   60PS8B    C0 2041  13.823  21.245   9.811
   60PS8B    C1 2042  13.663  21.176   9.825
   60PS8B    C2 2043  13.591  21.093   9.961
   60PS8B    C3 2044  13.464  20.959   9.976
   60PS8B    B4 2045  13.332  20.954   9.931
   60PS8B    B5 2046  13.195  20.890   9.950
   60PS8B    B6 2047  13.155  20.820  10.052
   60PS8B    B7 2048  13.188  20.815  10.177
   60PS8B    B8 2049  13.206  20.902  10.270
   60PS8B    B9 2050  13.165  21.022  10.293
   60PS8B   B10 2051  13.074  21.092  10.249
   60PS8B   B11 2052  13.019  21.105  10.139
   60PS8B   B12 2053  12.963  21.025  10.056
   60PS8B   B13 2054  12.918  20.905  10.061
   60PS8B   B14 2055  12.948  20.800  10.130
   60PS8B   B15 2056  13.020  20.776  10.235
   60PS8B   B16 2057  12.982  21.074  10.193
   60PS8B   B17 2058  12.993  20.995  10.245
   60PS8B   B18 2059  12.922  21.002  10.188
   60PS8B   B19 2060  13.027  20.955  10.347
   60PS8B   B20 2061  13.017  21.006  10.465
   60PS8B   B21 2062  12.942  21.095  10.520
   60PS8B   B22 2063  12.962  21.207  10.578
   60PS8B   B23 2064  12.886  21.300  10.625
   60PS8B   B24 2065  12.816  20.977  10.175
   60PS8B   B25 2066  12.710  21.030  10.127
   60PS8B   B26 2067  12.680  21.143  10.073
   60PS8B   B27 2068  12.673  21.188   9.953
   60PS8B   B28 2069  12.584  21.250   9.884
   60PS8B   B29 2070  12.996  20.668  10.339
   60PS8B   C30 2071  12.983  20.530  10.363
   60PS8B   C31 2072  13.025  20.386  10.256
   60PS8B   C32 2073  12.934  20.249  10.197
   60PS8B   C33 2074  12.845  20.128  10.288
   61PS8B    C0 2075  20.875  14.896   6.417
   61PS8B    C1 2076  20.803  14.836   6.566
   61PS8B    C2 2077  20.824  14.680   6.642
   61PS8B    C3 2078  20.715  14.575   6.749
   61PS8B    B4 2079  20.653  14.603   6.871
   61PS8B    B5 2080  20.594  14.544   6.998
   61PS8B    B6 2081  20.607  14.422   7.040
   61PS8B    B7 2082  20.695  14.329   7.025
   61PS8B    B8 2083  20.824  14.323   7.032
   61PS8B    B9 2084  20.915  14.390   7.095
   61PS8B   B10 2085  20.915  14.470   7.188
   61PS8B   B11 2086  20.837  14.558   7.228
   61PS8B   B12 2087  20.713  14.561   7.260
   61PS8B   B13 2088  20.624  14.472   7.286
   61PS8B   B14 2089  20.603  14.350   7.250
   61PS8B   B15 2090  20.673  14.259   7.191
   61PS8B   B16 2091  20.846  14.497   7.267
   61PS8B   B17 2092  20.828  14.404   7.252
   61PS8B   B18 2093  20.780  14.450   7.315
   61PS8B   B19 2094  20.876  14.304   7.227
   61PS8B   B20 2095  20.991  14.255   7.260
   61PS8B   B21 2096  21.076  14.277   7.355
   61PS8B   B22 2097  21.199  14.314   7.360
   61PS8B   B23 2098  21.280  14.345   7.455
   61PS8B   B24 2099  20.731  14.441   7.412
   61PS8B   B25 2100  20.714  14.512   7.518
   61PS8B   B26 2101  20.750  14.629   7.557
   61PS8B   B27 2102  20.698  14.746   7.554
   61PS8B   B28 2103  20.676  14.838   7.641
   61PS8B   B29 2104  20.664  14.109   7.212
   61PS8B   C30 2105  20.581  13.996   7.208
   61PS8B   C31 2106  20.416  13.972   7.130
   61PS8B   C32 2107  20.261  13.917   7.191
   61PS8B   C33 2108  20.221  13.767   7.272
   62PS8B    C0 2109  15.885  19.332  15.545
   62PS8B    C1 2110  15.942  19.211  15.432
   62PS8B    C2 2111  15.968  19.040  15.458
   62PS8B    C3 2112  16.085  18.917  15.385
   62PS8B    B4 2113  16.103  18.877  15.252
   62PS8B    B5 2114  16.152  18.767  15.159
   62PS8B    B6 2115  16.181  18.644  15.192
   62PS8B    B7 2116  16.141  18.565  15.286
   62PS8B    B8 2117  16.027  18.529  15.334
   62PS8B    B9 2118  15.906  18.526  15.290
   62PS8B   B10 2119  15.855  18.531  15.179
   62PS8B   B11 2120  15.881  18.590  15.073
   62PS8B   B12 2121  15.983  18.598  14.997
   62PS8B   B13 2122  16.093  18.532  14.984
   62PS8B   B14 2123  16.167  18.463  15.065
   62PS8B   B15 2124  16.153  18.414  15.184
   62PS8B   B16 2125  15.889  18.518  15.077
   62PS8B   B17 2126  15.945  18.459  15.127
   62PS8B   B18 2127  15.957  18.466  15.036
   62PS8B   B19 2128  15.947  18.387  15.215
   62PS8B   B20 2129  15.857  18.306  15.260
   62PS8B   B21 2130  15.752  18.249  15.211
   62PS8B   B22 2131  15.627  18.250  15.237
   62PS8B   B23 2132  15.521  18.201  15.182
   62PS8B   B24 2133  15.982  18.410  14.946
   62PS8B   B25 2134  15.947  18.405  14.823
   62PS8B   B26 2135  15.860  18.465  14.750
   62PS8B   B27 2136  15.862  18.567  14.673
   62PS8B   B28 2137  15.826  18.591  14.551
   62PS8B   B29 2138  16.216  18.287  15.238
   62PS8B   C30 2139  16.337  18.219  15.264
   62PS8B   C31 2140  16.510  18.280  15.269
   62PS8B   C32 2141  16.657  18.233  15.187
   62PS8B   C33 2142  16.735  18.076  15.183
   63PS8B    C0 2143  10.972   8.876  12.440
   63PS8B    C1 2144  11.038   8.907  12.599
   63PS8B    C2 2145  11.144   8.807  12.696
   63PS8B    C3 2146  11.167   8.785  12.878
   63PS8B    B4 2147  11.200   8.877  12.977
   63PS8B    B5 2148  11.260   8.897  13.116
   63PS8B    B6 2149  11.329   8.810  13.184
   63PS8B    B7 2150  11.403   8.710  13.154
   63PS8B    B8 2151  11.498   8.688  13.070
   63PS8B    B9 2152  11.587   8.762  13.010
   63PS8B   B10 2153  11.629   8.875  13.027
   63PS8B   B11 2154  11.581   8.982  13.066
   63PS8B   B12 2155  11.516   9.020  13.170
   63PS8B   B13 2156  11.494   8.970  13.286
   63PS8B   B14 2157  11.487   8.851  13.334
   63PS8B   B15 2158  11.518   8.733  13.292
   63PS8B   B16 2159  11.628   8.947  13.108
   63PS8B   B17 2160  11.629   8.863  13.153
   63PS8B   B18 2161  11.627   8.941  13.202
   63PS8B   B19 2162  11.671   8.757  13.149
   63PS8B   B20 2163  11.785   8.713  13.108
   63PS8B   B21 2164  11.902   8.765  13.091
   63PS8B   B22 2165  11.982   8.780  12.991
   63PS8B   B23 2166  12.094   8.840  12.973
   63PS8B   B24 2167  11.662   8.988  13.294
   63PS8B   B25 2168  11.704   9.103  13.334
   63PS8B   B26 2169  11.725   9.216  13.278
   63PS8B   B27 2170  11.657   9.324  13.263
   63PS8B   B28 2171  11.677   9.449  13.286
   63PS8B   B29 2172  11.565   8.615  13.376
   63PS8B   C30 2173  11.533   8.528  13.482
   63PS8B   C31 2174  11.372   8.496  13.566
   63PS8B   C32 2175  11.320   8.503  13.733
   63PS8B   C33 2176  11.386   8.419  13.873
   64PS8B    C0 2177  18.934  11.778  16.355
   64PS8B    C1 2178  18.846  11.925  16.393
   64PS8B    C2 2179  18.746  12.023  16.288
   64PS8B    C3 2180  18.706  12.203  16.283
   64PS8B    B4 2181  18.648  12.286  16.379
   64PS8B    B5 2182  18.571  12.415  16.405
   64PS8B    B6 2183  18.509  12.487  16.316
   64PS8B    B7 2184  18.455  12.463  16.201
   64PS8B    B8 2185  18.374  12.374  16.155
   64PS8B    B9 2186  18.283  12.298  16.206
   64PS8B   B10 2187  18.222  12.296  16.312
   64PS8B   B11 2188  18.249  12.324  16.429
   64PS8B   B12 2189  18.295  12.428  16.488
   64PS8B   B13 2190  18.310  12.552  16.457
   64PS8B   B14 2191  18.330  12.615  16.346
   64PS8B   B15 2192  18.322  12.586  16.220
   64PS8B   B16 2193  18.202  12.366  16.392
   64PS8B   B17 2194  18.209  12.421  16.314
   64PS8B   B18 2195  18.194  12.460  16.396
   64PS8B   B19 2196  18.185  12.427  16.203
   64PS8B   B20 2197  18.084  12.382  16.136
   64PS8B   B21 2198  17.963  12.347  16.165
   64PS8B   B22 2199  17.895  12.239  16.156
   64PS8B   B23 2200  17.777  12.203  16.194
   64PS8B   B24 2201  18.142  12.542  16.447
   64PS8B   B25 2202  18.079  12.562  16.557
   64PS8B   B26 2203  18.047  12.490  16.658
   64PS8B   B27 2204  18.099  12.468  16.773
   64PS8B   B28 2205  18.057  12.472  16.895
   64PS8B   B29 2206  18.285  12.680  16.107
   64PS8B   C30 2207  18.318  12.799  16.039
   64PS8B   C31 2208  18.471  12.901  16.044
   64PS8B   C32 2209  18.502  13.070  16.078
   64PS8B   C33 2210  18.434  13.212  16.000
   65PS8B    C0 2211   7.752  13.127   1.058
   65PS8B    C1 2212   7.700  13.115   0.891
   65PS8B    C2 2213   7.637  13.241   0.787
   65PS8B    C3 2214   7.519  13.241   0.645
   65PS8B    B4 2215   7.522  13.172   0.524
   65PS8B    B5 2216   7.475  13.169   0.379
   65PS8B    B6 2217   7.418  13.267   0.314
   65PS8B    B7 2218   7.421  13.395   0.323
   65PS8B    B8 2219   7.513  13.484   0.334
   65PS8B    B9 2220   7.638  13.491   0.303
   65PS8B   B10 2221   7.712  13.426   0.230
   65PS8B   B11 2222   7.721  13.307   0.198
   65PS8B   B12 2223   7.641  13.221   0.148
   65PS8B   B13 2224   7.526  13.226   0.090
   65PS8B   B14 2225   7.425  13.306   0.095
   65PS8B   B15 2226   7.403  13.424   0.144
   65PS8B   B16 2227   7.699  13.356   0.149
   65PS8B   B17 2228   7.624  13.414   0.141
   65PS8B   B18 2229   7.634  13.344   0.082
   65PS8B   B19 2230   7.590  13.522   0.151
   65PS8B   B20 2231   7.651  13.633   0.126
   65PS8B   B21 2232   7.752  13.667   0.053
   65PS8B   B22 2233   7.867  13.721   0.075
   65PS8B   B23 2234   7.970  13.746   0.003
   65PS8B   B24 2235   7.618  13.313  -0.021
   65PS8B   B25 2236   7.678  13.243  -0.111
   65PS8B   B26 2237   7.788  13.177  -0.117
   65PS8B   B27 2238   7.822  13.055  -0.098
   65PS8B   B28 2239   7.887  12.967  -0.166
   65PS8B   B29 2240   7.308  13.528   0.090
   65PS8B   C30 2241   7.174  13.558   0.057
   65PS8B   C31 2242   7.019  13.471   0.101
   65PS8B   C32 2243   6.886  13.405   0.006
   65PS8B   C33 2244   6.784  13.486  -0.110
   66PS8B    C0 2245   1.553  15.151  13.677
   66PS8B    C1 2246   1.558  15.326  13.670
   66PS8B    C2 2247   1.663  15.436  13.756
   66PS8B    C3 2248   1.643  15.610  13.817
   66PS8B    B4 2249   1.613  15.727  13.748
   66PS8B    B5 2250   1.623  15.879  13.747
   66PS8B    B6 2251   1.697  15.952  13.825
   66PS8B    B7 2252   1.807  15.934  13.889
   66PS8B    B8 2253   1.923  15.885  13.859
   66PS8B    B9 2254   1.992  15.871  13.751
   66PS8B   B10 2255   1.985  15.918  13.638
   66PS8B   B11 2256   1.893  15.954  13.563
   66PS8B   B12 2257   1.794  16.034  13.574
   66PS8B   B13 2258   1.761  16.128  13.656
   66PS8B   B14 2259   1.784  16.152  13.781
   66PS8B   B15 2260   1.865  16.105  13.870
   66PS8B   B16 2261   1.937  16.004  13.593
   66PS8B   B17 2262   1.955  16.033  13.681
   66PS8B   B18 2263   1.913  16.090  13.623
   66PS8B   B19 2264   2.032  16.028  13.766
   66PS8B   B20 2265   2.161  16.021  13.763
   66PS8B   B21 2266   2.252  16.053  13.678
   66PS8B   B22 2267   2.344  15.989  13.615
   66PS8B   B23 2268   2.429  16.019  13.522
   66PS8B   B24 2269   1.903  16.194  13.594
   66PS8B   B25 2270   1.889  16.263  13.486
   66PS8B   B26 2271   1.882  16.236  13.361
   66PS8B   B27 2272   1.787  16.215  13.277
   66PS8B   B28 2273   1.755  16.262  13.161
   66PS8B   B29 2274   1.926  16.181  13.986
   66PS8B   C30 2275   1.900  16.255  14.103
   66PS8B   C31 2276   1.745  16.274  14.200
   66PS8B   C32 2277   1.652  16.413  14.252
   66PS8B   C33 2278   1.703  16.551  14.346
   67PS8B    C0 2279   7.407   0.989  11.263
   67PS8B    C1 2280   7.497   0.909  11.136
   67PS8B    C2 2281   7.438   0.844  10.984
   67PS8B    C3 2282   7.493   0.704  10.877
   67PS8B    B4 2283   7.615   0.680  10.814
   67PS8B    B5 2284   7.687   0.609  10.700
   67PS8B    B6 2285   7.631   0.553  10.597
   67PS8B    B7 2286   7.521   0.571  10.532
   67PS8B    B8 2287   7.458   0.673  10.484
   67PS8B    B9 2288   7.492   0.792  10.445
   67PS8B   B10 2289   7.598   0.845  10.415
   67PS8B   B11 2290   7.715   0.836  10.454
   67PS8B   B12 2291   7.798   0.739  10.468
   67PS8B   B13 2292   7.805   0.618  10.426
   67PS8B   B14 2293   7.718   0.528  10.394
   67PS8B   B15 2294   7.591   0.528  10.370
   67PS8B   B16 2295   7.698   0.811  10.388
   67PS8B   B17 2296   7.640   0.742  10.355
   67PS8B   B18 2297   7.731   0.734  10.345
   67PS8B   B19 2298   7.540   0.722  10.306
   67PS8B   B20 2299   7.473   0.790  10.219
   67PS8B   B21 2300   7.502   0.880  10.132
   67PS8B   B22 2301   7.468   1.002  10.111
   67PS8B   B23 2302   7.504   1.095  10.029
   67PS8B   B24 2303   7.810   0.699  10.278
   67PS8B   B25 2304   7.927   0.734  10.238
   67PS8B   B26 2305   8.004   0.834  10.261
   67PS8B   B27 2306   8.100   0.858  10.342
   67PS8B   B28 2307   8.221   0.901  10.331
   67PS8B   B29 2308   7.516   0.437  10.274
   67PS8B   C30 2309   7.485   0.303  10.241
   67PS8B   C31 2310   7.505   0.148  10.338
   67PS8B   C32 2311   7.586  -0.004  10.307
   67PS8B   C33 2312   7.563  -0.115  10.173
   68PS8B    C0 2313   7.782  23.375  18.525
   68PS8B    C1 2314   7.733  23.217  18.467
   68PS8B    C2 2315   7.818  23.064  18.479
   68PS8B    C3 2316   7.823  22.913  18.374
   68PS8B    B4 2317   7.720  22.827  18.333
   68PS8B    B5 2318   7.684  22.687  18.285
   68PS8B    B6 2319   7.761  22.582  18.288
   68PS8B    B7 2320   7.859  22.544  18.362
   68PS8B    B8 2321   7.883  22.540  18.488
   68PS8B    B9 2322   7.810  22.532  18.595
   68PS8B   B10 2323   7.693  22.503  18.617
   68PS8B   B11 2324   7.586  22.518  18.557
   68PS8B   B12 2325   7.543  22.489  18.440
   68PS8B   B13 2326   7.583  22.413  18.344
   68PS8B   B14 2327   7.698  22.370  18.305
   68PS8B   B15 2328   7.817  22.367  18.355
   68PS8B   B16 2329   7.614  22.452  18.563
   68PS8B   B17 2330   7.693  22.410  18.532
   68PS8B   B18 2331   7.612  22.383  18.499
   68PS8B   B19 2332   7.797  22.373  18.564
   68PS8B   B20 2333   7.838  22.322  18.675
   68PS8B   B21 2334   7.781  22.262  18.774
   68PS8B   B22 2335   7.770  22.284  18.901
   68PS8B   B23 2336   7.705  22.228  18.997
   68PS8B   B24 2337   7.555  22.297  18.464
   68PS8B   B25 2338   7.435  22.251  18.470
   68PS8B   B26 2339   7.326  22.290  18.525
   68PS8B   B27 2340   7.224  22.358  18.487
   68PS8B   B28 2341   7.096  22.341  18.489
   68PS8B   B29 2342   7.924  22.262  18.331
   68PS8B   C30 2343   8.003  22.196  18.234
   68PS8B   C31 2344   8.036  22.239  18.058
   68PS8B   C32 2345   8.018  22.151  17.908
   68PS8B   C33 2346   8.086  21.996  17.861
   69PS8B    C0 2347   9.579   8.386   3.682
   69PS8B    C1 2348   9.637   8.486   3.550
   69PS8B    C2 2349   9.609   8.656   3.519
   69PS8B    C3 2350   9.600   8.757   3.365
   69PS8B    B4 2351   9.693   8.777   3.263
   69PS8B    B5 2352   9.740   8.869   3.151
   69PS8B    B6 2353   9.703   8.992   3.132
   69PS8B    B7 2354   9.660   9.087   3.207
   69PS8B    B8 2355   9.695   9.138   3.320
   69PS8B    B9 2356   9.806   9.146   3.386
   69PS8B   B10 2357   9.924   9.129   3.358
   69PS8B   B11 2358   9.987   9.054   3.282
   69PS8B   B12 2359   9.981   9.028   3.157
   69PS8B   B13 2360   9.925   9.082   3.054
   69PS8B   B14 2361   9.820   9.154   3.036
   69PS8B   B15 2362   9.739   9.220   3.112
   69PS8B   B16 2363   9.983   9.126   3.266
   69PS8B   B17 2364   9.912   9.185   3.245
   69PS8B   B18 2365   9.974   9.165   3.181
   69PS8B   B19 2366   9.846   9.269   3.287
   69PS8B   B20 2367   9.872   9.362   3.372
   69PS8B   B21 2368   9.979   9.420   3.414
   69PS8B   B22 2369  10.037   9.434   3.528
   69PS8B   B23 2370  10.149   9.484   3.567
   69PS8B   B24 2371  10.031   9.206   3.098
   69PS8B   B25 2372  10.149   9.198   3.048
   69PS8B   B26 2373  10.257   9.136   3.079
   69PS8B   B27 2374  10.311   9.024   3.046
   69PS8B   B28 2375  10.426   8.987   3.002
   69PS8B   B29 2376   9.664   9.347   3.078
   69PS8B   C30 2377   9.572   9.408   2.991
   69PS8B   C31 2378   9.456   9.333   2.869
   69PS8B   C32 2379   9.429   9.357   2.697
   69PS8B   C33 2380   9.392   9.505   2.611
   70PS8B    C0 2381   1.409   1.131  12.163
   70PS8B    C1 2382   1.238   1.107  12.194
   70PS8B    C2 2383   1.132   1.196  12.301
   70PS8B    C3 2384   0.981   1.151  12.397
   70PS8B    B4 2385   0.858   1.098  12.355
   70PS8B    B5 2386   0.710   1.083  12.387
   70PS8B    B6 2387   0.643   1.147  12.478
   70PS8B    B7 2388   0.655   1.262  12.534
   70PS8B    B8 2389   0.676   1.383  12.494
   70PS8B    B9 2390   0.655   1.448  12.384
   70PS8B   B10 2391   0.588   1.428  12.284
   70PS8B   B11 2392   0.553   1.327  12.220
   70PS8B   B12 2393   0.495   1.217  12.249
   70PS8B   B13 2394   0.428   1.173  12.349
   70PS8B   B14 2395   0.427   1.198  12.475
   70PS8B   B15 2396   0.476   1.290  12.552
   70PS8B   B16 2397   0.504   1.364  12.259
   70PS8B   B17 2398   0.491   1.382  12.351
   70PS8B   B18 2399   0.432   1.327  12.307
   70PS8B   B19 2400   0.501   1.462  12.432
   70PS8B   B20 2401   0.484   1.590  12.426
   70PS8B   B21 2402   0.420   1.670  12.348
   70PS8B   B22 2403   0.453   1.768  12.272
   70PS8B   B23 2404   0.390   1.842  12.187
   70PS8B   B24 2405   0.326   1.299  12.300
   70PS8B   B25 2406   0.240   1.268  12.210
   70PS8B   B26 2407   0.242   1.260  12.082
   70PS8B   B27 2408   0.261   1.166  11.997
   70PS8B   B28 2409   0.197   1.121  11.894
   70PS8B   B29 2410   0.417   1.343  12.681
   70PS8B   C30 2411   0.374   1.311  12.811
   70PS8B   C31 2412   0.403   1.160  12.912
   70PS8B   C32 2413   0.296   1.047  12.994
   70PS8B   C33 2414   0.174   1.080  13.114
   71PS8B    C0 2415  20.533   9.723  17.884
   71PS8B    C1 2416  20.665   9.713  18.000
   71PS8B    C2 2417  20.793   9.828  18.030
   71PS8B    C3 2418  20.968   9.812  18.088
   71PS8B    B4 2419  21.020   9.755  18.204
   71PS8B    B5 2420  21.137   9.753  18.302
   71PS8B    B6 2421  21.235   9.839  18.308
   71PS8B    B7 2422  21.248   9.963  18.277
   71PS8B    B8 2423  21.179  10.070  18.298
   71PS8B    B9 2424  21.094  10.109  18.387
   71PS8B   B10 2425  21.062  10.069  18.499
   71PS8B   B11 2426  21.054   9.958  18.553
   71PS8B   B12 2427  21.134   9.859  18.570
   71PS8B   B13 2428  21.261   9.842  18.559
   71PS8B   B14 2429  21.354   9.895  18.487
   71PS8B   B15 2430  21.363  10.001  18.412
   71PS8B   B16 2431  21.106  10.004  18.574
   71PS8B   B17 2432  21.181  10.043  18.530
   71PS8B   B18 2433  21.195   9.982  18.598
   71PS8B   B19 2434  21.221  10.139  18.484
   71PS8B   B20 2435  21.201  10.263  18.514
   71PS8B   B21 2436  21.163  10.325  18.621
   71PS8B   B22 2437  21.065  10.402  18.651
   71PS8B   B23 2438  21.022  10.457  18.760
   71PS8B   B24 2439  21.259   9.957  18.682
   71PS8B   B25 2440  21.248   9.909  18.801
   71PS8B   B26 2441  21.150   9.872  18.875
   71PS8B   B27 2442  21.092   9.760  18.901
   71PS8B   B28 2443  21.062   9.695  19.007
   71PS8B   B29 2444  21.488  10.084  18.389
   71PS8B   C30 2445  21.620  10.084  18.342
   71PS8B   C31 2446  21.712   9.960  18.242
   71PS8B   C32 2447  21.862   9.873  18.265
   71PS8B   C33 2448  22.023   9.937  18.294
   72PS8B    C0 2449  22.241  21.072   7.434
   72PS8B    C1 2450  22.152  21.026   7.578
   72PS8B    C2 2451  22.205  20.927   7.712
   72PS8B    C3 2452  22.117  20.815   7.830
   72PS8B    B4 2453  22.012  20.839   7.917
   72PS8B    B5 2454  21.940  20.795   8.044
   72PS8B    B6 2455  21.985  20.711   8.133
   72PS8B    B7 2456  22.102  20.674   8.172
   72PS8B    B8 2457  22.211  20.735   8.205
   72PS8B    B9 2458  22.240  20.852   8.251
   72PS8B   B10 2459  22.176  20.943   8.303
   72PS8B   B11 2460  22.061  20.987   8.290
   72PS8B   B12 2461  21.944  20.937   8.295
   72PS8B   B13 2462  21.893  20.826   8.337
   72PS8B   B14 2463  21.937  20.706   8.350
   72PS8B   B15 2464  22.054  20.649   8.346
   72PS8B   B16 2465  22.079  20.951   8.351
   72PS8B   B17 2466  22.106  20.862   8.370
   72PS8B   B18 2467  22.025  20.893   8.400
   72PS8B   B19 2468  22.195  20.797   8.397
   72PS8B   B20 2469  22.301  20.822   8.467
   72PS8B   B21 2470  22.331  20.907   8.559
   72PS8B   B22 2471  22.419  21.000   8.572
   72PS8B   B23 2472  22.442  21.091   8.660
   72PS8B   B24 2473  21.953  20.887   8.483
   72PS8B   B25 2474  21.874  20.965   8.547
   72PS8B   B26 2475  21.845  21.090   8.541
   72PS8B   B27 2476  21.754  21.160   8.483
   72PS8B   B28 2477  21.669  21.249   8.521
   72PS8B   B29 2478  22.098  20.527   8.423
   72PS8B   C30 2479  22.074  20.390   8.448
   72PS8B   C31 2480  21.970  20.268   8.358
   72PS8B   C32 2481  21.840  20.162   8.406
   72PS8B   C33 2482  21.837  20.040   8.531
   73PS8B    C0 2483  18.437  22.178  11.549
   73PS8B    C1 2484  18.278  22.207  11.481
   73PS8B    C2 2485  18.235  22.297  11.337
   73PS8B    C3 2486  18.086  22.394  11.288
   73PS8B    B4 2487  17.952  22.357  11.279
   73PS8B    B5 2488  17.817  22.386  11.215
   73PS8B    B6 2489  17.795  22.465  11.113
   73PS8B    B7 2490  17.864  22.505  11.013
   73PS8B    B8 2491  17.940  22.448  10.925
   73PS8B    B9 2492  17.948  22.329  10.875
   73PS8B   B10 2493  17.875  22.231  10.873
   73PS8B   B11 2494  17.793  22.181  10.951
   73PS8B   B12 2495  17.689  22.224  11.013
   73PS8B   B13 2496  17.614  22.328  11.003
   73PS8B   B14 2497  17.631  22.450  10.964
   73PS8B   B15 2498  17.723  22.513  10.898
   73PS8B   B16 2499  17.769  22.213  10.890
   73PS8B   B17 2500  17.772  22.302  10.855
   73PS8B   B18 2501  17.691  22.264  10.878
   73PS8B   B19 2502  17.823  22.370  10.779
   73PS8B   B20 2503  17.871  22.345  10.662
   73PS8B   B21 2504  17.851  22.254  10.573
   73PS8B   B22 2505  17.924  22.166  10.515
   73PS8B   B23 2506  17.902  22.069  10.433
   73PS8B   B24 2507  17.585  22.259  10.852
   73PS8B   B25 2508  17.491  22.172  10.849
   73PS8B   B26 2509  17.482  22.046  10.874
   73PS8B   B27 2510  17.448  21.976  10.976
   73PS8B   B28 2511  17.365  21.880  10.998
   73PS8B   B29 2512  17.704  22.631  10.805
   73PS8B   C30 2513  17.657  22.763  10.793
   73PS8B   C31 2514  17.613  22.886  10.923
   73PS8B   C32 2515  17.469  22.980  10.955
   73PS8B   C33 2516  17.384  23.092  10.850
   74PS8B    C0 2517   5.766  14.229  22.833
   74PS8B    C1 2518   5.920  14.296  22.784
   74PS8B    C2 2519   5.957  14.459  22.730
   74PS8B    C3 2520   6.083  14.529  22.615
   74PS8B    B4 2521   6.222  14.522  22.618
   74PS8B    B5 2522   6.353  14.587  22.574
   74PS8B    B6 2523   6.366  14.707  22.524
   74PS8B    B7 2524   6.301  14.817  22.533
   74PS8B    B8 2525   6.251  14.886  22.630
   74PS8B    B9 2526   6.277  14.899  22.756
   74PS8B   B10 2527   6.371  14.869  22.828
   74PS8B   B11 2528   6.454  14.777  22.831
   74PS8B   B12 2529   6.536  14.727  22.747
   74PS8B   B13 2530   6.586  14.764  22.634
   74PS8B   B14 2531   6.544  14.839  22.538
   74PS8B   B15 2532   6.448  14.924  22.521
   74PS8B   B16 2533   6.476  14.844  22.813
   74PS8B   B17 2534   6.456  14.903  22.741
   74PS8B   B18 2535   6.540  14.867  22.748
   74PS8B   B19 2536   6.398  14.998  22.713
   74PS8B   B20 2537   6.371  15.103  22.781
   74PS8B   B21 2538   6.422  15.161  22.885
   74PS8B   B22 2539   6.379  15.192  23.002
   74PS8B   B23 2540   6.432  15.241  23.108
   74PS8B   B24 2541   6.646  14.887  22.733
   74PS8B   B25 2542   6.758  14.860  22.791
   74PS8B   B26 2543   6.794  14.798  22.897
   74PS8B   B27 2544   6.832  14.679  22.924
   74PS8B   B28 2545   6.932  14.626  22.986
   74PS8B   B29 2546   6.449  15.047  22.433
   74PS8B   C30 2547   6.464  15.096  22.302
   74PS8B   C31 2548   6.463  15.008  22.141
   74PS8B   C32 2549   6.576  15.000  22.007
   74PS8B   C33 2550   6.644  15.130  21.912
   75PS8B    C0 2551   8.743   2.619  11.537
   75PS8B    C1 2552   8.656   2.468  11.552
   75PS8B    C2 2553   8.522   2.408  11.456
   75PS8B    C3 2554   8.379   2.297  11.492
   75PS8B    B4 2555   8.375   2.166  11.539
   75PS8B    B5 2556   8.294   2.037  11.547
   75PS8B    B6 2557   8.188   2.008  11.477
   75PS8B    B7 2558   8.142   2.044  11.363
   75PS8B    B8 2559   8.191   2.055  11.244
   75PS8B    B9 2560   8.290   2.001  11.180
   75PS8B   B10 2561   8.360   1.902  11.197
   75PS8B   B11 2562   8.406   1.843  11.296
   75PS8B   B12 2563   8.355   1.794  11.403
   75PS8B   B13 2564   8.237   1.763  11.443
   75PS8B   B14 2565   8.118   1.806  11.416
   75PS8B   B15 2566   8.066   1.883  11.325
   75PS8B   B16 2567   8.353   1.812  11.257
   75PS8B   B17 2568   8.263   1.832  11.237
   75PS8B   B18 2569   8.282   1.759  11.289
   75PS8B   B19 2570   8.192   1.872  11.157
   75PS8B   B20 2571   8.196   1.860  11.028
   75PS8B   B21 2572   8.250   1.777  10.946
   75PS8B   B22 2573   8.336   1.786  10.850
   75PS8B   B23 2574   8.397   1.701  10.775
   75PS8B   B24 2575   8.252   1.657  11.312
   75PS8B   B25 2576   8.306   1.544  11.340
   75PS8B   B26 2577   8.427   1.501  11.349
   75PS8B   B27 2578   8.511   1.486  11.446
   75PS8B   B28 2579   8.584   1.389  11.489
   75PS8B   B29 2580   7.926   1.873  11.267
   75PS8B   C30 2581   7.788   1.876  11.296
   75PS8B   C31 2582   7.698   1.931  11.446
   75PS8B   C32 2583   7.582   1.854  11.552
   75PS8B   C33 2584   7.428   1.781  11.512
   76PS8B    C0 2585   8.981   0.137   4.853
   76PS8B    C1 2586   8.957   0.253   4.724
   76PS8B    C2 2587   9.070   0.305   4.600
   76PS8B    C3 2588   9.093   0.462   4.507
   76PS8B    B4 2589   9.005   0.533   4.425
   76PS8B    B5 2590   8.991   0.633   4.311
   76PS8B    B6 2591   9.086   0.673   4.232
   76PS8B    B7 2592   9.196   0.622   4.189
   76PS8B    B8 2593   9.232   0.508   4.140
   76PS8B    B9 2594   9.172   0.413   4.076
   76PS8B   B10 2595   9.065   0.403   4.017
   76PS8B   B11 2596   8.951   0.451   4.032
   76PS8B   B12 2597   8.904   0.569   4.043
   76PS8B   B13 2598   8.948   0.688   4.021
   76PS8B   B14 2599   9.065   0.743   4.022
   76PS8B   B15 2600   9.187   0.700   4.025
   76PS8B   B16 2601   8.992   0.473   3.976
   76PS8B   B17 2602   9.075   0.519   3.967
   76PS8B   B18 2603   8.997   0.559   3.939
   76PS8B   B19 2604   9.186   0.505   3.943
   76PS8B   B20 2605   9.246   0.425   3.863
   76PS8B   B21 2606   9.211   0.358   3.758
   76PS8B   B22 2607   9.208   0.233   3.726
   76PS8B   B23 2608   9.164   0.167   3.624
   76PS8B   B24 2609   8.955   0.625   3.864
   76PS8B   B25 2610   8.846   0.637   3.796
   76PS8B   B26 2611   8.737   0.570   3.786
   76PS8B   B27 2612   8.621   0.576   3.841
   76PS8B   B28 2613   8.500   0.580   3.798
   76PS8B   B29 2614   9.309   0.765   3.962
   76PS8B   C30 2615   9.389   0.881   3.958
   76PS8B   C31 2616   9.398   1.025   4.072
   76PS8B   C32 2617   9.382   1.198   4.049
   76PS8B   C33 2618   9.472   1.304   3.942
   77PS8B    C0 2619  11.118  11.100  21.823
   77PS8B    C1 2620  11.055  11.055  21.981
   77PS8B    C2 2621  11.131  11.072  22.138
   77PS8B    C3 2622  11.120  10.977  22.295
   77PS8B    B4 2623  11.010  10.947  22.376
   77PS8B    B5 2624  10.962  10.909  22.516
   77PS8B    B6 2625  11.032  10.916  22.625
   77PS8B    B7 2626  11.131  10.987  22.665
   77PS8B    B8 2627  11.161  11.112  22.664
   77PS8B    B9 2628  11.093  11.222  22.660
   77PS8B   B10 2629  10.976  11.252  22.679
   77PS8B   B11 2630  10.867  11.196  22.660
   77PS8B   B12 2631  10.816  11.084  22.693
   77PS8B   B13 2632  10.846  10.991  22.778
   77PS8B   B14 2633  10.956  10.949  22.831
   77PS8B   B15 2634  11.077  10.993  22.839
   77PS8B   B16 2635  10.891  11.205  22.728
   77PS8B   B17 2636  10.966  11.174  22.778
   77PS8B   B18 2637  10.882  11.146  22.801
   77PS8B   B19 2638  11.068  11.203  22.819
   77PS8B   B20 2639  11.112  11.315  22.866
   77PS8B   B21 2640  11.057  11.420  22.916
   77PS8B   B22 2641  11.054  11.545  22.886
   77PS8B   B23 2642  10.991  11.648  22.931
   77PS8B   B24 2643  10.817  11.119  22.885
   77PS8B   B25 2644  10.695  11.134  22.921
   77PS8B   B26 2645  10.592  11.192  22.872
   77PS8B   B27 2646  10.492  11.155  22.799
   77PS8B   B28 2647  10.364  11.164  22.808
   77PS8B   B29 2648  11.175  10.970  22.953
   77PS8B   C30 2649  11.244  10.875  23.029
   77PS8B   C31 2650  11.271  10.695  23.000
   77PS8B   C32 2651  11.239  10.551  23.095
   77PS8B   C33 2652  11.294  10.512  23.257
   78PS8B    C0 2653  11.127  14.054   9.362
   78PS8B    C1 2654  11.037  14.203   9.349
   78PS8B    C2 2655  10.913  14.266   9.455
   78PS8B    C3 2656  10.765  14.374   9.429
   78PS8B    B4 2657  10.755  14.503   9.377
   78PS8B    B5 2658  10.672  14.631   9.371
   78PS8B    B6 2659  10.574  14.663   9.450
   78PS8B    B7 2660  10.541  14.632   9.570
   78PS8B    B8 2661  10.602  14.628   9.684
   78PS8B    B9 2662  10.706  14.686   9.735
   78PS8B   B10 2663  10.772  14.784   9.705
   78PS8B   B11 2664  10.807  14.838   9.599
   78PS8B   B12 2665  10.745  14.881   9.496
   78PS8B   B13 2666  10.622  14.909   9.468
   78PS8B   B14 2667  10.508  14.866   9.509
   78PS8B   B15 2668  10.467  14.794   9.608
   78PS8B   B16 2669  10.758  14.871   9.642
   78PS8B   B17 2670  10.670  14.851   9.672
   78PS8B   B18 2671  10.683  14.921   9.615
   78PS8B   B19 2672  10.610  14.814   9.762
   78PS8B   B20 2673  10.626  14.833   9.888
   78PS8B   B21 2674  10.688  14.920   9.960
   78PS8B   B22 2675  10.783  14.917  10.046
   78PS8B   B23 2676  10.850  15.006  10.111
   78PS8B   B24 2677  10.649  15.022   9.590
   78PS8B   B25 2678  10.700  15.134   9.552
   78PS8B   B26 2679  10.818  15.177   9.527
   78PS8B   B27 2680  10.891  15.189   9.422
   78PS8B   B28 2681  10.958  15.284   9.367
   78PS8B   B29 2682  10.334  14.805   9.679
   78PS8B   C30 2683  10.193  14.800   9.666
   78PS8B   C31 2684  10.089  14.737   9.528
   78PS8B   C32 2685   9.961  14.808   9.432
   78PS8B   C33 2686   9.811  14.881   9.484
   79PS8B    C0 2687  19.759  14.816   2.190
   79PS8B    C1 2688  19.648  14.763   2.314
   79PS8B    C2 2689  19.591  14.601   2.348
   79PS8B    C3 2690  19.434  14.533   2.418
   79PS8B    B4 2691  19.371  14.558   2.540
   79PS8B    B5 2692  19.274  14.504   2.645
   79PS8B    B6 2693  19.229  14.383   2.654
   79PS8B    B7 2694  19.273  14.267   2.619
   79PS8B    B8 2695  19.385  14.204   2.631
   79PS8B    B9 2696  19.485  14.209   2.712
   79PS8B   B10 2697  19.503  14.259   2.823
   79PS8B   B11 2698  19.463  14.360   2.881
   79PS8B   B12 2699  19.348  14.410   2.908
   79PS8B   B13 2700  19.227  14.366   2.906
   79PS8B   B14 2701  19.165  14.276   2.838
   79PS8B   B15 2702  19.199  14.178   2.760
   79PS8B   B16 2703  19.440  14.295   2.903
   79PS8B   B17 2704  19.389  14.225   2.864
   79PS8B   B18 2705  19.354  14.272   2.934
   79PS8B   B19 2706  19.395  14.122   2.815
   79PS8B   B20 2707  19.473  14.022   2.839
   79PS8B   B21 2708  19.544  13.984   2.940
   79PS8B   B22 2709  19.669  13.962   2.961
   79PS8B   B23 2710  19.740  13.933   3.064
   79PS8B   B24 2711  19.292  14.264   3.024
   79PS8B   B25 2712  19.290  14.311   3.144
   79PS8B   B26 2713  19.365  14.389   3.213
   79PS8B   B27 2714  19.365  14.514   3.239
   79PS8B   B28 2715  19.371  14.586   3.346
   79PS8B   B29 2716  19.127  14.047   2.741
   79PS8B   C30 2717  19.006  13.985   2.703
   79PS8B   C31 2718  18.859  14.053   2.615
   79PS8B   C32 2719  18.689  14.059   2.653
   79PS8B   C33 2720  18.579  13.928   2.690
   80PS8B    C0 2721   1.990  14.208  20.240
   80PS8B    C1 2722   2.106  14.160  20.362
   80PS8B    C2 2723   2.173  14.254  20.493
   80PS8B    C3 2724   2.335  14.251  20.582
   80PS8B    B4 2725   2.398  14.148  20.653
   80PS8B    B5 2726   2.499  14.113  20.761
   80PS8B    B6 2727   2.551  14.195  20.848
   80PS8B    B7 2728   2.514  14.305  20.902
   80PS8B    B8 2729   2.406  14.348  20.958
   80PS8B    B9 2730   2.307  14.293  21.020
   80PS8B   B10 2731   2.287  14.183  21.069
   80PS8B   B11 2732   2.321  14.067  21.042
   80PS8B   B12 2733   2.433  14.008  21.022
   80PS8B   B13 2734   2.557  14.037  21.045
   80PS8B   B14 2735   2.624  14.147  21.052
   80PS8B   B15 2736   2.595  14.273  21.062
   80PS8B   B16 2737   2.349  14.099  21.101
   80PS8B   B17 2738   2.404  14.175  21.116
   80PS8B   B18 2739   2.436  14.092  21.135
   80PS8B   B19 2740   2.404  14.284  21.150
   80PS8B   B20 2741   2.332  14.345  21.239
   80PS8B   B21 2742   2.265  14.308  21.343
   80PS8B   B22 2743   2.142  14.315  21.379
   80PS8B   B23 2744   2.073  14.269  21.478
   80PS8B   B24 2745   2.499  14.035  21.203
   80PS8B   B25 2746   2.501  13.920  21.261
   80PS8B   B26 2747   2.422  13.818  21.263
   80PS8B   B27 2748   2.414  13.708  21.198
   80PS8B   B28 2749   2.405  13.584  21.229
   80PS8B   B29 2750   2.675  14.380  21.133
   80PS8B   C30 2751   2.799  14.447  21.140
   80PS8B   C31 2752   2.940  14.450  21.022
   80PS8B   C32 2753   3.110  14.414  21.037
   80PS8B   C33 2754   3.228  14.482  21.148
   81PS8B    C0 2755  16.450  18.987  22.156
   81PS8B    C1 2756  16.451  18.815  22.190
   81PS8B    C2 2757  16.454  18.734  22.345
   81PS8B    C3 2758  16.522  18.572  22.402
   81PS8B    B4 2759  16.495  18.442  22.358
   81PS8B    B5 2760  16.496  18.294  22.395
   81PS8B    B6 2761  16.511  18.244  22.514
   81PS8B    B7 2762  16.486  18.285  22.633
   81PS8B    B8 2763  16.386  18.341  22.692
   81PS8B    B9 2764  16.258  18.345  22.672
   81PS8B   B10 2765  16.180  18.280  22.605
   81PS8B   B11 2766  16.185  18.221  22.496
   81PS8B   B12 2767  16.262  18.133  22.444
   81PS8B   B13 2768  16.350  18.051  22.489
   81PS8B   B14 2769  16.431  18.051  22.590
   81PS8B   B15 2770  16.443  18.121  22.699
   81PS8B   B16 2771  16.181  18.182  22.557
   81PS8B   B17 2772  16.238  18.171  22.633
   81PS8B   B18 2773  16.224  18.101  22.575
   81PS8B   B19 2774  16.252  18.199  22.743
   81PS8B   B20 2775  16.166  18.219  22.836
   81PS8B   B21 2776  16.043  18.185  22.857
   81PS8B   B22 2777  15.932  18.247  22.874
   81PS8B   B23 2778  15.808  18.212  22.885
   81PS8B   B24 2779  16.214  17.992  22.570
   81PS8B   B25 2780  16.145  17.905  22.504
   81PS8B   B26 2781  16.053  17.911  22.415
   81PS8B   B27 2782  16.050  17.906  22.287
   81PS8B   B28 2783  15.986  17.837  22.199
   81PS8B   B29 2784  16.495  18.073  22.832
   81PS8B   C30 2785  16.604  18.017  22.901
   81PS8B   C31 2786  16.780  17.996  22.850
   81PS8B   C32 2787  16.887  17.859  22.840
   81PS8B   C33 2788  16.932  17.744  22.965
   82PS8B    C0 2789  19.316  20.574  13.416
   82PS8B    C1 2790  19.288  20.729  13.492
   82PS8B    C2 2791  19.272  20.766  13.663
   82PS8B    C3 2792  19.179  20.895  13.756
   82PS8B    B4 2793  19.184  21.035  13.749
   82PS8B    B5 2794  19.159  21.166  13.821
   82PS8B    B6 2795  19.137  21.181  13.949
   82PS8B    B7 2796  19.168  21.114  14.054
   82PS8B    B8 2797  19.276  21.062  14.101
   82PS8B    B9 2798  19.402  21.083  14.086
   82PS8B   B10 2799  19.469  21.175  14.041
   82PS8B   B11 2800  19.455  21.258  13.950
   82PS8B   B12 2801  19.364  21.344  13.919
   82PS8B   B13 2802  19.264  21.396  13.980
   82PS8B   B14 2803  19.185  21.357  14.074
   82PS8B   B15 2804  19.184  21.261  14.161
   82PS8B   B16 2805  19.452  21.280  14.019
   82PS8B   B17 2806  19.394  21.263  14.093
   82PS8B   B18 2807  19.396  21.347  14.056
   82PS8B   B19 2808  19.385  21.205  14.192
   82PS8B   B20 2809  19.474  21.175  14.280
   82PS8B   B21 2810  19.589  21.222  14.314
   82PS8B   B22 2811  19.709  21.176  14.319
   82PS8B   B23 2812  19.825  21.226  14.343
   82PS8B   B24 2813  19.389  21.453  14.078
   82PS8B   B25 2814  19.443  21.564  14.040
   82PS8B   B26 2815  19.534  21.596  13.956
   82PS8B   B27 2816  19.536  21.634  13.834
   82PS8B   B28 2817  19.588  21.732  13.769
   82PS8B   B29 2818  19.125  21.264  14.300
   82PS8B   C30 2819  19.008  21.283  14.377
   82PS8B   C31 2820  18.832  21.288  14.326
   82PS8B   C32 2821  18.703  21.405  14.347
   82PS8B   C33 2822  18.640  21.475  14.495
   83PS8B    C0 2823  20.012   5.886   6.733
   83PS8B    C1 2824  19.857   5.826   6.788
   83PS8B    C2 2825  19.732   5.744   6.696
   83PS8B    C3 2826  19.548   5.736   6.711
   83PS8B    B4 2827  19.467   5.694   6.817
   83PS8B    B5 2828  19.331   5.640   6.858
   83PS8B    B6 2829  19.240   5.592   6.778
   83PS8B    B7 2830  19.242   5.534   6.663
   83PS8B    B8 2831  19.310   5.439   6.609
   83PS8B    B9 2832  19.374   5.336   6.653
   83PS8B   B10 2833  19.377   5.276   6.760
   83PS8B   B11 2834  19.367   5.307   6.879
   83PS8B   B12 2835  19.279   5.371   6.948
   83PS8B   B13 2836  19.157   5.408   6.929
   83PS8B   B14 2837  19.087   5.438   6.826
   83PS8B   B15 2838  19.100   5.425   6.698
   83PS8B   B16 2839  19.313   5.269   6.847
   83PS8B   B17 2840  19.253   5.285   6.776
   83PS8B   B18 2841  19.221   5.277   6.862
   83PS8B   B19 2842  19.230   5.262   6.666
   83PS8B   B20 2843  19.250   5.155   6.597
   83PS8B   B21 2844  19.266   5.030   6.625
   83PS8B   B22 2845  19.359   4.943   6.606
   83PS8B   B23 2846  19.378   4.821   6.643
   83PS8B   B24 2847  19.137   5.241   6.922
   83PS8B   B25 2848  19.118   5.182   7.035
   83PS8B   B26 2849  19.194   5.139   7.129
   83PS8B   B27 2850  19.238   5.186   7.240
   83PS8B   B28 2851  19.239   5.146   7.362
   83PS8B   B29 2852  18.990   5.405   6.596
   83PS8B   C30 2853  18.872   5.457   6.540
   83PS8B   C31 2854  18.799   5.626   6.553
   83PS8B   C32 2855  18.642   5.686   6.603
   83PS8B   C33 2856  18.483   5.644   6.543
   84PS8B    C0 2857   0.666   8.272  22.639
   84PS8B    C1 2858   0.839   8.269  22.608
   84PS8B    C2 2859   0.923   8.242  22.457
   84PS8B    C3 2860   1.086   8.168  22.414
   84PS8B    B4 2861   1.215   8.203  22.454
   84PS8B    B5 2862   1.364   8.198  22.421
   84PS8B    B6 2863   1.416   8.165  22.306
   84PS8B    B7 2864   1.377   8.169  22.184
   84PS8B    B8 2865   1.321   8.258  22.109
   84PS8B    B9 2866   1.315   8.387  22.108
   84PS8B   B10 2867   1.379   8.476  22.163
   84PS8B   B11 2868   1.435   8.489  22.272
   84PS8B   B12 2869   1.523   8.423  22.337
   84PS8B   B13 2870   1.607   8.329  22.308
   84PS8B   B14 2871   1.609   8.234  22.222
   84PS8B   B15 2872   1.542   8.204  22.115
   84PS8B   B16 2873   1.476   8.484  22.212
   84PS8B   B17 2874   1.489   8.416  22.146
   84PS8B   B18 2875   1.558   8.439  22.202
   84PS8B   B19 2876   1.463   8.384  22.040
   84PS8B   B20 2877   1.443   8.454  21.933
   84PS8B   B21 2878   1.477   8.572  21.894
   84PS8B   B22 2879   1.414   8.678  21.858
   84PS8B   B23 2880   1.448   8.799  21.828
   84PS8B   B24 2881   1.666   8.452  22.208
   84PS8B   B25 2882   1.751   8.531  22.263
   84PS8B   B26 2883   1.743   8.636  22.336
   84PS8B   B27 2884   1.746   8.660  22.462
   84PS8B   B28 2885   1.813   8.738  22.540
   84PS8B   B29 2886   1.592   8.131  21.993
   84PS8B   C30 2887   1.651   8.013  21.943
   84PS8B   C31 2888   1.672   7.848  22.022
   84PS8B   C32 2889   1.811   7.745  22.051
   84PS8B   C33 2890   1.927   7.682  21.937
   85PS8B    C0 2891   5.922   1.450   8.055
   85PS8B    C1 2892   6.068   1.546   8.070
   85PS8B    C2 2893   6.086   1.720   8.062
   85PS8B    C3 2894   6.224   1.830   8.007
   85PS8B    B4 2895   6.356   1.840   8.051
   85PS8B    B5 2896   6.479   1.929   8.063
   85PS8B    B6 2897   6.483   2.058   8.043
   85PS8B    B7 2898   6.398   2.154   8.051
   85PS8B    B8 2899   6.311   2.192   8.139
   85PS8B    B9 2900   6.298   2.178   8.267
   85PS8B   B10 2901   6.372   2.144   8.358
   85PS8B   B11 2902   6.466   2.065   8.369
   85PS8B   B12 2903   6.577   2.046   8.307
   85PS8B   B13 2904   6.648   2.115   8.225
   85PS8B   B14 2905   6.622   2.204   8.135
   85PS8B   B15 2906   6.519   2.278   8.106
   85PS8B   B16 2907   6.480   2.136   8.371
   85PS8B   B17 2908   6.470   2.208   8.310
   85PS8B   B18 2909   6.554   2.182   8.336
   85PS8B   B19 2910   6.406   2.298   8.283
   85PS8B   B20 2911   6.341   2.381   8.357
   85PS8B   B21 2912   6.349   2.419   8.480
   85PS8B   B22 2913   6.270   2.416   8.582
   85PS8B   B23 2914   6.282   2.445   8.707
   85PS8B   B24 2915   6.654   2.217   8.358
   85PS8B   B25 2916   6.749   2.193   8.442
   85PS8B   B26 2917   6.765   2.112   8.541
   85PS8B   B27 2918   6.815   1.995   8.556
   85PS8B   B28 2919   6.903   1.943   8.635
   85PS8B   B29 2920   6.521   2.417   8.047
   85PS8B   C30 2921   6.563   2.497   7.939
   85PS8B   C31 2922   6.624   2.450   7.772
   85PS8B   C32 2923   6.769   2.487   7.681
   85PS8B   C33 2924   6.834   2.643   7.637
   86PS8B    C0 2925  17.373  13.507   9.352
   86PS8B    C1 2926  17.347  13.630   9.474
   86PS8B    C2 2927  17.449  13.674   9.609
   86PS8B    C3 2928  17.415  13.743   9.777
   86PS8B    B4 2929  17.350  13.860   9.816
   86PS8B    B5 2930  17.333  13.965   9.925
   86PS8B    B6 2931  17.410  13.981  10.029
   86PS8B    B7 2932  17.533  13.957  10.054
   86PS8B    B8 2933  17.645  13.978   9.994
   86PS8B    B9 2934  17.688  14.063   9.906
   86PS8B   B10 2935  17.647  14.170   9.863
   86PS8B   B11 2936  17.535  14.219   9.842
   86PS8B   B12 2937  17.429  14.237   9.912
   86PS8B   B13 2938  17.401  14.233  10.037
   86PS8B   B14 2939  17.448  14.170  10.139
   86PS8B   B15 2940  17.556  14.102  10.163
   86PS8B   B16 2941  17.575  14.245   9.897
   86PS8B   B17 2942  17.609  14.209   9.978
   86PS8B   B18 2943  17.545  14.274   9.981
   86PS8B   B19 2944  17.703  14.169  10.029
   86PS8B   B20 2945  17.827  14.204  10.017
   86PS8B   B21 2946  17.888  14.310   9.977
   86PS8B   B22 2947  17.972  14.338   9.884
   86PS8B   B23 2948  18.026  14.446   9.839
   86PS8B   B24 2949  17.511  14.361  10.037
   86PS8B   B25 2950  17.460  14.477  10.013
   86PS8B   B26 2951  17.428  14.543   9.907
   86PS8B   B27 2952  17.321  14.559   9.839
   86PS8B   B28 2953  17.255  14.661   9.795
   86PS8B   B29 2954  17.628  14.090  10.296
   86PS8B   C30 2955  17.619  14.052  10.431
   86PS8B   C31 2956  17.490  13.953  10.518
   86PS8B   C32 2957  17.390  13.983  10.658
   86PS8B   C33 2958  17.438  14.025  10.821
   87PS8B    C0 2959  12.149  20.353   0.279
   87PS8B    C1 2960  12.265  20.234   0.225
   87PS8B    C2 2961  12.415  20.258   0.138
   87PS8B    C3 2962  12.510  20.156   0.017
   87PS8B    B4 2963  12.563  20.027   0.028
   87PS8B    B5 2964  12.667  19.929  -0.022
   87PS8B    B6 2965  12.770  19.957  -0.097
   87PS8B    B7 2966  12.842  20.061  -0.116
   87PS8B    B8 2967  12.901  20.148  -0.040
   87PS8B    B9 2968  12.945  20.147   0.082
   87PS8B   B10 2969  12.972  20.060   0.163
   87PS8B   B11 2970  12.925  19.949   0.191
   87PS8B   B12 2971  12.900  19.842   0.125
   87PS8B   B13 2972  12.933  19.797   0.010
   87PS8B   B14 2973  12.965  19.850  -0.103
   87PS8B   B15 2974  12.997  19.969  -0.143
   87PS8B   B16 2975  12.990  19.953   0.160
   87PS8B   B17 2976  13.022  19.984   0.076
   87PS8B   B18 2977  13.026  19.895   0.095
   87PS8B   B19 2978  13.076  20.070   0.024
   87PS8B   B20 2979  13.171  20.147   0.065
   87PS8B   B21 2980  13.262  20.139   0.156
   87PS8B   B22 2981  13.293  20.207   0.261
   87PS8B   B23 2982  13.379  20.193   0.356
   87PS8B   B24 2983  13.086  19.804   0.082
   87PS8B   B25 2984  13.120  19.700   0.149
   87PS8B   B26 2985  13.099  19.659   0.269
   87PS8B   B27 2986  13.013  19.580   0.324
   87PS8B   B28 2987  13.020  19.477   0.401
   87PS8B   B29 2988  13.091  20.005  -0.256
   87PS8B   C30 2989  13.117  19.992  -0.394
   87PS8B   C31 2990  13.009  19.935  -0.532
   87PS8B   C32 2991  13.025  19.811  -0.654
   87PS8B   C33 2992  13.153  19.788  -0.772
   88PS8B    C0 2993   5.964   3.690   6.884
   88PS8B    C1 2994   6.006   3.854   6.929
   88PS8B    C2 2995   6.028   3.994   6.826
   88PS8B    C3 2996   6.133   4.146   6.839
   88PS8B    B4 2997   6.139   4.244   6.937
   88PS8B    B5 2998   6.176   4.388   6.969
   88PS8B    B6 2999   6.202   4.483   6.883
   88PS8B    B7 3000   6.168   4.506   6.761
   88PS8B    B8 3001   6.057   4.506   6.696
   88PS8B    B9 3002   5.932   4.521   6.726
   88PS8B   B10 3003   5.872   4.564   6.823
   88PS8B   B11 3004   5.892   4.564   6.946
   88PS8B   B12 3005   5.988   4.601   7.022
   88PS8B   B13 3006   6.093   4.673   7.008
   88PS8B   B14 3007   6.171   4.701   6.909
   88PS8B   B15 3008   6.166   4.687   6.780
   88PS8B   B16 3009   5.898   4.627   6.909
   88PS8B   B17 3010   5.955   4.659   6.840
   88PS8B   B18 3011   5.959   4.696   6.923
   88PS8B   B19 3012   5.961   4.681   6.728
   88PS8B   B20 3013   5.872   4.724   6.645
   88PS8B   B21 3014   5.762   4.790   6.656
   88PS8B   B22 3015   5.639   4.767   6.626
   88PS8B   B23 3016   5.528   4.829   6.646
   88PS8B   B24 3017   5.975   4.790   6.977
   88PS8B   B25 3018   5.930   4.850   7.081
   88PS8B   B26 3019   5.840   4.825   7.169
   88PS8B   B27 3020   5.838   4.772   7.286
   88PS8B   B28 3021   5.793   4.805   7.401
   88PS8B   B29 3022   6.228   4.778   6.676
   88PS8B   C30 3023   6.347   4.834   6.627
   88PS8B   C31 3024   6.523   4.791   6.662
   88PS8B   C32 3025   6.660   4.882   6.719
   88PS8B   C33 3026   6.731   5.028   6.652
   89PS8B    C0 3027   5.288  16.322   7.028
   89PS8B    C1 3028   5.283  16.272   7.196
   89PS8B    C2 3029   5.356  16.349   7.335
   89PS8B    C3 3030   5.420  16.285   7.496
   89PS8B    B4 3031   5.357  16.212   7.596
   89PS8B    B5 3032   5.357  16.174   7.744
   89PS8B    B6 3033   5.425  16.232   7.839
   89PS8B    B7 3034   5.473  16.350   7.857
   89PS8B    B8 3035   5.428  16.470   7.845
   89PS8B    B9 3036   5.311  16.525   7.849
   89PS8B   B10 3037   5.201  16.490   7.888
   89PS8B   B11 3038   5.139  16.382   7.892
   89PS8B   B12 3039   5.164  16.265   7.939
   89PS8B   B13 3040   5.251  16.216   8.020
   89PS8B   B14 3041   5.372  16.247   8.054
   89PS8B   B15 3042   5.448  16.350   8.037
   89PS8B   B16 3043   5.163  16.412   7.954
   89PS8B   B17 3044   5.249  16.432   7.990
   89PS8B   B18 3045   5.198  16.367   8.029
   89PS8B   B19 3046   5.323  16.517   8.011
   89PS8B   B20 3047   5.303  16.640   8.044
   89PS8B   B21 3048   5.206  16.705   8.099
   89PS8B   B22 3049   5.131  16.803   8.065
   89PS8B   B23 3050   5.028  16.862   8.116
   89PS8B   B24 3051   5.171  16.322   8.125
   89PS8B   B25 3052   5.067  16.273   8.183
   89PS8B   B26 3053   4.943  16.259   8.151
   89PS8B   B27 3054   4.872  16.165   8.100
   89PS8B   B28 3055   4.763  16.105   8.131
   89PS8B   B29 3056   5.556  16.399   8.131
   89PS8B   C30 3057   5.676  16.367   8.198
   89PS8B   C31 3058   5.794  16.228   8.171
   89PS8B   C32 3059   5.859  16.104   8.276
   89PS8B   C33 3060   5.947  16.123   8.427
   90PS8B    C0 3061   2.165  21.564  10.887
   90PS8B    C1 3062   2.336  21.580  10.854
   90PS8B    C2 3063   2.450  21.458  10.802
   90PS8B    C3 3064   2.632  21.434  10.828
   90PS8B    B4 3065   2.740  21.516  10.797
   90PS8B    B5 3066   2.889  21.523  10.767
   90PS8B    B6 3067   2.967  21.423  10.741
   90PS8B    B7 3068   2.950  21.306  10.689
   90PS8B    B8 3069   2.890  21.259  10.586
   90PS8B    B9 3070   2.855  21.307  10.470
   90PS8B   B10 3071   2.886  21.406  10.406
   90PS8B   B11 3072   2.917  21.522  10.433
   90PS8B   B12 3073   3.005  21.577  10.508
   90PS8B   B13 3074   3.112  21.537  10.568
   90PS8B   B14 3075   3.151  21.424  10.617
   90PS8B   B15 3076   3.113  21.301  10.607
   90PS8B   B16 3077   2.968  21.477  10.407
   90PS8B   B17 3078   3.008  21.397  10.438
   90PS8B   B18 3079   3.059  21.473  10.432
   90PS8B   B19 3080   3.010  21.283  10.424
   90PS8B   B20 3081   2.994  21.211  10.319
   90PS8B   B21 3082   3.006  21.230  10.192
   90PS8B   B22 3083   2.928  21.223  10.090
   90PS8B   B23 3084   2.938  21.252   9.965
   90PS8B   B24 3085   3.158  21.511  10.408
   90PS8B   B25 3086   3.211  21.612  10.349
   90PS8B   B26 3087   3.167  21.715  10.288
   90PS8B   B27 3088   3.141  21.837  10.321
   90PS8B   B28 3089   3.173  21.953  10.275
   90PS8B   B29 3090   3.200  21.177  10.613
   90PS8B   C30 3091   3.292  21.103  10.689
   90PS8B   C31 3092   3.336  21.115  10.868
   90PS8B   C32 3093   3.487  21.137  10.954
   90PS8B   C33 3094   3.633  21.042  10.945
   91PS8B    C0 3095  11.718   1.776   6.523
   91PS8B    C1 3096  11.718   1.864   6.372
   91PS8B    C2 3097  11.854   1.924   6.280
   91PS8B    C3 3098  11.877   2.069   6.167
   91PS8B    B4 3099  11.810   2.105   6.050
   91PS8B    B5 3100  11.817   2.182   5.919
   91PS8B    B6 3101  11.924   2.233   5.865
   91PS8B    B7 3102  12.050   2.205   5.869
   91PS8B    B8 3103  12.120   2.098   5.857
   91PS8B    B9 3104  12.104   1.983   5.799
   91PS8B   B10 3105  12.027   1.940   5.715
   91PS8B   B11 3106  11.908   1.961   5.685
   91PS8B   B12 3107  11.839   2.065   5.657
   91PS8B   B13 3108  11.866   2.186   5.625
   91PS8B   B14 3109  11.963   2.267   5.649
   91PS8B   B15 3110  12.083   2.255   5.698
   91PS8B   B16 3111  11.961   1.984   5.640
   91PS8B   B17 3112  12.032   2.047   5.647
   91PS8B   B18 3113  11.962   2.063   5.590
   91PS8B   B19 3114  12.145   2.057   5.661
   91PS8B   B20 3115  12.242   1.983   5.620
   91PS8B   B21 3116  12.257   1.897   5.526
   91PS8B   B22 3117  12.288   1.772   5.520
   91PS8B   B23 3118  12.294   1.684   5.426
   91PS8B   B24 3119  11.936   2.107   5.493
   91PS8B   B25 3120  11.856   2.082   5.395
   91PS8B   B26 3121  11.771   1.990   5.367
   91PS8B   B27 3122  11.644   1.975   5.382
   91PS8B   B28 3123  11.546   1.944   5.305
   91PS8B   B29 3124  12.204   2.339   5.662
   91PS8B   C30 3125  12.258   2.469   5.658
   91PS8B   C31 3126  12.201   2.625   5.737
   91PS8B   C32 3127  12.163   2.784   5.676
   91PS8B   C33 3128  12.262   2.893   5.582
   92PS8B    C0 3129  -0.250   0.110   7.171
   92PS8B    C1 3130  -0.172   0.200   7.042
   92PS8B    C2 3131  -0.061   0.143   6.919
   92PS8B    C3 3132   0.078   0.223   6.827
   92PS8B    B4 3133   0.080   0.336   6.745
   92PS8B    B5 3134   0.151   0.408   6.632
   92PS8B    B6 3135   0.242   0.359   6.553
   92PS8B    B7 3136   0.270   0.240   6.511
   92PS8B    B8 3137   0.203   0.142   6.461
   92PS8B    B9 3138   0.092   0.130   6.397
   92PS8B   B10 3139   0.019   0.208   6.337
   92PS8B   B11 3140  -0.014   0.327   6.352
   92PS8B   B12 3141   0.050   0.437   6.363
   92PS8B   B13 3142   0.170   0.476   6.342
   92PS8B   B14 3143   0.286   0.418   6.344
   92PS8B   B15 3144   0.327   0.295   6.347
   92PS8B   B16 3145   0.029   0.308   6.296
   92PS8B   B17 3146   0.116   0.271   6.287
   92PS8B   B18 3147   0.100   0.357   6.260
   92PS8B   B19 3148   0.174   0.176   6.264
   92PS8B   B20 3149   0.148   0.079   6.183
   92PS8B   B21 3150   0.075   0.065   6.078
   92PS8B   B22 3151  -0.024  -0.009   6.045
   92PS8B   B23 3152  -0.103  -0.017   5.943
   92PS8B   B24 3153   0.126   0.432   6.184
   92PS8B   B25 3154   0.069   0.525   6.116
   92PS8B   B26 3155  -0.051   0.569   6.105
   92PS8B   B27 3156  -0.118   0.664   6.159
   92PS8B   B28 3157  -0.190   0.761   6.116
   92PS8B   B29 3158   0.454   0.240   6.286
   92PS8B   C30 3159   0.595   0.248   6.282
   92PS8B   C31 3160   0.713   0.331   6.397
   92PS8B   C32 3161   0.839   0.450   6.376
   92PS8B   C33 3162   0.979   0.444   6.270
   93PS8B    C0 3163  13.565  11.377   2.968
   93PS8B    C1 3164  13.700  11.394   2.858
   93PS8B    C2 3165  13.717  11.331   2.695
   93PS8B    C3 3166  13.862  11.277   2.594
   93PS8B    B4 3167  13.977  11.346   2.556
   93PS8B    B5 3168  14.091  11.355   2.455
   93PS8B    B6 3169  14.098  11.294   2.340
   93PS8B    B7 3170  14.011  11.249   2.257
   93PS8B    B8 3171  13.904  11.295   2.202
   93PS8B    B9 3172  13.857  11.413   2.175
   93PS8B   B10 3173  13.906  11.525   2.169
   93PS8B   B11 3174  13.995  11.585   2.230
   93PS8B   B12 3175  14.119  11.562   2.256
   93PS8B   B13 3176  14.207  11.480   2.210
   93PS8B   B14 3177  14.204  11.363   2.158
   93PS8B   B15 3178  14.111  11.286   2.109
   93PS8B   B16 3179  14.006  11.566   2.161
   93PS8B   B17 3180  14.012  11.483   2.115
   93PS8B   B18 3181  14.086  11.536   2.122
   93PS8B   B19 3182  13.955  11.412   2.045
   93PS8B   B20 3183  13.871  11.436   1.950
   93PS8B   B21 3184  13.846  11.537   1.874
   93PS8B   B22 3185  13.743  11.611   1.852
   93PS8B   B23 3186  13.721  11.718   1.784
   93PS8B   B24 3187  14.177  11.569   2.070
   93PS8B   B25 3188  14.246  11.676   2.056
   93PS8B   B26 3189  14.237  11.797   2.098
   93PS8B   B27 3190  14.284  11.862   2.197
   93PS8B   B28 3191  14.349  11.973   2.212
   93PS8B   B29 3192  14.126  11.185   1.997
   93PS8B   C30 3193  14.193  11.070   1.952
   93PS8B   C31 3194  14.297  10.949   2.044
   93PS8B   C32 3195  14.460  10.889   2.023
   93PS8B   C33 3196  14.531  10.812   1.883
   94PS8B    C0 3197  18.135  21.198  11.167
   94PS8B    C1 3198  18.003  21.265  11.073
   94PS8B    C2 3199  18.010  21.369  10.932
   94PS8B    C3 3200  17.898  21.500  10.865
   94PS8B    B4 3201  17.764  21.494  10.827
   94PS8B    B5 3202  17.654  21.556  10.741
   94PS8B    B6 3203  17.670  21.643  10.646
   94PS8B    B7 3204  17.766  21.671  10.565
   94PS8B    B8 3205  17.845  21.603  10.488
   94PS8B    B9 3206  17.839  21.488  10.429
   94PS8B   B10 3207  17.749  21.410  10.403
   94PS8B   B11 3208  17.644  21.375  10.459
   94PS8B   B12 3209  17.541  21.437  10.504
   94PS8B   B13 3210  17.492  21.555  10.491
   94PS8B   B14 3211  17.542  21.672  10.467
   94PS8B   B15 3212  17.657  21.716  10.426
   94PS8B   B16 3213  17.640  21.414  10.398
   94PS8B   B17 3214  17.668  21.502  10.373
   94PS8B   B18 3215  17.579  21.482  10.377
   94PS8B   B19 3216  17.747  21.561  10.316
   94PS8B   B20 3217  17.812  21.532  10.208
   94PS8B   B21 3218  17.793  21.453  10.108
   94PS8B   B22 3219  17.856  21.353  10.057
   94PS8B   B23 3220  17.832  21.269   9.963
   94PS8B   B24 3221  17.482  21.502  10.331
   94PS8B   B25 3222  17.374  21.438  10.301
   94PS8B   B26 3223  17.335  21.317  10.312
   94PS8B   B27 3224  17.266  21.251  10.398
   94PS8B   B28 3225  17.163  21.174  10.394
   94PS8B   B29 3226  17.682  21.840  10.343
   94PS8B   C30 3227  17.667  21.980  10.335
   94PS8B   C31 3228  17.623  22.103  10.465
   94PS8B   C32 3229  17.498  22.225  10.479
   94PS8B   C33 3230  17.462  22.358  10.370
   95PS8B    C0 3231  23.228  22.854  15.233
   95PS8B    C1 3232  23.159  22.881  15.391
   95PS8B    C2 3233  23.049  22.779  15.482
   95PS8B    C3 3234  22.918  22.814  15.607
   95PS8B    B4 3235  22.924  22.880  15.730
   95PS8B    B5 3236  22.860  22.897  15.868
   95PS8B    B6 3237  22.770  22.820  15.921
   95PS8B    B7 3238  22.738  22.696  15.909
   95PS8B    B8 3239  22.802  22.585  15.907
   95PS8B    B9 3240  22.914  22.543  15.954
   95PS8B   B10 3241  22.993  22.584  16.038
   95PS8B   B11 3242  23.031  22.696  16.075
   95PS8B   B12 3243  22.972  22.802  16.116
   95PS8B   B13 3244  22.854  22.831  16.159
   95PS8B   B14 3245  22.736  22.783  16.137
   95PS8B   B15 3246  22.689  22.675  16.083
   95PS8B   B16 3247  22.989  22.656  16.119
   95PS8B   B17 3248  22.901  22.622  16.115
   95PS8B   B18 3249  22.922  22.687  16.177
   95PS8B   B19 3250  22.839  22.528  16.097
   95PS8B   B20 3251  22.863  22.404  16.126
   95PS8B   B21 3252  22.939  22.344  16.211
   95PS8B   B22 3253  23.036  22.259  16.203
   95PS8B   B23 3254  23.117  22.206  16.287
   95PS8B   B24 3255  22.901  22.721  16.278
   95PS8B   B25 3256  22.966  22.773  16.377
   95PS8B   B26 3257  23.088  22.804  16.400
   95PS8B   B27 3258  23.158  22.912  16.390
   95PS8B   B28 3259  23.235  22.978  16.468
   95PS8B   B29 3260  22.562  22.602  16.120
   95PS8B   C30 3261  22.422  22.612  16.134
   95PS8B   C31 3262  22.304  22.740  16.073
   95PS8B   C32 3263  22.184  22.841  16.151
   95PS8B   C33 3264  22.048  22.793  16.251
   96PS8B    C0 3265   5.407  21.054  10.077
   96PS8B    C1 3266   5.519  21.186  10.049
   96PS8B    C2 3267   5.642  21.201   9.925
   96PS8B    C3 3268   5.806  21.287   9.918
   96PS8B    B4 3269   5.839  21.422   9.937
   96PS8B    B5 3270   5.939  21.532   9.908
   96PS8B    B6 3271   6.035  21.528   9.820
   96PS8B    B7 3272   6.053  21.466   9.709
   96PS8B    B8 3273   5.983  21.444   9.603
   96PS8B    B9 3274   5.885  21.505   9.544
   96PS8B   B10 3275   5.836  21.617   9.552
   96PS8B   B11 3276   5.819  21.699   9.643
   96PS8B   B12 3277   5.894  21.755   9.730
   96PS8B   B13 3278   6.021  21.769   9.745
   96PS8B   B14 3279   6.125  21.699   9.710
   96PS8B   B15 3280   6.147  21.600   9.630
   96PS8B   B16 3281   5.868  21.713   9.591
   96PS8B   B17 3282   5.949  21.672   9.563
   96PS8B   B18 3283   5.951  21.755   9.601
   96PS8B   B19 3284   5.996  21.606   9.482
   96PS8B   B20 3285   5.972  21.597   9.356
   96PS8B   B21 3286   5.919  21.674   9.268
   96PS8B   B22 3287   5.817  21.666   9.189
   96PS8B   B23 3288   5.759  21.747   9.107
   96PS8B   B24 3289   6.001  21.852   9.600
   96PS8B   B25 3290   5.971  21.977   9.612
   96PS8B   B26 3291   5.863  22.043   9.630
   96PS8B   B27 3292   5.801  22.090   9.732
   96PS8B   B28 3293   5.753  22.205   9.766
   96PS8B   B29 3294   6.274  21.573   9.552
   96PS8B   C30 3295   6.412  21.549   9.560
   96PS8B   C31 3296   6.517  21.503   9.704
   96PS8B   C32 3297   6.661  21.573   9.775
   96PS8B   C33 3298   6.816  21.607   9.700
   97PS8B    C0 3299  21.882   5.936  22.292
   97PS8B    C1 3300  21.947   5.986  22.137
   97PS8B    C2 3301  22.016   5.887  22.010
   97PS8B    C3 3302  22.145   5.918  21.881
   97PS8B    B4 3303  22.151   6.014  21.780
   97PS8B    B5 3304  22.209   6.051  21.644
   97PS8B    B6 3305  22.270   5.970  21.562
   97PS8B    B7 3306  22.265   5.844  21.539
   97PS8B    B8 3307  22.171   5.757  21.522
   97PS8B    B9 3308  22.048   5.762  21.481
   97PS8B   B10 3309  21.981   5.844  21.422
   97PS8B   B11 3310  21.975   5.968  21.419
   97PS8B   B12 3311  22.060   6.061  21.397
   97PS8B   B13 3312  22.179   6.067  21.348
   97PS8B   B14 3313  22.278   5.985  21.341
   97PS8B   B15 3314  22.295   5.859  21.360
   97PS8B   B16 3315  22.001   5.932  21.361
   97PS8B   B17 3316  22.075   5.875  21.344
   97PS8B   B18 3317  22.071   5.957  21.304
   97PS8B   B19 3318  22.108   5.767  21.330
   97PS8B   B20 3319  22.047   5.667  21.275
   97PS8B   B21 3320  21.952   5.655  21.189
   97PS8B   B22 3321  21.835   5.601  21.189
   97PS8B   B23 3322  21.737   5.597  21.106
   97PS8B   B24 3323  22.095   6.012  21.212
   97PS8B   B25 3324  22.043   6.104  21.138
   97PS8B   B26 3325  21.934   6.172  21.141
   97PS8B   B27 3326  21.900   6.287  21.186
   97PS8B   B28 3327  21.841   6.391  21.138
   97PS8B   B29 3328  22.393   5.767  21.289
   97PS8B   C30 3329  22.528   5.743  21.260
   97PS8B   C31 3330  22.682   5.812  21.334
   97PS8B   C32 3331  22.821   5.895  21.268
   97PS8B   C33 3332  22.931   5.841  21.143
   98PS8B    C0 3333  21.656  20.320  14.741
   98PS8B    C1 3334  21.606  20.412  14.881
   98PS8B    C2 3335  21.483  20.373  15.000
   98PS8B    C3 3336  21.372  20.476  15.105
   98PS8B    B4 3337  21.401  20.574  15.200
   98PS8B    B5 3338  21.353  20.650  15.323
   98PS8B    B6 3339  21.251  20.618  15.398
   98PS8B    B7 3340  21.191  20.508  15.427
   98PS8B    B8 3341  21.228  20.390  15.462
   98PS8B    B9 3342  21.331  20.339  15.522
   98PS8B   B10 3343  21.423  20.386  15.588
   98PS8B   B11 3344  21.487  20.492  15.586
   98PS8B   B12 3345  21.457  20.616  15.590
   98PS8B   B13 3346  21.352  20.683  15.620
   98PS8B   B14 3347  21.225  20.660  15.614
   98PS8B   B15 3348  21.151  20.556  15.598
   98PS8B   B16 3349  21.441  20.479  15.641
   98PS8B   B17 3350  21.347  20.467  15.648
   98PS8B   B18 3351  21.386  20.541  15.685
   98PS8B   B19 3352  21.264  20.390  15.661
   98PS8B   B20 3353  21.261  20.280  15.729
   98PS8B   B21 3354  21.327  20.234  15.830
   98PS8B   B22 3355  21.402  20.131  15.851
   98PS8B   B23 3356  21.475  20.090  15.949
   98PS8B   B24 3357  21.381  20.610  15.769
   98PS8B   B25 3358  21.462  20.674  15.846
   98PS8B   B26 3359  21.590  20.681  15.859
   98PS8B   B27 3360  21.681  20.760  15.814
   98PS8B   B28 3361  21.777  20.828  15.867
   98PS8B   B29 3362  21.013  20.531  15.656
   98PS8B   C30 3363  20.880  20.578  15.665
   98PS8B   C31 3364  20.791  20.703  15.564
   98PS8B   C32 3365  20.703  20.849  15.604
   98PS8B   C33 3366  20.567  20.869  15.712
   99PS8B    C0 3367   9.249  19.803  12.547
   99PS8B    C1 3368   9.111  19.907  12.577
   99PS8B    C2 3369   9.014  19.921  12.722
   99PS8B    C3 3370   8.837  19.964  12.753
   99PS8B    B4 3371   8.764  20.079  12.719
   99PS8B    B5 3372   8.643  20.166  12.751
   99PS8B    B6 3373   8.570  20.159  12.859
   99PS8B    B7 3374   8.591  20.122  12.980
   99PS8B    B8 3375   8.682  20.143  13.069
   99PS8B    B9 3376   8.768  20.238  13.091
   99PS8B   B10 3377   8.781  20.353  13.052
   99PS8B   B11 3378   8.758  20.413  12.947
   99PS8B   B12 3379   8.655  20.428  12.872
   99PS8B   B13 3380   8.529  20.407  12.885
   99PS8B   B14 3381   8.457  20.325  12.955
   99PS8B   B15 3382   8.479  20.245  13.054
   99PS8B   B16 3383   8.717  20.427  13.005
   99PS8B   B17 3384   8.657  20.376  13.059
   99PS8B   B18 3385   8.625  20.444  13.008
   99PS8B   B19 3386   8.646  20.321  13.158
   99PS8B   B20 3387   8.694  20.347  13.275
   99PS8B   B21 3388   8.739  20.454  13.333
   99PS8B   B22 3389   8.851  20.489  13.386
   99PS8B   B23 3390   8.898  20.598  13.435
   99PS8B   B24 3391   8.550  20.524  13.005
   99PS8B   B25 3392   8.541  20.646  12.964
   99PS8B   B26 3393   8.621  20.730  12.909
   99PS8B   B27 3394   8.647  20.765  12.788
   99PS8B   B28 3395   8.653  20.877  12.725
   99PS8B   B29 3396   8.381  20.207  13.164
   99PS8B   C30 3397   8.256  20.149  13.193
   99PS8B   C31 3398   8.144  20.048  13.088
   99PS8B   C32 3399   7.976  20.062  13.043
   99PS8B   C33 3400   7.835  20.075  13.145
  100PS8B    C0 3401  17.801  16.567   9.000
  100PS8B    C1 3402  17.842  16.728   9.056
  100PS8B    C2 3403  17.933  16.775   9.198
  100PS8B    C3 3404  17.929  16.924   9.308
  100PS8B    B4 3405  17.946  17.059   9.278
  100PS8B    B5 3406  17.985  17.196   9.332
  100PS8B    B6 3407  18.043  17.221   9.446
  100PS8B    B7 3408  18.121  17.155   9.524
  100PS8B    B8 3409  18.228  17.085   9.509
  100PS8B    B9 3410  18.324  17.081   9.422
  100PS8B   B10 3411  18.363  17.158   9.335
  100PS8B   B11 3412  18.309  17.237   9.257
  100PS8B   B12 3413  18.229  17.337   9.270
  100PS8B   B13 3414  18.190  17.410   9.369
  100PS8B   B14 3415  18.176  17.391   9.496
  100PS8B   B15 3416  18.214  17.300   9.580
  100PS8B   B16 3417  18.350  17.263   9.311
  100PS8B   B17 3418  18.344  17.260   9.406
  100PS8B   B18 3419  18.334  17.340   9.363
  100PS8B   B19 3420  18.387  17.210   9.500
  100PS8B   B20 3421  18.506  17.168   9.526
  100PS8B   B21 3422  18.624  17.194   9.481
  100PS8B   B22 3423  18.717  17.126   9.425
  100PS8B   B23 3424  18.831  17.155   9.371
  100PS8B   B24 3425  18.355  17.447   9.370
  100PS8B   B25 3426  18.390  17.544   9.292
  100PS8B   B26 3427  18.419  17.555   9.168
  100PS8B   B27 3428  18.354  17.586   9.062
  100PS8B   B28 3429  18.370  17.670   8.966
  100PS8B   B29 3430  18.248  17.321   9.727
  100PS8B   C30 3431  18.201  17.365   9.852
  100PS8B   C31 3432  18.030  17.400   9.909
  100PS8B   C32 3433  17.954  17.540   9.982
  100PS8B   C33 3434  17.998  17.627  10.127
  101PS8B    C0 3435   1.175   1.914  19.761
  101PS8B    C1 3436   1.195   1.874  19.592
  101PS8B    C2 3437   1.118   1.747  19.499
  101PS8B    C3 3438   1.171   1.647  19.352
  101PS8B    B4 3439   1.210   1.688  19.224
  101PS8B    B5 3440   1.223   1.647  19.078
  101PS8B    B6 3441   1.170   1.543  19.022
  101PS8B    B7 3442   1.067   1.470  19.044
  101PS8B    B8 3443   0.942   1.493  19.070
  101PS8B    B9 3444   0.860   1.590  19.045
  101PS8B   B10 3445   0.861   1.686  18.970
  101PS8B   B11 3446   0.948   1.762  18.925
  101PS8B   B12 3447   1.058   1.746  18.863
  101PS8B   B13 3448   1.114   1.649  18.800
  101PS8B   B14 3449   1.110   1.520  18.809
  101PS8B   B15 3450   1.033   1.435  18.869
  101PS8B   B16 3451   0.916   1.714  18.880
  101PS8B   B17 3452   0.912   1.619  18.876
  101PS8B   B18 3453   0.955   1.666  18.810
  101PS8B   B19 3454   0.846   1.528  18.896
  101PS8B   B20 3455   0.718   1.513  18.886
  101PS8B   B21 3456   0.624   1.573  18.822
  101PS8B   B22 3457   0.516   1.635  18.855
  101PS8B   B23 3458   0.427   1.703  18.791
  101PS8B   B24 3459   0.977   1.669  18.703
  101PS8B   B25 3460   0.989   1.757  18.609
  101PS8B   B26 3461   0.977   1.884  18.601
  101PS8B   B27 3462   1.057   1.984  18.609
  101PS8B   B28 3463   1.082   2.086  18.535
  101PS8B   B29 3464   0.998   1.295  18.822
  101PS8B   C30 3465   1.048   1.168  18.786
  101PS8B   C31 3466   1.215   1.094  18.813
  101PS8B   C32 3467   1.333   1.023  18.706
  101PS8B   C33 3468   1.314   0.889  18.594
  102PS8B    C0 3469  14.009  22.331  15.856
  102PS8B    C1 3470  14.146  22.395  15.767
  102PS8B    C2 3471  14.293  22.314  15.717
  102PS8B    C3 3472  14.466  22.370  15.689
  102PS8B    B4 3473  14.517  22.468  15.604
  102PS8B    B5 3474  14.640  22.518  15.528
  102PS8B    B6 3475  14.750  22.452  15.507
  102PS8B    B7 3476  14.780  22.327  15.497
  102PS8B    B8 3477  14.731  22.225  15.435
  102PS8B    B9 3478  14.660  22.208  15.329
  102PS8B   B10 3479  14.630  22.278  15.233
  102PS8B   B11 3480  14.609  22.399  15.216
  102PS8B   B12 3481  14.673  22.507  15.242
  102PS8B   B13 3482  14.794  22.536  15.273
  102PS8B   B14 3483  14.889  22.473  15.335
  102PS8B   B15 3484  14.910  22.351  15.372
  102PS8B   B16 3485  14.669  22.370  15.189
  102PS8B   B17 3486  14.746  22.328  15.226
  102PS8B   B18 3487  14.755  22.409  15.183
  102PS8B   B19 3488  14.797  22.228  15.244
  102PS8B   B20 3489  14.799  22.120  15.173
  102PS8B   B21 3490  14.780  22.092  15.049
  102PS8B   B22 3491  14.697  22.018  14.983
  102PS8B   B23 3492  14.672  21.998  14.858
  102PS8B   B24 3493  14.820  22.469  15.120
  102PS8B   B25 3494  14.810  22.552  15.022
  102PS8B   B26 3495  14.714  22.599  14.952
  102PS8B   B27 3496  14.641  22.704  14.957
  102PS8B   B28 3497  14.608  22.797  14.874
  102PS8B   B29 3498  15.044  22.281  15.384
  102PS8B   C30 3499  15.171  22.282  15.444
  102PS8B   C31 3500  15.234  22.377  15.589
  102PS8B   C32 3501  15.369  22.484  15.613
  102PS8B   C33 3502  15.540  22.455  15.585
  103PS8B    C0 3503   4.307   5.633  18.741
  103PS8B    C1 3504   4.249   5.777  18.660
  103PS8B    C2 3505   4.103   5.800  18.567
  103PS8B    C3 3506   4.059   5.909  18.425
  103PS8B    B4 3507   4.062   6.048  18.413
  103PS8B    B5 3508   4.007   6.170  18.340
  103PS8B    B6 3509   3.902   6.173  18.262
  103PS8B    B7 3510   3.794   6.103  18.254
  103PS8B    B8 3511   3.705   6.061  18.337
  103PS8B    B9 3512   3.663   6.100  18.454
  103PS8B   B10 3513   3.673   6.203  18.519
  103PS8B   B11 3514   3.760   6.289  18.533
  103PS8B   B12 3515   3.827   6.365  18.454
  103PS8B   B13 3516   3.816   6.400  18.331
  103PS8B   B14 3517   3.767   6.345  18.225
  103PS8B   B15 3518   3.690   6.243  18.201
  103PS8B   B16 3519   3.699   6.306  18.498
  103PS8B   B17 3520   3.658   6.276  18.417
  103PS8B   B18 3521   3.690   6.362  18.423
  103PS8B   B19 3522   3.574   6.211  18.375
  103PS8B   B20 3523   3.456   6.186  18.419
  103PS8B   B21 3524   3.375   6.245  18.501
  103PS8B   B22 3525   3.318   6.214  18.612
  103PS8B   B23 3526   3.245   6.277  18.697
  103PS8B   B24 3527   3.672   6.465  18.391
  103PS8B   B25 3528   3.682   6.584  18.439
  103PS8B   B26 3529   3.717   6.633  18.552
  103PS8B   B27 3530   3.826   6.680  18.602
  103PS8B   B28 3531   3.861   6.788  18.661
  103PS8B   B29 3532   3.591   6.229  18.088
  103PS8B   C30 3533   3.573   6.227  17.948
  103PS8B   C31 3534   3.696   6.213  17.812
  103PS8B   C32 3535   3.733   6.311  17.672
  103PS8B   C33 3536   3.627   6.362  17.542
  104PS8B    C0 3537   3.220  19.589  21.965
  104PS8B    C1 3538   3.158  19.691  22.093
  104PS8B    C2 3539   3.055  19.648  22.228
  104PS8B    C3 3540   2.929  19.740  22.326
  104PS8B    B4 3541   2.940  19.858  22.400
  104PS8B    B5 3542   2.882  19.941  22.514
  104PS8B    B6 3543   2.796  19.901  22.603
  104PS8B    B7 3544   2.766  19.787  22.655
  104PS8B    B8 3545   2.832  19.689  22.705
  104PS8B    B9 3546   2.947  19.675  22.761
  104PS8B   B10 3547   3.029  19.752  22.809
  104PS8B   B11 3548   3.066  19.867  22.784
  104PS8B   B12 3549   3.007  19.980  22.771
  104PS8B   B13 3550   2.891  20.027  22.800
  104PS8B   B14 3551   2.773  19.975  22.811
  104PS8B   B15 3552   2.725  19.855  22.819
  104PS8B   B16 3553   3.028  19.855  22.845
  104PS8B   B17 3554   2.940  19.823  22.863
  104PS8B   B18 3555   2.962  19.910  22.883
  104PS8B   B19 3556   2.879  19.733  22.897
  104PS8B   B20 3557   2.907  19.640  22.981
  104PS8B   B21 3558   2.988  19.628  23.081
  104PS8B   B22 3559   3.086  19.550  23.110
  104PS8B   B23 3560   3.173  19.545  23.206
  104PS8B   B24 3561   2.946  19.990  22.956
  104PS8B   B25 3562   3.014  20.083  23.013
  104PS8B   B26 3563   3.136  20.121  23.011
  104PS8B   B27 3564   3.203  20.209  22.945
  104PS8B   B28 3565   3.283  20.305  22.977
  104PS8B   B29 3566   2.602  19.811  22.894
  104PS8B   C30 3567   2.462  19.827  22.909
  104PS8B   C31 3568   2.340  19.908  22.799
  104PS8B   C32 3569   2.221  20.035  22.823
  104PS8B   C33 3570   2.091  20.044  22.940
  105PS8B    C0 3571   1.994   3.433  15.111
  105PS8B    C1 3572   1.923   3.588  15.154
  105PS8B    C2 3573   1.927   3.739  15.066
  105PS8B    C3 3574   1.924   3.916  15.117
  105PS8B    B4 3575   1.831   3.988  15.192
  105PS8B    B5 3576   1.773   4.125  15.224
  105PS8B    B6 3577   1.792   4.234  15.156
  105PS8B    B7 3578   1.820   4.261  15.034
  105PS8B    B8 3579   1.775   4.223  14.919
  105PS8B    B9 3580   1.663   4.176  14.876
  105PS8B   B10 3581   1.549   4.170  14.920
  105PS8B   B11 3582   1.499   4.156  15.033
  105PS8B   B12 3583   1.511   4.217  15.145
  105PS8B   B13 3584   1.560   4.330  15.182
  105PS8B   B14 3585   1.654   4.407  15.138
  105PS8B   B15 3586   1.723   4.416  15.029
  105PS8B   B16 3587   1.494   4.220  14.999
  105PS8B   B17 3588   1.555   4.286  14.969
  105PS8B   B18 3589   1.497   4.306  15.037
  105PS8B   B19 3590   1.608   4.328  14.876
  105PS8B   B20 3591   1.567   4.341  14.755
  105PS8B   B21 3592   1.451   4.348  14.697
  105PS8B   B22 3593   1.390   4.279  14.608
  105PS8B   B23 3594   1.271   4.280  14.558
  105PS8B   B24 3595   1.437   4.386  15.081
  105PS8B   B25 3596   1.322   4.400  15.137
  105PS8B   B26 3597   1.224   4.322  15.164
  105PS8B   B27 3598   1.188   4.253  15.267
  105PS8B   B28 3599   1.080   4.242  15.336
  105PS8B   B29 3600   1.779   4.542  14.966
  105PS8B   C30 3601   1.864   4.653  14.984
  105PS8B   C31 3602   1.991   4.687  15.112
  105PS8B   C32 3603   2.017   4.819  15.225
  105PS8B   C33 3604   2.034   4.990  15.192
  106PS8B    C0 3605   5.610  -0.672   4.830
  106PS8B    C1 3606   5.740  -0.573   4.894
  106PS8B    C2 3607   5.768  -0.402   4.874
  106PS8B    C3 3608   5.921  -0.298   4.869
  106PS8B    B4 3609   6.022  -0.281   4.964
  106PS8B    B5 3610   6.133  -0.190   5.015
  106PS8B    B6 3611   6.151  -0.065   4.984
  106PS8B    B7 3612   6.075   0.031   4.945
  106PS8B    B8 3613   5.961   0.078   4.982
  106PS8B    B9 3614   5.895   0.080   5.094
  106PS8B   B10 3615   5.923   0.059   5.211
  106PS8B   B11 3616   6.000  -0.018   5.270
  106PS8B   B12 3617   6.125  -0.043   5.263
  106PS8B   B13 3618   6.227   0.016   5.210
  106PS8B   B14 3619   6.245   0.093   5.109
  106PS8B   B15 3620   6.167   0.162   5.030
  106PS8B   B16 3621   6.014   0.054   5.269
  106PS8B   B17 3622   6.034   0.117   5.201
  106PS8B   B18 3623   6.098   0.095   5.263
  106PS8B   B19 3624   5.991   0.203   5.139
  106PS8B   B20 3625   5.905   0.294   5.169
  106PS8B   B21 3626   5.862   0.346   5.279
  106PS8B   B22 3627   5.748   0.356   5.337
  106PS8B   B23 3628   5.708   0.400   5.451
  106PS8B   B24 3629   6.182   0.134   5.321
  106PS8B   B25 3630   6.231   0.121   5.439
  106PS8B   B26 3631   6.201   0.054   5.544
  106PS8B   B27 3632   6.235  -0.060   5.593
  106PS8B   B28 3633   6.279  -0.101   5.707
  106PS8B   B29 3634   6.200   0.293   4.962
  106PS8B   C30 3635   6.287   0.359   4.873
  106PS8B   C31 3636   6.410   0.291   4.753
  106PS8B   C32 3637   6.581   0.318   4.729
  106PS8B   C33 3638   6.665   0.469   4.698
  107PS8B    C0 3639  18.054  13.618  16.044
  107PS8B    C1 3640  18.058  13.590  15.871
  107PS8B    C2 3641  18.187  13.623  15.758
  107PS8B    C3 3642  18.191  13.666  15.578
  107PS8B    B4 3643  18.140  13.598  15.467
  107PS8B    B5 3644  18.150  13.577  15.317
  107PS8B    B6 3645  18.246  13.617  15.239
  107PS8B    B7 3646  18.372  13.641  15.256
  107PS8B    B8 3647  18.470  13.580  15.313
  107PS8B    B9 3648  18.497  13.456  15.342
  107PS8B   B10 3649  18.453  13.348  15.306
  107PS8B   B11 3650  18.341  13.305  15.274
  107PS8B   B12 3651  18.252  13.340  15.189
  107PS8B   B13 3652  18.250  13.417  15.086
  107PS8B   B14 3653  18.315  13.523  15.050
  107PS8B   B15 3654  18.421  13.584  15.091
  107PS8B   B16 3655  18.393  13.312  15.223
  107PS8B   B17 3656  18.441  13.385  15.186
  107PS8B   B18 3657  18.381  13.339  15.134
  107PS8B   B19 3658  18.542  13.439  15.186
  107PS8B   B20 3659  18.662  13.394  15.199
  107PS8B   B21 3660  18.718  13.279  15.181
  107PS8B   B22 3661  18.783  13.196  15.255
  107PS8B   B23 3662  18.831  13.078  15.238
  107PS8B   B24 3663  18.363  13.303  15.033
  107PS8B   B25 3664  18.313  13.199  14.975
  107PS8B   B26 3665  18.264  13.088  15.015
  107PS8B   B27 3666  18.146  13.044  15.040
  107PS8B   B28 3667  18.077  12.942  15.004
  107PS8B   B29 3668  18.519  13.663  15.006
  107PS8B   C30 3669  18.535  13.772  14.919
  107PS8B   C31 3670  18.423  13.914  14.883
  107PS8B   C32 3671  18.354  13.978  14.735
  107PS8B   C33 3672  18.435  14.033  14.590
  108PS8B    C0 3673   1.961   2.384   2.355
  108PS8B    C1 3674   2.064   2.499   2.438
  108PS8B    C2 3675   2.090   2.517   2.611
  108PS8B    C3 3676   2.132   2.661   2.718
  108PS8B    B4 3677   2.240   2.749   2.715
  108PS8B    B5 3678   2.326   2.847   2.794
  108PS8B    B6 3679   2.329   2.859   2.923
  108PS8B    B7 3680   2.305   2.781   3.023
  108PS8B    B8 3681   2.338   2.661   3.055
  108PS8B    B9 3682   2.437   2.582   3.026
  108PS8B   B10 3683   2.548   2.597   2.977
  108PS8B   B11 3684   2.596   2.672   2.891
  108PS8B   B12 3685   2.600   2.799   2.873
  108PS8B   B13 3686   2.577   2.902   2.947
  108PS8B   B14 3687   2.500   2.926   3.048
  108PS8B   B15 3688   2.432   2.854   3.131
  108PS8B   B16 3689   2.615   2.682   2.960
  108PS8B   B17 3690   2.568   2.705   3.040
  108PS8B   B18 3691   2.630   2.763   3.005
  108PS8B   B19 3692   2.523   2.664   3.137
  108PS8B   B20 3693   2.563   2.568   3.213
  108PS8B   B21 3694   2.676   2.509   3.235
  108PS8B   B22 3695   2.720   2.389   3.224
  108PS8B   B23 3696   2.835   2.332   3.237
  108PS8B   B24 3697   2.707   2.836   3.032
  108PS8B   B25 3698   2.823   2.872   2.991
  108PS8B   B26 3699   2.903   2.834   2.898
  108PS8B   B27 3700   2.926   2.871   2.777
  108PS8B   B28 3701   3.031   2.904   2.710
  108PS8B   B29 3702   2.403   2.885   3.276
  108PS8B   C30 3703   2.345   2.976   3.367
  108PS8B   C31 3704   2.230   3.117   3.336
  108PS8B   C32 3705   2.235   3.287   3.376
  108PS8B   C33 3706   2.255   3.364   3.532
  109PS8B    C0 3707  17.776   6.083  19.146
  109PS8B    C1 3708  17.627   6.026  19.219
  109PS8B    C2 3709  17.560   6.064  19.377
  109PS8B    C3 3710  17.454   5.970  19.495
  109PS8B    B4 3711  17.327   5.914  19.479
  109PS8B    B5 3712  17.200   5.868  19.549
  109PS8B    B6 3713  17.165   5.893  19.672
  109PS8B    B7 3714  17.191   5.987  19.756
  109PS8B    B8 3715  17.191   6.116  19.752
  109PS8B    B9 3716  17.131   6.206  19.681
  109PS8B   B10 3717  17.034   6.205  19.606
  109PS8B   B11 3718  16.984   6.124  19.527
  109PS8B   B12 3719  16.945   6.002  19.536
  109PS8B   B13 3720  16.918   5.922  19.632
  109PS8B   B14 3721  16.960   5.909  19.754
  109PS8B   B15 3722  17.028   5.982  19.836
  109PS8B   B16 3723  16.949   6.139  19.589
  109PS8B   B17 3724  16.969   6.128  19.682
  109PS8B   B18 3725  16.900   6.080  19.643
  109PS8B   B19 3726  17.002   6.182  19.776
  109PS8B   B20 3727  16.979   6.302  19.818
  109PS8B   B21 3728  16.888   6.391  19.793
  109PS8B   B22 3729  16.888   6.511  19.747
  109PS8B   B23 3730  16.796   6.595  19.714
  109PS8B   B24 3731  16.801   6.039  19.661
  109PS8B   B25 3732  16.690   6.023  19.597
  109PS8B   B26 3733  16.648   6.053  19.480
  109PS8B   B27 3734  16.640   5.991  19.368
  109PS8B   B28 3735  16.547   5.968  19.282
  109PS8B   B29 3736  17.014   5.986  19.987
  109PS8B   C30 3737  17.020   5.912  20.106
  109PS8B   C31 3738  17.089   5.744  20.139
  109PS8B   C32 3739  17.022   5.598  20.210
  109PS8B   C33 3740  16.948   5.575  20.366
  110PS8B    C0 3741   4.582  13.177   7.890
  110PS8B    C1 3742   4.512  13.210   8.048
  110PS8B    C2 3743   4.344  13.232   8.091
  110PS8B    C3 3744   4.258  13.330   8.222
  110PS8B    B4 3745   4.271  13.327   8.361
  110PS8B    B5 3746   4.205  13.357   8.495
  110PS8B    B6 3747   4.079  13.383   8.514
  110PS8B    B7 3748   3.969  13.354   8.452
  110PS8B    B8 3749   3.918  13.247   8.403
  110PS8B    B9 3750   3.930  13.120   8.427
  110PS8B   B10 3751   3.976  13.054   8.519
  110PS8B   B11 3752   4.071  13.067   8.597
  110PS8B   B12 3753   4.107  13.158   8.680
  110PS8B   B13 3754   4.052  13.261   8.733
  110PS8B   B14 3755   3.958  13.342   8.696
  110PS8B   B15 3756   3.868  13.343   8.603
  110PS8B   B16 3757   4.003  13.072   8.622
  110PS8B   B17 3758   3.930  13.131   8.606
  110PS8B   B18 3759   3.970  13.130   8.689
  110PS8B   B19 3760   3.830  13.143   8.553
  110PS8B   B20 3761   3.737  13.056   8.528
  110PS8B   B21 3762   3.703  12.943   8.578
  110PS8B   B22 3763   3.692  12.822   8.534
  110PS8B   B23 3764   3.666  12.708   8.588
  110PS8B   B24 3765   3.952  13.140   8.796
  110PS8B   B25 3766   3.993  13.087   8.906
  110PS8B   B26 3767   4.076  12.994   8.937
  110PS8B   B27 3768   4.200  12.989   8.970
  110PS8B   B28 3769   4.267  12.937   9.067
  110PS8B   B29 3770   3.731  13.407   8.611
  110PS8B   C30 3771   3.659  13.526   8.630
  110PS8B   C31 3772   3.715  13.701   8.630
  110PS8B   C32 3773   3.703  13.832   8.745
  110PS8B   C33 3774   3.559  13.901   8.819
  111PS8B    C0 3775   4.528  11.266  -0.240
  111PS8B    C1 3776   4.519  11.375  -0.103
  111PS8B    C2 3777   4.470  11.543  -0.100
  111PS8B    C3 3778   4.516  11.687   0.006
  111PS8B    B4 3779   4.508  11.705   0.145
  111PS8B    B5 3780   4.499  11.805   0.259
  111PS8B    B6 3781   4.472  11.932   0.248
  111PS8B    B7 3782   4.408  12.004   0.164
  111PS8B    B8 3783   4.293  11.997   0.106
  111PS8B    B9 3784   4.179  11.941   0.133
  111PS8B   B10 3785   4.130  11.893   0.234
  111PS8B   B11 3786   4.173  11.831   0.333
  111PS8B   B12 3787   4.264  11.852   0.420
  111PS8B   B13 3788   4.333  11.954   0.457
  111PS8B   B14 3789   4.374  12.062   0.399
  111PS8B   B15 3790   4.347  12.123   0.288
  111PS8B   B16 3791   4.149  11.899   0.341
  111PS8B   B17 3792   4.176  11.984   0.308
  111PS8B   B18 3793   4.184  11.965   0.398
  111PS8B   B19 3794   4.151  12.066   0.233
  111PS8B   B20 3795   4.038  12.109   0.189
  111PS8B   B21 3796   3.916  12.106   0.232
  111PS8B   B22 3797   3.805  12.057   0.188
  111PS8B   B23 3798   3.686  12.046   0.236
  111PS8B   B24 3799   4.178  12.008   0.498
  111PS8B   B25 3800   4.137  11.975   0.615
  111PS8B   B26 3801   4.081  11.871   0.665
  111PS8B   B27 3802   4.122  11.765   0.726
  111PS8B   B28 3803   4.094  11.706   0.836
  111PS8B   B29 3804   4.351  12.272   0.262
  111PS8B   C30 3805   4.430  12.388   0.263
  111PS8B   C31 3806   4.613  12.407   0.273
  111PS8B   C32 3807   4.719  12.496   0.380
  111PS8B   C33 3808   4.720  12.667   0.418
  112PS8B    C0 3809  20.182   0.431   3.874
  112PS8B    C1 3810  20.109   0.551   3.770
  112PS8B    C2 3811  20.163   0.714   3.736
  112PS8B    C3 3812  20.075   0.871   3.692
  112PS8B    B4 3813  19.989   0.900   3.586
  112PS8B    B5 3814  19.931   1.010   3.498
  112PS8B    B6 3815  19.973   1.132   3.489
  112PS8B    B7 3816  20.086   1.191   3.507
  112PS8B    B8 3817  20.208   1.169   3.470
  112PS8B    B9 3818  20.264   1.106   3.372
  112PS8B   B10 3819  20.225   1.064   3.264
  112PS8B   B11 3820  20.120   1.016   3.221
  112PS8B   B12 3821  19.997   1.052   3.220
  112PS8B   B13 3822  19.935   1.163   3.242
  112PS8B   B14 3823  19.958   1.268   3.313
  112PS8B   B15 3824  20.061   1.315   3.376
  112PS8B   B16 3825  20.140   1.082   3.199
  112PS8B   B17 3826  20.153   1.166   3.243
  112PS8B   B18 3827  20.084   1.156   3.183
  112PS8B   B19 3828  20.232   1.238   3.282
  112PS8B   B20 3829  20.350   1.267   3.237
  112PS8B   B21 3830  20.408   1.258   3.122
  112PS8B   B22 3831  20.512   1.197   3.077
  112PS8B   B23 3832  20.564   1.180   2.960
  112PS8B   B24 3833  20.026   1.208   3.107
  112PS8B   B25 3834  19.972   1.182   2.993
  112PS8B   B26 3835  19.965   1.079   2.917
  112PS8B   B27 3836  19.881   0.984   2.900
  112PS8B   B28 3837  19.819   0.933   2.799
  112PS8B   B29 3838  20.094   1.461   3.400
  112PS8B   C30 3839  20.050   1.583   3.455
  112PS8B   C31 3840  19.914   1.618   3.574
  112PS8B   C32 3841  19.775   1.725   3.570
  112PS8B   C33 3842  19.770   1.898   3.545
  113PS8B    C0 3843   0.279   3.942  10.021
  113PS8B    C1 3844   0.435   3.889   9.961
  113PS8B    C2 3845   0.587   3.975   9.961
  113PS8B    C3 3846   0.735   3.972   9.851
  113PS8B    B4 3847   0.819   3.867   9.814
  113PS8B    B5 3848   0.957   3.827   9.763
  113PS8B    B6 3849   1.062   3.904   9.757
  113PS8B    B7 3850   1.102   4.008   9.822
  113PS8B    B8 3851   1.112   4.040   9.947
  113PS8B    B9 3852   1.124   3.975  10.058
  113PS8B   B10 3853   1.154   3.860  10.087
  113PS8B   B11 3854   1.136   3.749  10.035
  113PS8B   B12 3855   1.161   3.698   9.921
  113PS8B   B13 3856   1.234   3.731   9.820
  113PS8B   B14 3857   1.275   3.843   9.771
  113PS8B   B15 3858   1.279   3.965   9.812
  113PS8B   B16 3859   1.203   3.777  10.037
  113PS8B   B17 3860   1.244   3.854   9.999
  113PS8B   B18 3861   1.270   3.771   9.971
  113PS8B   B19 3862   1.282   3.960  10.022
  113PS8B   B20 3863   1.336   4.008  10.128
  113PS8B   B21 3864   1.401   3.959  10.229
  113PS8B   B22 3865   1.383   3.957  10.356
  113PS8B   B23 3866   1.443   3.900  10.455
  113PS8B   B24 3867   1.355   3.712   9.936
  113PS8B   B25 3868   1.401   3.592   9.949
  113PS8B   B26 3869   1.364   3.487  10.013
  113PS8B   B27 3870   1.295   3.383   9.985
  113PS8B   B28 3871   1.313   3.256   9.996
  113PS8B   B29 3872   1.383   4.070   9.776
  113PS8B   C30 3873   1.445   4.142   9.672
  113PS8B   C31 3874   1.396   4.163   9.496
  113PS8B   C32 3875   1.478   4.134   9.344
  113PS8B   C33 3876   1.631   4.198   9.287
  114PS8B    C0 3877   2.984  15.975  13.644
  114PS8B    C1 3878   3.019  16.079  13.508
  114PS8B    C2 3879   3.145  16.064  13.388
  114PS8B    C3 3880   3.240  16.187  13.287
  114PS8B    B4 3881   3.195  16.284  13.197
  114PS8B    B5 3882   3.231  16.371  13.077
  114PS8B    B6 3883   3.336  16.357  13.000
  114PS8B    B7 3884   3.411  16.259  12.967
  114PS8B    B8 3885   3.392  16.138  12.926
  114PS8B    B9 3886   3.296  16.076  12.865
  114PS8B   B10 3887   3.198  16.111  12.801
  114PS8B   B11 3888   3.119  16.206  12.807
  114PS8B   B12 3889   3.131  16.334  12.809
  114PS8B   B13 3890   3.225  16.417  12.782
  114PS8B   B14 3891   3.354  16.413  12.786
  114PS8B   B15 3892   3.443  16.319  12.798
  114PS8B   B16 3893   3.166  16.203  12.752
  114PS8B   B17 3894   3.261  16.205  12.744
  114PS8B   B18 3895   3.211  16.275  12.711
  114PS8B   B19 3896   3.354  16.141  12.727
  114PS8B   B20 3897   3.372  16.036  12.655
  114PS8B   B21 3898   3.313  15.985  12.552
  114PS8B   B22 3899   3.254  15.874  12.527
  114PS8B   B23 3900   3.187  15.827  12.427
  114PS8B   B24 3901   3.205  16.347  12.629
  114PS8B   B25 3902   3.115  16.402  12.555
  114PS8B   B26 3903   2.988  16.391  12.544
  114PS8B   B27 3904   2.886  16.453  12.592
  114PS8B   B28 3905   2.781  16.509  12.542
  114PS8B   B29 3906   3.582  16.318  12.738
  114PS8B   C30 3907   3.706  16.383  12.732
  114PS8B   C31 3908   3.777  16.516  12.838
  114PS8B   C32 3909   3.843  16.674  12.804
  114PS8B   C33 3910   3.974  16.719  12.697
  115PS8B    C0 3911   1.391   2.883  16.992
  115PS8B    C1 3912   1.521   2.767  17.011
  115PS8B    C2 3913   1.662   2.743  16.910
  115PS8B    C3 3914   1.765   2.595  16.870
  115PS8B    B4 3915   1.836   2.508  16.953
  115PS8B    B5 3916   1.952   2.409  16.963
  115PS8B    B6 3917   2.046   2.392  16.875
  115PS8B    B7 3918   2.102   2.466  16.786
  115PS8B    B8 3919   2.150   2.585  16.783
  115PS8B    B9 3920   2.200   2.666  16.870
  115PS8B   B10 3921   2.242   2.654  16.984
  115PS8B   B11 3922   2.213   2.583  17.082
  115PS8B   B12 3923   2.200   2.457  17.101
  115PS8B   B13 3924   2.235   2.351  17.037
  115PS8B   B14 3925   2.254   2.323  16.912
  115PS8B   B15 3926   2.267   2.391  16.803
  115PS8B   B16 3927   2.275   2.571  17.047
  115PS8B   B17 3928   2.299   2.544  16.958
  115PS8B   B18 3929   2.317   2.489  17.029
  115PS8B   B19 3930   2.338   2.581  16.858
  115PS8B   B20 3931   2.423   2.674  16.829
  115PS8B   B21 3932   2.518   2.734  16.893
  115PS8B   B22 3933   2.543   2.855  16.927
  115PS8B   B23 3934   2.634   2.913  16.998
  115PS8B   B24 3935   2.388   2.416  17.068
  115PS8B   B25 3936   2.439   2.383  17.181
  115PS8B   B26 3937   2.430   2.425  17.302
  115PS8B   B27 3938   2.359   2.393  17.404
  115PS8B   B28 3939   2.384   2.364  17.527
  115PS8B   B29 3940   2.350   2.353  16.682
  115PS8B   C30 3941   2.372   2.258  16.581
  115PS8B   C31 3942   2.267   2.117  16.525
  115PS8B   C32 3943   2.296   1.945  16.507
  115PS8B   C33 3944   2.419   1.863  16.415
  116PS8B    C0 3945  21.584  18.342   7.035
  116PS8B    C1 3946  21.515  18.303   6.878
  116PS8B    C2 3947  21.528  18.392   6.728
  116PS8B    C3 3948  21.416  18.411   6.582
  116PS8B    B4 3949  21.362  18.315   6.496
  116PS8B    B5 3950  21.304  18.288   6.357
  116PS8B    B6 3951  21.310  18.367   6.254
  116PS8B    B7 3952  21.390  18.459   6.216
  116PS8B    B8 3953  21.518  18.471   6.205
  116PS8B    B9 3954  21.617  18.389   6.190
  116PS8B   B10 3955  21.627  18.271   6.157
  116PS8B   B11 3956  21.557  18.170   6.173
  116PS8B   B12 3957  21.436  18.139   6.148
  116PS8B   B13 3958  21.341  18.190   6.078
  116PS8B   B14 3959  21.310  18.310   6.040
  116PS8B   B15 3960  21.371  18.424   6.038
  116PS8B   B16 3961  21.563  18.199   6.106
  116PS8B   B17 3962  21.538  18.283   6.068
  116PS8B   B18 3963  21.496  18.206   6.041
  116PS8B   B19 3964  21.578  18.384   6.033
  116PS8B   B20 3965  21.690  18.416   5.978
  116PS8B   B21 3966  21.780  18.352   5.911
  116PS8B   B22 3967  21.906  18.329   5.926
  116PS8B   B23 3968  21.993  18.257   5.864
  116PS8B   B24 3969  21.452  18.155   5.955
  116PS8B   B25 3970  21.444  18.036   5.906
  116PS8B   B26 3971  21.490  17.921   5.939
  116PS8B   B27 3972  21.446  17.821   6.007
  116PS8B   B28 3973  21.435  17.695   5.986
  116PS8B   B29 3974  21.352  18.535   5.937
  116PS8B   C30 3975  21.261  18.625   5.878
  116PS8B   C31 3976  21.091  18.673   5.930
  116PS8B   C32 3977  20.935  18.672   5.850
  116PS8B   C33 3978  20.888  18.748   5.699
  117PS8B    C0 3979   7.185  12.274   3.274
  117PS8B    C1 3980   7.239  12.149   3.164
  117PS8B    C2 3981   7.150  12.070   3.035
  117PS8B    C3 3982   7.159  11.902   2.960
  117PS8B    B4 3983   7.265  11.835   2.898
  117PS8B    B5 3984   7.305  11.726   2.800
  117PS8B    B6 3985   7.227  11.665   2.715
  117PS8B    B7 3986   7.118  11.697   2.655
  117PS8B    B8 3987   7.076  11.799   2.588
  117PS8B    B9 3988   7.132  11.894   2.520
  117PS8B   B10 3989   7.243  11.911   2.473
  117PS8B   B11 3990   7.359  11.881   2.507
  117PS8B   B12 3991   7.418  11.772   2.538
  117PS8B   B13 3992   7.391  11.646   2.525
  117PS8B   B14 3993   7.282  11.577   2.519
  117PS8B   B15 3994   7.157  11.604   2.503
  117PS8B   B16 3995   7.328  11.848   2.450
  117PS8B   B17 3996   7.254  11.791   2.437
  117PS8B   B18 3997   7.338  11.758   2.423
  117PS8B   B19 3998   7.146  11.787   2.399
  117PS8B   B20 3999   7.088  11.850   2.302
  117PS8B   B21 4000   7.128  11.909   2.195
  117PS8B   B22 4001   7.120  12.028   2.148
  117PS8B   B23 4002   7.169  12.089   2.045
  117PS8B   B24 4003   7.398  11.690   2.362
  117PS8B   B25 4004   7.515  11.686   2.309
  117PS8B   B26 4005   7.616  11.766   2.304
  117PS8B   B27 4006   7.724  11.781   2.372
  117PS8B   B28 4007   7.849  11.789   2.344
  117PS8B   B29 4008   7.053  11.516   2.435
  117PS8B   C30 4009   6.988  11.391   2.436
  117PS8B   C31 4010   6.982  11.260   2.565
  117PS8B   C32 4011   7.021  11.090   2.565
  117PS8B   C33 4012   6.958  10.962   2.463
  118PS8B    C0 4013   9.638  10.959   0.406
  118PS8B    C1 4014   9.719  11.114   0.408
  118PS8B    C2 4015   9.880  11.154   0.352
  118PS8B    C3 4016  10.005  11.280   0.405
  118PS8B    B4 4017   9.996  11.419   0.411
  118PS8B    B5 4018  10.073  11.551   0.411
  118PS8B    B6 4019  10.198  11.567   0.378
  118PS8B    B7 4020  10.280  11.505   0.301
  118PS8B    B8 4021  10.276  11.459   0.181
  118PS8B    B9 4022  10.209  11.487   0.074
  118PS8B   B10 4023  10.140  11.582   0.038
  118PS8B   B11 4024  10.064  11.662   0.095
  118PS8B   B12 4025  10.075  11.742   0.195
  118PS8B   B13 4026  10.173  11.790   0.263
  118PS8B   B14 4027  10.292  11.749   0.292
  118PS8B   B15 4028  10.370  11.655   0.250
  118PS8B   B16 4029  10.128  11.686   0.069
  118PS8B   B17 4030  10.219  11.667   0.089
  118PS8B   B18 4031  10.185  11.750   0.108
  118PS8B   B19 4032  10.312  11.611   0.052
  118PS8B   B20 4033  10.355  11.588  -0.067
  118PS8B   B21 4034  10.336  11.642  -0.183
  118PS8B   B22 4035  10.290  11.603  -0.296
  118PS8B   B23 4036  10.262  11.660  -0.409
  118PS8B   B24 4037  10.209  11.856   0.112
  118PS8B   B25 4038  10.152  11.968   0.086
  118PS8B   B26 4039  10.037  12.004   0.041
  118PS8B   B27 4040   9.925  12.039   0.094
  118PS8B   B28 4041   9.845  12.139   0.080
  118PS8B   B29 4042  10.521  11.658   0.245
  118PS8B   C30 4043  10.640  11.672   0.319
  118PS8B   C31 4044  10.669  11.666   0.500
  118PS8B   C32 4045  10.743  11.776   0.615
  118PS8B   C33 4046  10.904  11.845   0.613
  119PS8B    C0 4047  20.191  15.347   3.206
  119PS8B    C1 4048  20.290  15.325   3.349
  119PS8B    C2 4049  20.348  15.447   3.461
  119PS8B    C3 4050  20.499  15.459   3.568
  119PS8B    B4 4051  20.547  15.374   3.668
  119PS8B    B5 4052  20.633  15.363   3.793
  119PS8B    B6 4053  20.681  15.462   3.863
  119PS8B    B7 4054  20.646  15.583   3.884
  119PS8B    B8 4055  20.536  15.643   3.915
  119PS8B    B9 4056  20.427  15.609   3.976
  119PS8B   B10 4057  20.395  15.515   4.047
  119PS8B   B11 4058  20.424  15.395   4.053
  119PS8B   B12 4059  20.533  15.329   4.061
  119PS8B   B13 4060  20.655  15.357   4.091
  119PS8B   B14 4061  20.728  15.463   4.080
  119PS8B   B15 4062  20.707  15.588   4.055
  119PS8B   B16 4063  20.447  15.440   4.105
  119PS8B   B17 4064  20.505  15.515   4.108
  119PS8B   B18 4065  20.530  15.437   4.150
  119PS8B   B19 4066  20.509  15.629   4.115
  119PS8B   B20 4067  20.432  15.712   4.177
  119PS8B   B21 4068  20.352  15.704   4.278
  119PS8B   B22 4069  20.227  15.725   4.296
  119PS8B   B23 4070  20.145  15.708   4.395
  119PS8B   B24 4071  20.581  15.397   4.237
  119PS8B   B25 4072  20.568  15.299   4.320
  119PS8B   B26 4073  20.483  15.205   4.337
  119PS8B   B27 4074  20.475  15.082   4.300
  119PS8B   B28 4075  20.455  14.970   4.359
  119PS8B   B29 4076  20.786  15.706   4.108
  119PS8B   C30 4077  20.913  15.768   4.114
  119PS8B   C31 4078  21.065  15.737   4.016
  119PS8B   C32 4079  21.231  15.699   4.060
  119PS8B   C33 4080  21.340  15.787   4.164
  120W        W 4081   0.084   3.595   3.359
  121W        W 4082   0.460   2.488   2.882
  122W        W 4083   3.165   2.218   0.652
  123W        W 4084   3.295   3.303   2.679
  124W        W 4085   1.213   3.294   0.205
  125W        W 4086   1.296   1.446   1.188
  126W        W 4087   0.811   1.294   1.352
  127W        W 4088   1.802   2.109   0.786
  128W        W 4089   1.477   3.201   3.141
  129W        W 4090   0.126   0.762   3.104
  130W        W 4091   0.888   0.042   2.906
  131W        W 4092   2.582   0.430   1.793
  132W        W 4093   2.231   1.301   0.363
  133W        W 4094   2.801   0.735   3.454
  134W        W 4095   0.167   0.527   2.579
  135W        W 4096   0.266   3.146   3.600
  136W        W 4097   1.788   2.536   0.332
  137W        W 4098   0.220   1.319   2.025
  138W        W 4099   1.113   1.210   3.262
  139W        W 4100   3.572   1.069   1.761
  140W        W 4101   3.336   2.112   2.620
  141W        W 4102   1.644   1.445   1.647
  142W        W 4103   2.190   2.784   2.016
  143W        W 4104   0.690   2.218   2.248
  144W        W 4105   0.049   1.746   1.819
  145W        W 4106   1.085   1.718   3.011
  146W        W 4107   3.356   1.501   3.265
  147W        W 4108   0.972   2.945   1.710
  148W        W 4109   1.313   1.274   2.069
  149W        W 4110   1.605   2.058   1.712
  150W        W 4111   2.602   2.831   3.560
  151W        W 4112   1.681   2.151   3.570
  152W        W 4113   1.662   1.867   3.048
  153W        W 4114   0.071   1.258   3.570
  154W        W 4115   2.903   2.793   3.169
  155W        W 4116   0.484   0.375   1.167
  156W        W 4117   1.011   2.633   2.166
  157W        W 4118   3.474   2.416   1.456
  158W        W 4119   2.887   0.816   2.023
  159W        W 4120   3.172   0.769   0.118
  160W        W 4121   3.637   1.570   2.424
  161W        W 4122   1.604   3.277   2.177
  162W        W 4123   3.378   2.743   0.615
  163W        W 4124   0.507   3.529   0.369
  164W        W 4125   0.900   3.575   1.045
  165W        W 4126   0.697   0.329   2.471
  166W        W 4127   3.320   1.347   2.746
  167W        W 4128   2.725   1.769   1.205
  168W        W 4129   2.691   1.457   0.232
  169W        W 4130   1.899   2.601   2.372
  170W        W 4131   1.705   0.931   1.571
  171W        W 4132   2.305   3.018   2.565
  172W        W 4133   3.176   1.809   0.987
  173W        W 4134   2.078   0.467   1.003
  174W        W 4135   0.735   3.161   0.686
  175W        W 4136   0.106   0.660   1.285
  176W        W 4137   2.892   1.267   1.759
  177W        W 4138   0.350   2.884   1.674
  178W        W 4139   1.691   3.234   0.544
  179W        W 4140   3.083   1.260   0.008
  180W        W 4141   0.106   3.018   2.172
  181W        W 4142   0.897   2.590   2.652
  182W        W 4143   1.270   1.950   1.271
  183W        W 4144   1.292   0.355   2.364
  184W        W 4145   3.521   0.117   1.661
  185W        W 4146   0.740   1.989   0.129
  186W        W 4147   0.395   1.022   0.308
  187W        W 4148   0.457   2.978   1.102
  188W        W 4149   1.588   2.461   1.350
  189W        W 4150   2.920   3.320   3.064
  190W        W 4151   1.846   0.962   0.748
  191W        W 4152   3.229   3.360   1.520
  192W        W 4153   2.906   1.213   3.118
  193W        W 4154   3.619   2.869   1.252
  194W        W 4155   2.246   2.161   2.736
  195W        W 4156   0.012   1.712   0.942
  196W        W 4157   1.123   2.127   2.515
  197W        W 4158   2.327   1.391   0.893
  198W        W 4159   2.204   1.881   0.997
  199W        W 4160   0.547   1.301   2.471
  200W        W 4161   0.532   1.177   3.393
  201W        W 4162   0.422   0.094   1.552
  202W        W 4163   2.190   0.441   2.113
  203W        W 4164   1.838   0.626   3.276
  204W        W 4165   2.193   0.775   0.454
  205W        W 4166   3.376   3.168   3.208
  206W        W 4167   2.343   0.249   3.247
  207W        W 4168   3.362   2.550   3.369
  208W        W 4169   2.792   0.717   2.965
  209W        W 4170   2.592   0.655   1.235
  210W        W 4171   2.985   1.789   3.639
  211W        W 4172   0.725   3.365   1.625
  212W        W 4173   1.383   1.082   0.611
  213W        W 4174   0.952   0.366   3.275
  214W        W 4175   3.004   0.850   0.956
  215W        W 4176   3.371   1.332   0.901
  216W        W 4177   1.114   3.549   3.372
  217W        W 4178   1.040   0.085   0.607
  218W        W 4179   3.361   0.619   1.642
  219W        W 4180   3.511   2.868   0.087
  220W        W 4181   0.418   2.071   1.789
  221W        W 4182   2.335   0.658   0.019
  222W        W 4183   3.469   2.990   1.739
  223W        W 4184   3.508   0.184   2.489
  224W        W 4185   1.953   1.396   3.043
  225W        W 4186   2.046   2.735   0.746
  226W        W 4187   2.446   2.029   3.486
  227W        W 4188   2.120   0.006   1.795
  228W        W 4189   0.732   0.909   1.858
  229W        W 4190   0.286   2.109   2.632
  230W        W 4191   2.145   3.302   1.338
  231W        W 4192   3.339   0.899   2.210
  232W        W 4193   1.976   3.246   2.977
  233W        W 4194   3.319   2.305   0.182
  234W        W 4195   1.754   1.788   1.243
  235W        W 4196   3.606   0.299   2.984
  236W        W 4197   1.755   2.134   2.578
  237W        W 4198   1.972   1.020   2.023
  238W        W 4199   2.824   1.318   0.861
  239W        W 4200   3.111   1.051   0.503
  240W        W 4201   2.920   3.091   0.892
  241W        W 4202   2.754   2.694   1.688
  242W        W 4203   2.650   1.773   0.666
  243W        W 4204   2.083   1.983   1.652
  244W        W 4205   2.964   1.771   1.719
  245W        W 4206   0.339   0.786   2.143
  246W        W 4207   3.117   1.838   2.970
  247W        W 4208   3.468   3.456   2.116
  248W        W 4209   1.398   2.900   1.518
  249W        W 4210   2.405   3.433   2.842
  250W        W 4211   2.399   0.763   2.606
  251W        W 4212   1.606   3.471   2.667
  252W        W 4213   3.303   0.425   1.133
  253W        W 4214   3.094   1.744   2.434
  254W        W 4215   0.077   1.065   2.472
  255W        W 4216   2.937   0.860   1.490
  256W        W 4217   3.348   1.011   3.267
  257W        W 4218   2.233   2.710   1.485
  258W        W 4219   1.489   3.301   1.098
  259W        W 4220   0.604   0.481   0.356
  260W        W 4221   1.708   0.135   2.166
  261W        W 4222   0.736   3.255   0.014
  262W        W 4223   1.110   1.721   0.765
  263W        W 4224   1.764   2.350   3.078
  264W        W 4225   1.594   0.708   1.068
  265W        W 4226   2.950   0.305   1.496
  266W        W 4227   2.670   3.587   1.824
  267W        W 4228   2.082   3.235   2.164
  268W        W 4229   1.478   2.272   2.125
  269W        W 4230   3.248   2.995   2.251
  270W        W 4231   0.942   0.498   1.020
  271W        W 4232   1.464   2.795   1.980
  272W        W 4233   0.947   0.726   0.045
  273W        W 4234   1.748   1.335   2.439
  274W        W 4235   2.596   0.201   2.309
  275W        W 4236   0.016   2.044   2.194
  276W        W 4237   1.720   1.862   0.352
  277W        W 4238   0.988   0.177   0.122
  278W        W 4239   1.726   1.258   1.173
  279W        W 4240   2.696   0.234   2.872
  280W        W 4241   1.284   2.246   2.981
  281W        W 4242   2.088   2.028   3.198
  282W        W 4243   2.705   2.058   3.091
  283W        W 4244   1.989   0.198   3.596
  284W        W 4245   1.211   0.814   1.989
  285W        W 4246   0.637   0.770   1.387
  286W        W 4247   0.423   3.482   1.063
  287W        W 4248   1.755   2.812   3.188
  288W        W 4249   0.790   2.297   0.547
  289W        W 4250   2.470   1.682   1.768
  290W        W 4251   2.750   1.481   2.167
  291W        W 4252   1.955   2.155   2.101
  292W        W 4253   2.425   2.529   0.233
  293W        W 4254   2.097   0.550   1.561
  294W        W 4255   3.576   0.828   0.829
  295W        W 4256   0.070   3.417   2.860
  296W        W 4257   0.487   2.643   2.392
  297W        W 4258   0.054   3.489   0.624
  298W        W 4259   1.953   0.759   2.430
  299W        W 4260   1.316   2.782   0.279
  300W        W 4261   3.221   3.164   0.465
  301W        W 4262   2.196   1.817   0.479
  302W        W 4263   1.039   1.008   0.996
  303W        W 4264   1.871   0.918   0.048
  304W        W 4265   2.808   0.389   0.843
  305W        W 4266   0.138   0.237   0.291
  306W        W 4267   1.424   2.556   2.581
  307W        W 4268   1.223   2.472   1.673
  308W        W 4269   0.965   2.424   0.071
  309W        W 4270   0.206   2.665   0.839
  310W        W 4271   0.710   1.735   3.281
  311W        W 4272   1.414   0.295   3.467
  312W        W 4273   2.123   0.437   2.823
  313W        W 4274   1.318   0.205   1.104
  314W        W 4275   2.377   0.282   0.609
  315W        W 4276   0.322   0.214   2.186
  316W        W 4277   0.370   1.177   1.556
  317W        W 4278   3.059   0.285   1.962
  318W        W 4279   0.481   0.783   0.776
  319W        W 4280   3.052   0.471   2.392
  320W        W 4281   3.448   1.674   0.077
  321W        W 4282   0.740   0.432   1.896
  322W        W 4283   1.854   1.004   2.836
  323W        W 4284   0.002   0.694   0.314
  324W        W 4285   0.788   2.083   2.875
  325W        W 4286   2.146   1.481   2.054
  326W        W 4287   2.013   3.560   0.350
  327W        W 4288   0.159   2.067   0.047
  328W        W 4289   0.894   2.478   3.173
  329W        W 4290   0.415   1.645   2.804
  330W        W 4291   1.406   1.750   2.598
  331W        W 4292   3.174   0.109   2.860
  332W        W 4293   3.572   1.719   2.851
  333W        W 4294   3.560   1.919   0.537
  334W        W 4295   2.423   2.251   0.636
  335W        W 4296   2.897   3.551   0.331
  336W        W 4297   2.074   1.541   3.473
  337W        W 4298   0.404   2.508   3.513
  338W        W 4299   3.610   0.430   3.465
  339W        W 4300   3.328   1.358   2.086
  340W        W 4301   1.636   3.488   3.563
  341W        W 4302   1.491   0.117   0.290
  342W        W 4303   3.030   2.716   0.233
  343W        W 4304   0.799   0.809   3.119
  344W        W 4305   1.233   2.803   2.981
  345W        W 4306   3.359   0.794   2.779
  346W        W 4307   2.570   3.453   0.747
  347W        W 4308   2.809   2.072   2.114
  348W        W 4309   1.059   0.488   2.781
  349W        W 4310   1.528   1.557   3.538
  350W        W 4311   1.031   2.736   0.732
  351W        W 4312   2.786   2.234   0.996
  352W        W 4313   0.554   0.860   2.720
  353W        W 4314   1.883   2.922   1.184
  354W        W 4315   3.633   1.482   1.365
  355W        W 4316   1.855   0.115   3.084
  356W        W 4317   2.635   2.820   2.163
  357W        W 4318   2.938   3.164   1.871
  358W        W 4319   2.157   2.966   0.299
  359W        W 4320   0.167   2.858   3.141
  360W        W 4321   0.910   0.850   2.379
  361W        W 4322   0.880   0.198   1.489
  362W        W 4323   2.501   1.040   2.181
  363W        W 4324   1.299   2.211   0.381
  364W        W 4325   3.297   2.153   1.880
  365W        W 4326   0.624   2.911   3.303
  366W        W 4327   3.011   3.593   1.100
  367W        W 4328   1.110   0.613   1.545
  368W        W 4329   0.879   2.106   1.635
  369W        W 4330   1.192   3.517   2.385
  370W        W 4331   3.259   3.613   3.417
  371W        W 4332   2.418   1.801   2.350
  372W        W 4333   0.267   1.599   0.265
  373W        W 4334   3.401   3.257   0.962
  374W        W 4335   3.238   0.581   0.581
  375W        W 4336   1.377   0.100   2.984
  376W        W 4337   3.083   2.902   1.442
  377W        W 4338   3.112   1.458   1.347
  378W        W 4339   1.229   1.131   1.563
  379W        W 4340   1.474   1.393   2.887
  380W        W 4341   1.235   1.000   2.862
  381W        W 4342   1.214   3.466   1.478
  382W        W 4343   0.531   3.425   3.112
  383W        W 4344   0.643   2.786   0.242
  384W        W 4345   3.160   2.544   1.052
  385W        W 4346   0.764   1.336   2.938
  386W        W 4347   3.537   1.266   0.419
  387W        W 4348   1.282   2.323   0.890
  388W        W 4349   2.381   1.705   2.971
  389W        W 4350   2.272   1.333   2.515
  390W        W 4351   0.832   1.705   2.544
  391W        W 4352   3.042   3.593   2.373
  392W        W 4353   2.833   0.227   3.367
  393W        W 4354   0.497   0.377   2.954
  394W        W 4355   0.836   1.400   2.007
  395W        W 4356   1.205   1.214   0.129
  396W        W 4357   0.008   2.973   2.674
  397W        W 4358   1.593   1.682   2.117
  398W        W 4359   1.416   0.707   0.222
  399W        W 4360   0.551   1.523   1.003
  400W        W 4361   0.322   3.375   2.440
  401W        W 4362   3.117   1.601   0.548
  402W        W 4363   3.212   0.517   3.234
  403W        W 4364   2.648   2.726   1.197
  404W        W 4365   0.246   1.650   3.374
  405W        W 4366   3.212   0.114   0.670
  406W        W 4367   2.732   2.589   0.681
  407W        W 4368   1.634   1.647   0.766
  408W        W 4369   2.821   0.451   0.289
  409W        W 4370   2.886   1.058   2.475
  410W        W 4371   0.595   1.651   1.682
  411W        W 4372   0.889   2.590   1.331
  412W        W 4373   2.652   1.210   1.296
  413W        W 4374   1.675   0.589   1.992
  414W        W 4375   3.637   2.500   2.503
  415W        W 4376   3.555   0.487   2.064
  416W        W 4377   0.094   3.317   1.440
  417W        W 4378   0.603   2.504   0.976
  418W        W 4379   0.518   0.121   3.529
  419W        W 4380   1.637   2.974   3.631
  420W        W 4381   3.392   1.942   1.421
  421W        W 4382   2.746   2.119   0.301
  422W        W 4383   2.041   3.640   2.513
  423W        W 4384   2.898   2.362   3.550
  424W        W 4385   1.713   0.072   0.830
  425W        W 4386   2.426   0.941   1.689
  426W        W 4387   0.112   2.528   2.021
  427W        W 4388   1.365   0.490   0.662
  428W        W 4389   1.169   1.974   3.511
  429W        W 4390   2.163   0.955   1.225
  430W        W 4391   2.368   2.365   2.347
  431W        W 4392   0.522   2.970   2.782
  432W        W 4393   1.113   2.953   3.505
  433W        W 4394   0.964   0.750   0.519
  434W        W 4395   2.481   0.892   0.844
  435W        W 4396   1.124   1.592   1.680
  436W        W 4397   0.779   3.290   2.545
  437W        W 4398   3.524   3.407   0.146
  438W        W 4399   0.387   2.079   3.142
  439W        W 4400   2.382   2.341   1.830
  440W        W 4401   0.818   1.990   1.072
  441W        W 4402   1.189   2.997   2.467
  442W        W 4403   1.567   0.416   1.508
  443W        W 4404   0.178   2.400   0.438
  444W        W 4405   1.697   1.351   0.308
  445W        W 4406   0.343   1.900   1.327
  446W        W 4407   1.633   0.542   2.791
  447W        W 4408   3.305   0.251   0.218
  448W        W 4409   3.398   1.997   3.317
  449W        W 4410   2.052   3.254   3.469
  450W        W 4411   3.610   2.348   2.991
  451W        W 4412   3.018   3.146   3.602
  452W        W 4413   0.757   3.602   2.080
  453W        W 4414   3.616   2.224   0.954
  454W        W 4415   2.146   1.491   1.467
  455W        W 4416   1.913   0.103   1.357
  456W        W 4417   0.972   3.087   1.194
  457W        W 4418   1.471   0.828   2.419
  458W        W 4419   1.171   0.197   1.888
  459W        W 4420   0.234   3.019   0.436
  460W        W 4421   2.050   2.383   1.154
  461W        W 4422   0.925   3.178   3.033
  462W        W 4423   0.402   2.001   0.729
  463W        W 4424   0.287   0.544   1.728
  464W        W 4425   1.835   2.509   1.785
  465W        W 4426   0.087   0.363   0.805
  466W        W 4427   2.751   1.569   2.732
  467W        W 4428   2.628   0.955   0.304
  468W        W 4429   3.145   2.627   1.952
  469W        W 4430   1.806   3.111   1.783
  470W        W 4431   1.218   3.215   0.694
  471W        W 4432   2.500   0.118   0.124
  472W        W 4433   0.300   3.378   1.865
  473W        W 4434   2.497   1.136   3.500
  474W        W 4435   0.480   0.666   3.499
  475W        W 4436   0.211   1.266   0.832
  476W        W 4437   0.902   1.255   0.557
  477W        W 4438   2.665   1.582   3.374
  478W        W 4439   1.008   1.863   2.083
  479W        W 4440   2.482   0.149   1.203
  480W        W 4441   1.613   3.580   1.706
  481W        W 4442   2.827   3.042   2.643
  482W        W 4443   2.411   3.191   1.754
  483W        W 4444   2.430   2.171   1.348
  484W        W 4445   1.892   0.396   0.419
  485W        W 4446   3.573   0.024   1.141
  486W        W 4447   1.261   1.659   0.304
  487W        W 4448   3.427   0.996   1.294
  488W        W 4449   2.119   2.166   0.171
  489W        W 4450   3.055   2.366   2.919
  490W        W 4451   2.709   3.067   0.386
  491W        W 4452   1.324   0.742   3.292
  492W        W 4453   1.144   1.326   2.533
  493W        W 4454   3.236   2.821   2.810
  494W        W 4455   2.336   0.771   3.187
  495W        W 4456   0.180   1.242   2.964
  496W        W 4457   1.940   1.719   2.690
  497W        W 4458   0.297   2.477   1.347
  498W        W 4459   0.444   1.774   2.237
  499W        W 4460   2.761   2.060   2.587
  500W        W 4461   2.533   3.440   3.398
  501W        W 4462   2.429   1.179   2.951
  502W        W 4463   2.706   3.233   1.356
  503W        W 4464   1.708   2.953   2.679
  504W        W 4465   1.193   3.308   1.948
  505W        W 4466   2.998   2.479   2.367
  506W        W 4467   2.048   2.551   3.504
  507W        W 4468   0.653   2.504   1.843
  508W        W 4469   2.999   2.263   1.488
  509W        W 4470   2.640   3.329   2.239
  510W        W 4471   0.618   3.058   2.109
  511W        W 4472   1.639   1.110   3.319
  512W        W 4473   2.090   3.276   0.830
  513W        W 4474   1.398   2.531   3.468
  514W        W 4475   1.524   2.769   0.845
  515W        W 4476   0.745   1.509   0.104
  516W        W 4477   0.084   3.595   7.003
  517W        W 4478   0.460   2.488   6.526
  518W        W 4479   3.165   2.218   4.296
  519W        W 4480   3.295   3.303   6.323
  520W        W 4481   1.213   3.294   3.849
  521W        W 4482   1.296   1.446   4.832
  522W        W 4483   0.811   1.294   4.996
  523W        W 4484   1.802   2.109   4.430
  524W        W 4485   1.477   3.201   6.785
  525W        W 4486   0.126   0.762   6.748
  526W        W 4487   0.888   0.042   6.550
  527W        W 4488   2.582   0.430   5.437
  528W        W 4489   2.231   1.301   4.007
  529W        W 4490   2.801   0.735   7.098
  530W        W 4491   0.266   3.146   7.244
  531W        W 4492   1.788   2.536   3.976
  532W        W 4493   0.220   1.319   5.669
  533W        W 4494   1.113   1.210   6.906
  534W        W 4495   3.572   1.069   5.405
  535W        W 4496   3.336   2.112   6.264
  536W        W 4497   1.644   1.445   5.291
  537W        W 4498   2.190   2.784   5.660
  538W        W 4499   0.690   2.218   5.892
  539W        W 4500   0.049   1.746   5.463
  540W        W 4501   1.085   1.718   6.655
  541W        W 4502   3.356   1.501   6.909
  542W        W 4503   0.972   2.945   5.354
  543W        W 4504   2.093   2.634   6.488
  544W        W 4505   1.313   1.274   5.713
  545W        W 4506   1.605   2.058   5.356
  546W        W 4507   2.602   2.831   7.204
  547W        W 4508   1.681   2.151   7.214
  548W        W 4509   1.662   1.867   6.692
  549W        W 4510   0.071   1.258   7.214
  550W        W 4511   2.903   2.793   6.813
  551W        W 4512   0.484   0.375   4.811
  552W        W 4513   1.011   2.633   5.810
  553W        W 4514   3.474   2.416   5.100
  554W        W 4515   2.887   0.816   5.667
  555W        W 4516   3.172   0.769   3.762
  556W        W 4517   3.637   1.570   6.068
  557W        W 4518   1.604   3.277   5.821
  558W        W 4519   3.378   2.743   4.259
  559W        W 4520   0.507   3.529   4.013
  560W        W 4521   0.900   3.575   4.689
  561W        W 4522   0.697   0.329   6.115
  562W        W 4523   3.320   1.347   6.390
  563W        W 4524   2.725   1.769   4.849
  564W        W 4525   2.691   1.457   3.876
  565W        W 4526   1.899   2.601   6.016
  566W        W 4527   1.705   0.931   5.215
  567W        W 4528   2.305   3.018   6.209
  568W        W 4529   3.176   1.809   4.631
  569W        W 4530   2.078   0.467   4.647
  570W        W 4531   0.735   3.161   4.330
  571W        W 4532   0.106   0.660   4.929
  572W        W 4533   2.892   1.267   5.403
  573W        W 4534   0.350   2.884   5.318
  574W        W 4535   1.691   3.234   4.188
  575W        W 4536   3.083   1.260   3.652
  576W        W 4537   0.106   3.018   5.816
  577W        W 4538   0.897   2.590   6.296
  578W        W 4539   1.270   1.950   4.915
  579W        W 4540   1.292   0.355   6.008
  580W        W 4541   3.521   0.117   5.305
  581W        W 4542   0.740   1.989   3.773
  582W        W 4543   0.395   1.022   3.952
  583W        W 4544   0.457   2.978   4.746
  584W        W 4545   1.588   2.461   4.994
  585W        W 4546   2.920   3.320   6.708
  586W        W 4547   1.846   0.962   4.392
  587W        W 4548   3.229   3.360   5.164
  588W        W 4549   2.906   1.213   6.762
  589W        W 4550   3.619   2.869   4.896
  590W        W 4551   2.246   2.161   6.380
  591W        W 4552   0.012   1.712   4.586
  592W        W 4553   1.123   2.127   6.159
  593W        W 4554   2.327   1.391   4.537
  594W        W 4555   2.204   1.881   4.641
  595W        W 4556   0.547   1.301   6.115
  596W        W 4557   0.532   1.177   7.037
  597W        W 4558   0.422   0.094   5.196
  598W        W 4559   2.190   0.441   5.757
  599W        W 4560   1.838   0.626   6.920
  600W        W 4561   2.193   0.775   4.098
  601W        W 4562   3.376   3.168   6.852
  602W        W 4563   2.343   0.249   6.891
  603W        W 4564   3.362   2.550   7.013
  604W        W 4565   2.792   0.717   6.609
  605W        W 4566   2.592   0.655   4.879
  606W        W 4567   2.985   1.789   7.283
  607W        W 4568   0.725   3.365   5.269
  608W        W 4569   1.383   1.082   4.255
  609W        W 4570   0.952   0.366   6.919
  610W        W 4571   3.004   0.850   4.600
  611W        W 4572   3.371   1.332   4.545
  612W        W 4573   1.114   3.549   7.016
  613W        W 4574   1.040   0.085   4.251
  614W        W 4575   3.361   0.619   5.286
  615W        W 4576   3.511   2.868   3.731
  616W        W 4577   0.418   2.071   5.433
  617W        W 4578   2.335   0.658   3.663
  618W        W 4579   3.469   2.990   5.383
  619W        W 4580   3.508   0.184   6.133
  620W        W 4581   1.953   1.396   6.687
  621W        W 4582   2.046   2.735   4.390
  622W        W 4583   2.446   2.029   7.130
  623W        W 4584   2.120   0.006   5.439
  624W        W 4585   0.732   0.909   5.502
  625W        W 4586   0.286   2.109   6.276
  626W        W 4587   2.145   3.302   4.982
  627W        W 4588   3.339   0.899   5.854
  628W        W 4589   1.976   3.246   6.621
  629W        W 4590   3.319   2.305   3.826
  630W        W 4591   1.754   1.788   4.887
  631W        W 4592   3.606   0.299   6.628
  632W        W 4593   1.755   2.134   6.222
  633W        W 4594   1.972   1.020   5.667
  634W        W 4595   2.824   1.318   4.505
  635W        W 4596   3.111   1.051   4.147
  636W        W 4597   2.920   3.091   4.536
  637W        W 4598   2.754   2.694   5.332
  638W        W 4599   2.650   1.773   4.310
  639W        W 4600   2.083   1.983   5.296
  640W        W 4601   2.964   1.771   5.363
  641W        W 4602   0.339   0.786   5.787
  642W        W 4603   3.117   1.838   6.614
  643W        W 4604   3.468   3.456   5.760
  644W        W 4605   1.398   2.900   5.162
  645W        W 4606   2.405   3.433   6.486
  646W        W 4607   2.399   0.763   6.250
  647W        W 4608   1.606   3.471   6.311
  648W        W 4609   3.303   0.425   4.777
  649W        W 4610   3.094   1.744   6.078
  650W        W 4611   0.077   1.065   6.116
  651W        W 4612   2.937   0.860   5.134
  652W        W 4613   3.348   1.011   6.911
  653W        W 4614   2.233   2.710   5.129
  654W        W 4615   1.489   3.301   4.742
  655W        W 4616   0.604   0.481   4.000
  656W        W 4617   1.708   0.135   5.810
  657W        W 4618   0.736   3.255   3.658
  658W        W 4619   1.110   1.721   4.409
  659W        W 4620   1.764   2.350   6.722
  660W        W 4621   1.594   0.708   4.712
  661W        W 4622   2.950   0.305   5.140
  662W        W 4623   2.670   3.587   5.468
  663W        W 4624   2.082   3.235   5.808
  664W        W 4625   1.478   2.272   5.769
  665W        W 4626   3.248   2.995   5.895
  666W        W 4627   0.942   0.498   4.664
  667W        W 4628   1.464   2.795   5.624
  668W        W 4629   0.947   0.726   3.689
  669W        W 4630   1.748   1.335   6.083
  670W        W 4631   2.596   0.201   5.953
  671W        W 4632   0.016   2.044   5.838
  672W        W 4633   1.720   1.862   3.996
  673W        W 4634   0.988   0.177   3.766
  674W        W 4635   1.726   1.258   4.817
  675W        W 4636   2.696   0.234   6.516
  676W        W 4637   1.284   2.246   6.625
  677W        W 4638   2.088   2.028   6.842
  678W        W 4639   2.705   2.058   6.735
  679W        W 4640   1.989   0.198   7.240
  680W        W 4641   1.211   0.814   5.633
  681W        W 4642   0.637   0.770   5.031
  682W        W 4643   0.423   3.482   4.707
  683W        W 4644   1.755   2.812   6.832
  684W        W 4645   0.790   2.297   4.191
  685W        W 4646   2.470   1.682   5.412
  686W        W 4647   2.750   1.481   5.811
  687W        W 4648   1.955   2.155   5.745
  688W        W 4649   2.425   2.529   3.877
  689W        W 4650   2.097   0.550   5.205
  690W        W 4651   3.576   0.828   4.473
  691W        W 4652   0.070   3.417   6.504
  692W        W 4653   0.487   2.643   6.036
  693W        W 4654   0.054   3.489   4.268
  694W        W 4655   1.953   0.759   6.074
  695W        W 4656   1.316   2.782   3.923
  696W        W 4657   3.221   3.164   4.109
  697W        W 4658   2.196   1.817   4.123
  698W        W 4659   1.039   1.008   4.640
  699W        W 4660   1.871   0.918   3.692
  700W        W 4661   2.455   2.483   6.870
  701W        W 4662   2.808   0.389   4.487
  702W        W 4663   0.138   0.237   3.935
  703W        W 4664   1.424   2.556   6.225
  704W        W 4665   1.223   2.472   5.317
  705W        W 4666   0.965   2.424   3.715
  706W        W 4667   0.206   2.665   4.483
  707W        W 4668   0.710   1.735   6.925
  708W        W 4669   1.414   0.295   7.111
  709W        W 4670   2.123   0.437   6.467
  710W        W 4671   1.318   0.205   4.748
  711W        W 4672   2.377   0.282   4.253
  712W        W 4673   0.322   0.214   5.830
  713W        W 4674   0.370   1.177   5.200
  714W        W 4675   3.059   0.285   5.606
  715W        W 4676   0.481   0.783   4.420
  716W        W 4677   3.052   0.471   6.036
  717W        W 4678   3.448   1.674   3.721
  718W        W 4679   0.740   0.432   5.540
  719W        W 4680   1.854   1.004   6.480
  720W        W 4681   0.002   0.694   3.958
  721W        W 4682   0.788   2.083   6.519
  722W        W 4683   2.146   1.481   5.698
  723W        W 4684   2.013   3.560   3.994
  724W        W 4685   0.159   2.067   3.691
  725W        W 4686   0.894   2.478   6.817
  726W        W 4687   0.415   1.645   6.448
  727W        W 4688   1.406   1.750   6.242
  728W        W 4689   3.174   0.109   6.504
  729W        W 4690   3.572   1.719   6.495
  730W        W 4691   3.560   1.919   4.181
  731W        W 4692   2.423   2.251   4.280
  732W        W 4693   2.897   3.551   3.975
  733W        W 4694   2.074   1.541   7.117
  734W        W 4695   0.404   2.508   7.157
  735W        W 4696   3.610   0.430   7.109
  736W        W 4697   3.328   1.358   5.730
  737W        W 4698   1.636   3.488   7.207
  738W        W 4699   1.491   0.117   3.934
  739W        W 4700   3.030   2.716   3.877
  740W        W 4701   0.799   0.809   6.763
  741W        W 4702   1.233   2.803   6.625
  742W        W 4703   3.359   0.794   6.423
  743W        W 4704   2.570   3.453   4.391
  744W        W 4705   2.809   2.072   5.758
  745W        W 4706   1.528   1.557   7.182
  746W        W 4707   1.031   2.736   4.376
  747W        W 4708   2.786   2.234   4.640
  748W        W 4709   0.554   0.860   6.364
  749W        W 4710   1.883   2.922   4.828
  750W        W 4711   3.633   1.482   5.009
  751W        W 4712   1.855   0.115   6.728
  752W        W 4713   2.635   2.820   5.807
  753W        W 4714   2.938   3.164   5.515
  754W        W 4715   2.157   2.966   3.943
  755W        W 4716   0.167   2.858   6.785
  756W        W 4717   0.910   0.850   6.023
  757W        W 4718   0.880   0.198   5.133
  758W        W 4719   2.501   1.040   5.825
  759W        W 4720   1.299   2.211   4.025
  760W        W 4721   3.297   2.153   5.524
  761W        W 4722   0.624   2.911   6.947
  762W        W 4723   3.011   3.593   4.744
  763W        W 4724   1.110   0.613   5.189
  764W        W 4725   0.879   2.106   5.279
  765W        W 4726   1.192   3.517   6.029
  766W        W 4727   3.259   3.613   7.061
  767W        W 4728   2.418   1.801   5.994
  768W        W 4729   0.267   1.599   3.909
  769W        W 4730   3.401   3.257   4.606
  770W        W 4731   3.238   0.581   4.225
  771W        W 4732   1.377   0.100   6.628
  772W        W 4733   3.083   2.902   5.086
  773W        W 4734   3.112   1.458   4.991
  774W        W 4735   1.229   1.131   5.207
  775W        W 4736   1.474   1.393   6.531
  776W        W 4737   2.585   2.546   6.394
  777W        W 4738   1.235   1.000   6.506
  778W        W 4739   1.214   3.466   5.122
  779W        W 4740   0.531   3.425   6.756
  780W        W 4741   0.643   2.786   3.886
  781W        W 4742   3.160   2.544   4.696
  782W        W 4743   0.764   1.336   6.582
  783W        W 4744   3.537   1.266   4.063
  784W        W 4745   1.282   2.323   4.534
  785W        W 4746   2.381   1.705   6.615
  786W        W 4747   2.272   1.333   6.159
  787W        W 4748   0.832   1.705   6.188
  788W        W 4749   3.042   3.593   6.017
  789W        W 4750   2.833   0.227   7.011
  790W        W 4751   0.497   0.377   6.598
  791W        W 4752   0.836   1.400   5.651
  792W        W 4753   1.205   1.214   3.773
  793W        W 4754   0.008   2.973   6.318
  794W        W 4755   1.593   1.682   5.761
  795W        W 4756   1.416   0.707   3.866
  796W        W 4757   0.551   1.523   4.647
  797W        W 4758   0.322   3.375   6.084
  798W        W 4759   3.117   1.601   4.192
  799W        W 4760   3.212   0.517   6.878
  800W        W 4761   2.648   2.726   4.841
  801W        W 4762   0.246   1.650   7.018
  802W        W 4763   3.212   0.114   4.314
  803W        W 4764   2.732   2.589   4.325
  804W        W 4765   1.634   1.647   4.410
  805W        W 4766   2.821   0.451   3.933
  806W        W 4767   2.886   1.058   6.119
  807W        W 4768   0.595   1.651   5.326
  808W        W 4769   0.889   2.590   4.975
  809W        W 4770   2.652   1.210   4.940
  810W        W 4771   1.675   0.589   5.636
  811W        W 4772   3.637   2.500   6.147
  812W        W 4773   3.555   0.487   5.708
  813W        W 4774   0.094   3.317   5.084
  814W        W 4775   0.603   2.504   4.620
  815W        W 4776   0.518   0.121   7.173
  816W        W 4777   1.637   2.974   7.275
  817W        W 4778   3.392   1.942   5.065
  818W        W 4779   2.746   2.119   3.945
  819W        W 4780   2.041   3.640   6.157
  820W        W 4781   2.898   2.362   7.194
  821W        W 4782   1.713   0.072   4.474
  822W        W 4783   2.426   0.941   5.333
  823W        W 4784   0.112   2.528   5.665
  824W        W 4785   1.365   0.490   4.306
  825W        W 4786   1.169   1.974   7.155
  826W        W 4787   2.163   0.955   4.869
  827W        W 4788   2.368   2.365   5.991
  828W        W 4789   0.522   2.970   6.426
  829W        W 4790   1.113   2.953   7.149
  830W        W 4791   0.964   0.750   4.163
  831W        W 4792   2.481   0.892   4.488
  832W        W 4793   2.439   3.000   6.725
  833W        W 4794   1.124   1.592   5.324
  834W        W 4795   0.779   3.290   6.189
  835W        W 4796   3.524   3.407   3.790
  836W        W 4797   0.387   2.079   6.786
  837W        W 4798   2.382   2.341   5.474
  838W        W 4799   0.818   1.990   4.716
  839W        W 4800   1.189   2.997   6.111
  840W        W 4801   1.567   0.416   5.152
  841W        W 4802   0.178   2.400   4.082
  842W        W 4803   1.697   1.351   3.952
  843W        W 4804   0.343   1.900   4.971
  844W        W 4805   1.633   0.542   6.435
  845W        W 4806   3.305   0.251   3.862
  846W        W 4807   3.398   1.997   6.961
  847W        W 4808   2.052   3.254   7.113
  848W        W 4809   3.610   2.348   6.635
  849W        W 4810   3.018   3.146   7.246
  850W        W 4811   0.757   3.602   5.724
  851W        W 4812   3.616   2.224   4.598
  852W        W 4813   2.146   1.491   5.111
  853W        W 4814   1.913   0.103   5.001
  854W        W 4815   0.972   3.087   4.838
  855W        W 4816   1.471   0.828   6.063
  856W        W 4817   1.171   0.197   5.532
  857W        W 4818   0.234   3.019   4.080
  858W        W 4819   2.050   2.383   4.798
  859W        W 4820   0.925   3.178   6.677
  860W        W 4821   0.402   2.001   4.373
  861W        W 4822   0.287   0.544   5.372
  862W        W 4823   1.835   2.509   5.429
  863W        W 4824   0.087   0.363   4.449
  864W        W 4825   2.751   1.569   6.376
  865W        W 4826   2.628   0.955   3.948
  866W        W 4827   3.145   2.627   5.596
  867W        W 4828   1.806   3.111   5.427
  868W        W 4829   1.218   3.215   4.338
  869W        W 4830   2.500   0.118   3.768
  870W        W 4831   0.300   3.378   5.509
  871W        W 4832   2.497   1.136   7.144
  872W        W 4833   0.480   0.666   7.143
  873W        W 4834   0.211   1.266   4.476
  874W        W 4835   0.902   1.255   4.201
  875W        W 4836   2.665   1.582   7.018
  876W        W 4837   1.008   1.863   5.727
  877W        W 4838   2.482   0.149   4.847
  878W        W 4839   1.613   3.580   5.350
  879W        W 4840   2.827   3.042   6.287
  880W        W 4841   2.411   3.191   5.398
  881W        W 4842   2.430   2.171   4.992
  882W        W 4843   1.892   0.396   4.063
  883W        W 4844   3.573   0.024   4.785
  884W        W 4845   1.261   1.659   3.948
  885W        W 4846   3.427   0.996   4.938
  886W        W 4847   2.119   2.166   3.815
  887W        W 4848   3.055   2.366   6.563
  888W        W 4849   2.709   3.067   4.030
  889W        W 4850   1.324   0.742   6.936
  890W        W 4851   1.144   1.326   6.177
  891W        W 4852   3.236   2.821   6.454
  892W        W 4853   2.336   0.771   6.831
  893W        W 4854   0.180   1.242   6.608
  894W        W 4855   1.940   1.719   6.334
  895W        W 4856   0.297   2.477   4.991
  896W        W 4857   0.444   1.774   5.881
  897W        W 4858   2.761   2.060   6.231
  898W        W 4859   2.533   3.440   7.042
  899W        W 4860   2.429   1.179   6.595
  900W        W 4861   2.706   3.233   5.000
  901W        W 4862   1.708   2.953   6.323
  902W        W 4863   1.193   3.308   5.592
  903W        W 4864   2.998   2.479   6.011
  904W        W 4865   2.048   2.551   7.148
  905W        W 4866   0.653   2.504   5.487
  906W        W 4867   2.999   2.263   5.132
  907W        W 4868   2.640   3.329   5.883
  908W        W 4869   0.618   3.058   5.753
  909W        W 4870   1.639   1.110   6.963
  910W        W 4871   2.090   3.276   4.474
  911W        W 4872   1.398   2.531   7.112
  912W        W 4873   1.524   2.769   4.489
  913W        W 4874   0.745   1.509   3.748
  914W        W 4875   0.084   3.595  10.648
  915W        W 4876   0.460   2.488  10.171
  916W        W 4877   3.165   2.218   7.941
  917W        W 4878   3.295   3.303   9.968
  918W        W 4879   1.213   3.294   7.494
  919W        W 4880   1.296   1.446   8.477
  920W        W 4881   0.811   1.294   8.641
  921W        W 4882   1.802   2.109   8.075
  922W        W 4883   1.477   3.201  10.430
  923W        W 4884   0.126   0.762  10.393
  924W        W 4885   0.888   0.042  10.195
  925W        W 4886   2.582   0.430   9.082
  926W        W 4887   2.231   1.301   7.652
  927W        W 4888   2.801   0.735  10.743
  928W        W 4889   0.167   0.527   9.868
  929W        W 4890   0.266   3.146  10.889
  930W        W 4891   1.788   2.536   7.621
  931W        W 4892   0.220   1.319   9.314
  932W        W 4893   1.113   1.210  10.551
  933W        W 4894   3.572   1.069   9.050
  934W        W 4895   3.336   2.112   9.909
  935W        W 4896   1.644   1.445   8.936
  936W        W 4897   2.190   2.784   9.305
  937W        W 4898   0.690   2.218   9.537
  938W        W 4899   0.049   1.746   9.108
  939W        W 4900   1.085   1.718  10.300
  940W        W 4901   3.356   1.501  10.554
  941W        W 4902   0.972   2.945   8.999
  942W        W 4903   2.093   2.634  10.133
  943W        W 4904   1.313   1.274   9.358
  944W        W 4905   1.605   2.058   9.001
  945W        W 4906   2.602   2.831  10.849
  946W        W 4907   1.681   2.151  10.859
  947W        W 4908   1.662   1.867  10.337
  948W        W 4909   0.071   1.258  10.859
  949W        W 4910   2.903   2.793  10.458
  950W        W 4911   0.484   0.375   8.456
  951W        W 4912   1.011   2.633   9.455
  952W        W 4913   3.474   2.416   8.745
  953W        W 4914   2.887   0.816   9.312
  954W        W 4915   3.172   0.769   7.407
  955W        W 4916   3.637   1.570   9.713
  956W        W 4917   1.604   3.277   9.466
  957W        W 4918   3.378   2.743   7.904
  958W        W 4919   0.507   3.529   7.658
  959W        W 4920   0.900   3.575   8.334
  960W        W 4921   0.697   0.329   9.760
  961W        W 4922   3.320   1.347  10.035
  962W        W 4923   2.725   1.769   8.494
  963W        W 4924   2.691   1.457   7.521
  964W        W 4925   1.899   2.601   9.661
  965W        W 4926   1.705   0.931   8.860
  966W        W 4927   2.305   3.018   9.854
  967W        W 4928   3.176   1.809   8.276
  968W        W 4929   2.078   0.467   8.292
  969W        W 4930   0.735   3.161   7.975
  970W        W 4931   0.106   0.660   8.574
  971W        W 4932   2.892   1.267   9.048
  972W        W 4933   0.350   2.884   8.963
  973W        W 4934   1.691   3.234   7.833
  974W        W 4935   3.083   1.260   7.297
  975W        W 4936   0.106   3.018   9.461
  976W        W 4937   0.897   2.590   9.941
  977W        W 4938   1.270   1.950   8.560
  978W        W 4939   1.292   0.355   9.653
  979W        W 4940   3.521   0.117   8.950
  980W        W 4941   0.740   1.989   7.418
  981W        W 4942   0.395   1.022   7.597
  982W        W 4943   0.457   2.978   8.391
  983W        W 4944   1.588   2.461   8.639
  984W        W 4945   2.920   3.320  10.353
  985W        W 4946   1.846   0.962   8.037
  986W        W 4947   3.229   3.360   8.809
  987W        W 4948   2.906   1.213  10.407
  988W        W 4949   3.619   2.869   8.541
  989W        W 4950   2.246   2.161  10.025
  990W        W 4951   0.012   1.712   8.231
  991W        W 4952   1.123   2.127   9.804
  992W        W 4953   2.327   1.391   8.182
  993W        W 4954   2.204   1.881   8.286
  994W        W 4955   0.547   1.301   9.760
  995W        W 4956   0.532   1.177  10.682
  996W        W 4957   0.422   0.094   8.841
  997W        W 4958   2.190   0.441   9.402
  998W        W 4959   1.838   0.626  10.565
  999W        W 4960   2.193   0.775   7.743
 1000W        W 4961   3.376   3.168  10.497
 1001W        W 4962   2.343   0.249  10.536
 1002W        W 4963   3.362   2.550  10.658
 1003W        W 4964   2.792   0.717  10.254
 1004W        W 4965   2.592   0.655   8.524
 1005W        W 4966   2.985   1.789  10.928
 1006W        W 4967   0.725   3.365   8.914
 1007W        W 4968   1.383   1.082   7.900
 1008W        W 4969   0.952   0.366  10.564
 1009W        W 4970   3.004   0.850   8.245
 1010W        W 4971   3.371   1.332   8.190
 1011W        W 4972   1.114   3.549  10.661
 1012W        W 4973   1.040   0.085   7.896
 1013W        W 4974   3.361   0.619   8.931
 1014W        W 4975   3.511   2.868   7.376
 1015W        W 4976   0.418   2.071   9.078
 1016W        W 4977   2.335   0.658   7.308
 1017W        W 4978   3.469   2.990   9.028
 1018W        W 4979   3.508   0.184   9.778
 1019W        W 4980   1.953   1.396  10.332
 1020W        W 4981   2.046   2.735   8.035
 1021W        W 4982   2.446   2.029  10.775
 1022W        W 4983   2.120   0.006   9.084
 1023W        W 4984   0.732   0.909   9.147
 1024W        W 4985   0.286   2.109   9.921
 1025W        W 4986   2.145   3.302   8.627
 1026W        W 4987   3.339   0.899   9.499
 1027W        W 4988   1.976   3.246  10.266
 1028W        W 4989   3.319   2.305   7.471
 1029W        W 4990   1.754   1.788   8.532
 1030W        W 4991   3.606   0.299  10.273
 1031W        W 4992   1.755   2.134   9.867
 1032W        W 4993   1.972   1.020   9.312
 1033W        W 4994   2.824   1.318   8.150
 1034W        W 4995   3.111   1.051   7.792
 1035W        W 4996   2.920   3.091   8.181
 1036W        W 4997   2.754   2.694   8.977
 1037W        W 4998   2.650   1.773   7.955
 1038W        W 4999   2.083   1.983   8.941
 1039W        W 5000   2.964   1.771   9.008
 1040W        W 5001   0.339   0.786   9.432
 1041W        W 5002   3.117   1.838  10.259
 1042W        W 5003   3.468   3.456   9.405
 1043W        W 5004   1.398   2.900   8.807
 1044W        W 5005   2.405   3.433  10.131
 1045W        W 5006   2.399   0.763   9.895
 1046W        W 5007   1.606   3.471   9.956
 1047W        W 5008   3.303   0.425   8.422
 1048W        W 5009   3.094   1.744   9.723
 1049W        W 5010   0.077   1.065   9.761
 1050W        W 5011   2.937   0.860   8.779
 1051W        W 5012   3.348   1.011  10.556
 1052W        W 5013   2.233   2.710   8.774
 1053W        W 5014   1.489   3.301   8.387
 1054W        W 5015   0.604   0.481   7.645
 1055W        W 5016   1.708   0.135   9.455
 1056W        W 5017   0.736   3.255   7.303
 1057W        W 5018   1.110   1.721   8.054
 1058W        W 5019   1.764   2.350  10.367
 1059W        W 5020   1.594   0.708   8.357
 1060W        W 5021   2.950   0.305   8.785
 1061W        W 5022   2.670   3.587   9.113
 1062W        W 5023   2.082   3.235   9.453
 1063W        W 5024   1.478   2.272   9.414
 1064W        W 5025   3.248   2.995   9.540
 1065W        W 5026   0.942   0.498   8.309
 1066W        W 5027   1.464   2.795   9.269
 1067W        W 5028   0.947   0.726   7.334
 1068W        W 5029   1.748   1.335   9.728
 1069W        W 5030   2.596   0.201   9.598
 1070W        W 5031   0.016   2.044   9.483
 1071W        W 5032   1.720   1.862   7.641
 1072W        W 5033   0.988   0.177   7.411
 1073W        W 5034   1.726   1.258   8.462
 1074W        W 5035   2.696   0.234  10.161
 1075W        W 5036   1.284   2.246  10.270
 1076W        W 5037   2.088   2.028  10.487
 1077W        W 5038   2.705   2.058  10.380
 1078W        W 5039   1.989   0.198  10.885
 1079W        W 5040   1.211   0.814   9.278
 1080W        W 5041   0.637   0.770   8.676
 1081W        W 5042   0.423   3.482   8.352
 1082W        W 5043   1.755   2.812  10.477
 1083W        W 5044   0.790   2.297   7.836
 1084W        W 5045   2.470   1.682   9.057
 1085W        W 5046   2.750   1.481   9.456
 1086W        W 5047   1.955   2.155   9.390
 1087W        W 5048   2.425   2.529   7.522
 1088W        W 5049   2.097   0.550   8.850
 1089W        W 5050   3.576   0.828   8.118
 1090W        W 5051   0.070   3.417  10.149
 1091W        W 5052   0.487   2.643   9.681
 1092W        W 5053   0.054   3.489   7.913
 1093W        W 5054   1.953   0.759   9.719
 1094W        W 5055   1.316   2.782   7.568
 1095W        W 5056   3.221   3.164   7.754
 1096W        W 5057   2.196   1.817   7.768
 1097W        W 5058   1.039   1.008   8.285
 1098W        W 5059   1.871   0.918   7.337
 1099W        W 5060   2.455   2.483  10.515
 1100W        W 5061   2.808   0.389   8.132
 1101W        W 5062   0.138   0.237   7.580
 1102W        W 5063   1.424   2.556   9.870
 1103W        W 5064   1.223   2.472   8.962
 1104W        W 5065   0.965   2.424   7.360
 1105W        W 5066   0.206   2.665   8.128
 1106W        W 5067   0.710   1.735  10.570
 1107W        W 5068   1.414   0.295  10.756
 1108W        W 5069   2.123   0.437  10.112
 1109W        W 5070   1.318   0.205   8.393
 1110W        W 5071   2.377   0.282   7.898
 1111W        W 5072   0.322   0.214   9.475
 1112W        W 5073   0.370   1.177   8.845
 1113W        W 5074   3.059   0.285   9.251
 1114W        W 5075   0.481   0.783   8.065
 1115W        W 5076   3.052   0.471   9.681
 1116W        W 5077   3.448   1.674   7.366
 1117W        W 5078   0.740   0.432   9.185
 1118W        W 5079   1.854   1.004  10.125
 1119W        W 5080   0.002   0.694   7.603
 1120W        W 5081   0.788   2.083  10.164
 1121W        W 5082   2.146   1.481   9.343
 1122W        W 5083   2.013   3.560   7.639
 1123W        W 5084   0.159   2.067   7.336
 1124W        W 5085   0.894   2.478  10.462
 1125W        W 5086   0.415   1.645  10.093
 1126W        W 5087   1.406   1.750   9.887
 1127W        W 5088   3.174   0.109  10.149
 1128W        W 5089   3.572   1.719  10.140
 1129W        W 5090   3.560   1.919   7.826
 1130W        W 5091   2.423   2.251   7.925
 1131W        W 5092   2.897   3.551   7.620
 1132W        W 5093   2.074   1.541  10.762
 1133W        W 5094   0.404   2.508  10.802
 1134W        W 5095   3.610   0.430  10.754
 1135W        W 5096   3.328   1.358   9.375
 1136W        W 5097   1.636   3.488  10.852
 1137W        W 5098   1.491   0.117   7.579
 1138W        W 5099   3.030   2.716   7.522
 1139W        W 5100   0.799   0.809  10.408
 1140W        W 5101   1.233   2.803  10.270
 1141W        W 5102   3.359   0.794  10.068
 1142W        W 5103   2.570   3.453   8.036
 1143W        W 5104   2.809   2.072   9.403
 1144W        W 5105   1.059   0.488  10.070
 1145W        W 5106   1.528   1.557  10.827
 1146W        W 5107   1.031   2.736   8.021
 1147W        W 5108   2.786   2.234   8.285
 1148W        W 5109   0.554   0.860  10.009
 1149W        W 5110   1.883   2.922   8.473
 1150W        W 5111   3.633   1.482   8.654
 1151W        W 5112   1.855   0.115  10.373
 1152W        W 5113   2.635   2.820   9.452
 1153W        W 5114   2.938   3.164   9.160
 1154W        W 5115   2.157   2.966   7.588
 1155W        W 5116   0.167   2.858  10.430
 1156W        W 5117   0.910   0.850   9.668
 1157W        W 5118   0.880   0.198   8.778
 1158W        W 5119   2.501   1.040   9.470
 1159W        W 5120   1.299   2.211   7.670
 1160W        W 5121   3.297   2.153   9.169
 1161W        W 5122   0.624   2.911  10.592
 1162W        W 5123   3.011   3.593   8.389
 1163W        W 5124   1.110   0.613   8.834
 1164W        W 5125   0.879   2.106   8.924
 1165W        W 5126   1.192   3.517   9.674
 1166W        W 5127   3.259   3.613  10.706
 1167W        W 5128   2.418   1.801   9.639
 1168W        W 5129   0.267   1.599   7.554
 1169W        W 5130   3.401   3.257   8.251
 1170W        W 5131   3.238   0.581   7.870
 1171W        W 5132   1.377   0.100  10.273
 1172W        W 5133   3.083   2.902   8.731
 1173W        W 5134   3.112   1.458   8.636
 1174W        W 5135   1.229   1.131   8.852
 1175W        W 5136   1.474   1.393  10.176
 1176W        W 5137   2.585   2.546  10.039
 1177W        W 5138   1.235   1.000  10.151
 1178W        W 5139   1.214   3.466   8.767
 1179W        W 5140   0.531   3.425  10.401
 1180W        W 5141   0.643   2.786   7.531
 1181W        W 5142   3.160   2.544   8.341
 1182W        W 5143   0.764   1.336  10.227
 1183W        W 5144   3.537   1.266   7.708
 1184W        W 5145   1.282   2.323   8.179
 1185W        W 5146   2.381   1.705  10.260
 1186W        W 5147   2.272   1.333   9.804
 1187W        W 5148   0.832   1.705   9.833
 1188W        W 5149   3.042   3.593   9.662
 1189W        W 5150   2.833   0.227  10.656
 1190W        W 5151   0.497   0.377  10.243
 1191W        W 5152   0.836   1.400   9.296
 1192W        W 5153   1.205   1.214   7.418
 1193W        W 5154   0.008   2.973   9.963
 1194W        W 5155   1.593   1.682   9.406
 1195W        W 5156   1.416   0.707   7.511
 1196W        W 5157   0.551   1.523   8.292
 1197W        W 5158   0.322   3.375   9.729
 1198W        W 5159   3.117   1.601   7.837
 1199W        W 5160   3.212   0.517  10.523
 1200W        W 5161   2.648   2.726   8.486
 1201W        W 5162   0.246   1.650  10.663
 1202W        W 5163   3.212   0.114   7.959
 1203W        W 5164   2.732   2.589   7.970
 1204W        W 5165   1.634   1.647   8.055
 1205W        W 5166   2.821   0.451   7.578
 1206W        W 5167   2.886   1.058   9.764
 1207W        W 5168   0.595   1.651   8.971
 1208W        W 5169   0.889   2.590   8.620
 1209W        W 5170   2.652   1.210   8.585
 1210W        W 5171   1.675   0.589   9.281
 1211W        W 5172   3.637   2.500   9.792
 1212W        W 5173   3.555   0.487   9.353
 1213W        W 5174   0.094   3.317   8.729
 1214W        W 5175   0.603   2.504   8.265
 1215W        W 5176   0.518   0.121  10.818
 1216W        W 5177   1.637   2.974  10.920
 1217W        W 5178   3.392   1.942   8.710
 1218W        W 5179   2.746   2.119   7.590
 1219W        W 5180   2.041   3.640   9.802
 1220W        W 5181   2.898   2.362  10.839
 1221W        W 5182   1.713   0.072   8.119
 1222W        W 5183   2.426   0.941   8.978
 1223W        W 5184   0.112   2.528   9.310
 1224W        W 5185   1.365   0.490   7.951
 1225W        W 5186   1.169   1.974  10.800
 1226W        W 5187   2.163   0.955   8.514
 1227W        W 5188   2.368   2.365   9.636
 1228W        W 5189   0.522   2.970  10.071
 1229W        W 5190   1.113   2.953  10.794
 1230W        W 5191   0.964   0.750   7.808
 1231W        W 5192   2.481   0.892   8.133
 1232W        W 5193   2.439   3.000  10.370
 1233W        W 5194   1.124   1.592   8.969
 1234W        W 5195   0.779   3.290   9.834
 1235W        W 5196   3.524   3.407   7.435
 1236W        W 5197   0.387   2.079  10.431
 1237W        W 5198   2.382   2.341   9.119
 1238W        W 5199   0.818   1.990   8.361
 1239W        W 5200   1.189   2.997   9.756
 1240W        W 5201   1.567   0.416   8.797
 1241W        W 5202   0.178   2.400   7.727
 1242W        W 5203   1.697   1.351   7.597
 1243W        W 5204   0.343   1.900   8.616
 1244W        W 5205   1.633   0.542  10.080
 1245W        W 5206   3.305   0.251   7.507
 1246W        W 5207   3.398   1.997  10.606
 1247W        W 5208   2.052   3.254  10.758
 1248W        W 5209   3.610   2.348  10.280
 1249W        W 5210   3.018   3.146  10.891
 1250W        W 5211   0.757   3.602   9.369
 1251W        W 5212   3.616   2.224   8.243
 1252W        W 5213   2.146   1.491   8.756
 1253W        W 5214   1.913   0.103   8.646
 1254W        W 5215   0.972   3.087   8.483
 1255W        W 5216   1.471   0.828   9.708
 1256W        W 5217   1.171   0.197   9.177
 1257W        W 5218   0.234   3.019   7.725
 1258W        W 5219   2.050   2.383   8.443
 1259W        W 5220   0.925   3.178  10.322
 1260W        W 5221   0.402   2.001   8.018
 1261W        W 5222   0.287   0.544   9.017
 1262W        W 5223   1.835   2.509   9.074
 1263W        W 5224   0.087   0.363   8.094
 1264W        W 5225   2.751   1.569  10.021
 1265W        W 5226   2.628   0.955   7.593
 1266W        W 5227   3.145   2.627   9.241
 1267W        W 5228   1.806   3.111   9.072
 1268W        W 5229   1.218   3.215   7.983
 1269W        W 5230   2.500   0.118   7.413
 1270W        W 5231   0.300   3.378   9.154
 1271W        W 5232   2.497   1.136  10.789
 1272W        W 5233   0.480   0.666  10.788
 1273W        W 5234   0.211   1.266   8.121
 1274W        W 5235   0.902   1.255   7.846
 1275W        W 5236   2.665   1.582  10.663
 1276W        W 5237   1.008   1.863   9.372
 1277W        W 5238   2.482   0.149   8.492
 1278W        W 5239   1.613   3.580   8.995
 1279W        W 5240   2.827   3.042   9.932
 1280W        W 5241   2.411   3.191   9.043
 1281W        W 5242   2.430   2.171   8.637
 1282W        W 5243   1.892   0.396   7.708
 1283W        W 5244   3.573   0.024   8.430
 1284W        W 5245   1.261   1.659   7.593
 1285W        W 5246   3.427   0.996   8.583
 1286W        W 5247   2.119   2.166   7.460
 1287W        W 5248   3.055   2.366  10.208
 1288W        W 5249   2.709   3.067   7.675
 1289W        W 5250   1.324   0.742  10.581
 1290W        W 5251   1.144   1.326   9.822
 1291W        W 5252   3.236   2.821  10.099
 1292W        W 5253   2.336   0.771  10.476
 1293W        W 5254   0.180   1.242  10.253
 1294W        W 5255   1.940   1.719   9.979
 1295W        W 5256   0.297   2.477   8.636
 1296W        W 5257   0.444   1.774   9.526
 1297W        W 5258   2.761   2.060   9.876
 1298W        W 5259   2.533   3.440  10.687
 1299W        W 5260   2.429   1.179  10.240
 1300W        W 5261   2.706   3.233   8.645
 1301W        W 5262   1.708   2.953   9.968
 1302W        W 5263   1.193   3.308   9.237
 1303W        W 5264   2.998   2.479   9.656
 1304W        W 5265   2.048   2.551  10.793
 1305W        W 5266   0.653   2.504   9.132
 1306W        W 5267   2.999   2.263   8.777
 1307W        W 5268   2.640   3.329   9.528
 1308W        W 5269   0.618   3.058   9.398
 1309W        W 5270   1.639   1.110  10.608
 1310W        W 5271   2.090   3.276   8.119
 1311W        W 5272   1.398   2.531  10.757
 1312W        W 5273   1.524   2.769   8.134
 1313W        W 5274   0.745   1.509   7.393
 1314W        W 5275   0.084   3.595  14.292
 1315W        W 5276   0.460   2.488  13.815
 1316W        W 5277   3.165   2.218  11.585
 1317W        W 5278   3.295   3.303  13.612
 1318W        W 5279   1.213   3.294  11.138
 1319W        W 5280   1.296   1.446  12.121
 1320W        W 5281   0.811   1.294  12.285
 1321W        W 5282   1.802   2.109  11.719
 1322W        W 5283   1.477   3.201  14.074
 1323W        W 5284   0.126   0.762  14.037
 1324W        W 5285   0.888   0.042  13.839
 1325W        W 5286   2.582   0.430  12.726
 1326W        W 5287   2.231   1.301  11.296
 1327W        W 5288   2.801   0.735  14.387
 1328W        W 5289   0.167   0.527  13.512
 1329W        W 5290   0.266   3.146  14.533
 1330W        W 5291   1.788   2.536  11.265
 1331W        W 5292   0.220   1.319  12.958
 1332W        W 5293   1.113   1.210  14.195
 1333W        W 5294   3.572   1.069  12.694
 1334W        W 5295   3.336   2.112  13.553
 1335W        W 5296   1.644   1.445  12.580
 1336W        W 5297   2.190   2.784  12.949
 1337W        W 5298   0.690   2.218  13.181
 1338W        W 5299   0.049   1.746  12.752
 1339W        W 5300   1.085   1.718  13.944
 1340W        W 5301   3.356   1.501  14.198
 1341W        W 5302   0.972   2.945  12.643
 1342W        W 5303   2.093   2.634  13.777
 1343W        W 5304   1.313   1.274  13.002
 1344W        W 5305   1.605   2.058  12.645
 1345W        W 5306   2.602   2.831  14.493
 1346W        W 5307   1.681   2.151  14.503
 1347W        W 5308   1.662   1.867  13.981
 1348W        W 5309   0.071   1.258  14.503
 1349W        W 5310   2.903   2.793  14.102
 1350W        W 5311   0.484   0.375  12.100
 1351W        W 5312   1.011   2.633  13.099
 1352W        W 5313   3.474   2.416  12.389
 1353W        W 5314   2.887   0.816  12.956
 1354W        W 5315   3.172   0.769  11.051
 1355W        W 5316   3.637   1.570  13.357
 1356W        W 5317   1.604   3.277  13.110
 1357W        W 5318   3.378   2.743  11.548
 1358W        W 5319   0.507   3.529  11.302
 1359W        W 5320   0.900   3.575  11.978
 1360W        W 5321   0.697   0.329  13.404
 1361W        W 5322   3.320   1.347  13.679
 1362W        W 5323   2.725   1.769  12.138
 1363W        W 5324   2.691   1.457  11.165
 1364W        W 5325   1.899   2.601  13.305
 1365W        W 5326   1.705   0.931  12.504
 1366W        W 5327   2.305   3.018  13.498
 1367W        W 5328   3.176   1.809  11.920
 1368W        W 5329   2.078   0.467  11.936
 1369W        W 5330   0.735   3.161  11.619
 1370W        W 5331   0.106   0.660  12.218
 1371W        W 5332   2.892   1.267  12.692
 1372W        W 5333   0.350   2.884  12.607
 1373W        W 5334   1.691   3.234  11.477
 1374W        W 5335   3.083   1.260  10.941
 1375W        W 5336   0.106   3.018  13.105
 1376W        W 5337   0.897   2.590  13.585
 1377W        W 5338   1.270   1.950  12.204
 1378W        W 5339   1.292   0.355  13.297
 1379W        W 5340   3.521   0.117  12.594
 1380W        W 5341   0.740   1.989  11.062
 1381W        W 5342   0.395   1.022  11.241
 1382W        W 5343   0.457   2.978  12.035
 1383W        W 5344   1.588   2.461  12.283
 1384W        W 5345   2.920   3.320  13.997
 1385W        W 5346   1.846   0.962  11.681
 1386W        W 5347   3.229   3.360  12.453
 1387W        W 5348   2.906   1.213  14.051
 1388W        W 5349   3.619   2.869  12.185
 1389W        W 5350   2.246   2.161  13.669
 1390W        W 5351   0.012   1.712  11.875
 1391W        W 5352   1.123   2.127  13.448
 1392W        W 5353   2.327   1.391  11.826
 1393W        W 5354   2.204   1.881  11.930
 1394W        W 5355   0.547   1.301  13.404
 1395W        W 5356   0.532   1.177  14.326
 1396W        W 5357   0.422   0.094  12.485
 1397W        W 5358   2.190   0.441  13.046
 1398W        W 5359   1.838   0.626  14.209
 1399W        W 5360   2.193   0.775  11.387
 1400W        W 5361   3.376   3.168  14.141
 1401W        W 5362   2.343   0.249  14.180
 1402W        W 5363   3.362   2.550  14.302
 1403W        W 5364   2.792   0.717  13.898
 1404W        W 5365   2.592   0.655  12.168
 1405W        W 5366   2.985   1.789  14.572
 1406W        W 5367   0.725   3.365  12.558
 1407W        W 5368   1.383   1.082  11.544
 1408W        W 5369   0.952   0.366  14.208
 1409W        W 5370   3.004   0.850  11.889
 1410W        W 5371   3.371   1.332  11.834
 1411W        W 5372   1.114   3.549  14.305
 1412W        W 5373   1.040   0.085  11.540
 1413W        W 5374   3.361   0.619  12.575
 1414W        W 5375   3.511   2.868  11.020
 1415W        W 5376   0.418   2.071  12.722
 1416W        W 5377   2.335   0.658  10.952
 1417W        W 5378   3.469   2.990  12.672
 1418W        W 5379   3.508   0.184  13.422
 1419W        W 5380   1.953   1.396  13.976
 1420W        W 5381   2.046   2.735  11.679
 1421W        W 5382   2.446   2.029  14.419
 1422W        W 5383   2.120   0.006  12.728
 1423W        W 5384   0.732   0.909  12.791
 1424W        W 5385   0.286   2.109  13.565
 1425W        W 5386   2.145   3.302  12.271
 1426W        W 5387   3.339   0.899  13.143
 1427W        W 5388   1.976   3.246  13.910
 1428W        W 5389   3.319   2.305  11.115
 1429W        W 5390   1.754   1.788  12.176
 1430W        W 5391   3.606   0.299  13.917
 1431W        W 5392   1.755   2.134  13.511
 1432W        W 5393   1.972   1.020  12.956
 1433W        W 5394   2.824   1.318  11.794
 1434W        W 5395   3.111   1.051  11.436
 1435W        W 5396   2.920   3.091  11.825
 1436W        W 5397   2.754   2.694  12.621
 1437W        W 5398   2.650   1.773  11.599
 1438W        W 5399   2.083   1.983  12.585
 1439W        W 5400   2.964   1.771  12.652
 1440W        W 5401   0.339   0.786  13.076
 1441W        W 5402   3.117   1.838  13.903
 1442W        W 5403   3.468   3.456  13.049
 1443W        W 5404   1.398   2.900  12.451
 1444W        W 5405   2.405   3.433  13.775
 1445W        W 5406   2.399   0.763  13.539
 1446W        W 5407   1.606   3.471  13.600
 1447W        W 5408   3.303   0.425  12.066
 1448W        W 5409   3.094   1.744  13.367
 1449W        W 5410   0.077   1.065  13.405
 1450W        W 5411   2.937   0.860  12.423
 1451W        W 5412   3.348   1.011  14.200
 1452W        W 5413   2.233   2.710  12.418
 1453W        W 5414   1.489   3.301  12.031
 1454W        W 5415   0.604   0.481  11.289
 1455W        W 5416   1.708   0.135  13.099
 1456W        W 5417   0.736   3.255  10.947
 1457W        W 5418   1.110   1.721  11.698
 1458W        W 5419   1.764   2.350  14.011
 1459W        W 5420   1.594   0.708  12.001
 1460W        W 5421   2.950   0.305  12.429
 1461W        W 5422   2.670   3.587  12.757
 1462W        W 5423   2.082   3.235  13.097
 1463W        W 5424   1.478   2.272  13.058
 1464W        W 5425   3.248   2.995  13.184
 1465W        W 5426   0.942   0.498  11.953
 1466W        W 5427   1.464   2.795  12.913
 1467W        W 5428   0.947   0.726  10.978
 1468W        W 5429   1.748   1.335  13.372
 1469W        W 5430   2.596   0.201  13.242
 1470W        W 5431   0.016   2.044  13.127
 1471W        W 5432   1.720   1.862  11.285
 1472W        W 5433   0.988   0.177  11.055
 1473W        W 5434   1.726   1.258  12.106
 1474W        W 5435   2.696   0.234  13.805
 1475W        W 5436   1.284   2.246  13.914
 1476W        W 5437   2.088   2.028  14.131
 1477W        W 5438   2.705   2.058  14.024
 1478W        W 5439   1.989   0.198  14.529
 1479W        W 5440   1.211   0.814  12.922
 1480W        W 5441   0.637   0.770  12.320
 1481W        W 5442   0.423   3.482  11.996
 1482W        W 5443   1.755   2.812  14.121
 1483W        W 5444   0.790   2.297  11.480
 1484W        W 5445   2.470   1.682  12.701
 1485W        W 5446   2.750   1.481  13.100
 1486W        W 5447   1.955   2.155  13.034
 1487W        W 5448   2.425   2.529  11.166
 1488W        W 5449   2.097   0.550  12.494
 1489W        W 5450   3.576   0.828  11.762
 1490W        W 5451   0.070   3.417  13.793
 1491W        W 5452   0.487   2.643  13.325
 1492W        W 5453   0.054   3.489  11.557
 1493W        W 5454   1.953   0.759  13.363
 1494W        W 5455   1.316   2.782  11.212
 1495W        W 5456   3.221   3.164  11.398
 1496W        W 5457   2.196   1.817  11.412
 1497W        W 5458   1.039   1.008  11.929
 1498W        W 5459   1.871   0.918  10.981
 1499W        W 5460   2.455   2.483  14.159
 1500W        W 5461   2.808   0.389  11.776
 1501W        W 5462   0.138   0.237  11.224
 1502W        W 5463   1.424   2.556  13.514
 1503W        W 5464   1.223   2.472  12.606
 1504W        W 5465   0.965   2.424  11.004
 1505W        W 5466   0.206   2.665  11.772
 1506W        W 5467   0.710   1.735  14.214
 1507W        W 5468   1.414   0.295  14.400
 1508W        W 5469   2.123   0.437  13.756
 1509W        W 5470   1.318   0.205  12.037
 1510W        W 5471   2.377   0.282  11.542
 1511W        W 5472   0.322   0.214  13.119
 1512W        W 5473   3.059   0.285  12.895
 1513W        W 5474   0.481   0.783  11.709
 1514W        W 5475   3.052   0.471  13.325
 1515W        W 5476   3.448   1.674  11.010
 1516W        W 5477   0.740   0.432  12.829
 1517W        W 5478   1.854   1.004  13.769
 1518W        W 5479   0.002   0.694  11.247
 1519W        W 5480   0.788   2.083  13.808
 1520W        W 5481   2.146   1.481  12.987
 1521W        W 5482   2.013   3.560  11.283
 1522W        W 5483   0.159   2.067  10.980
 1523W        W 5484   0.894   2.478  14.106
 1524W        W 5485   0.415   1.645  13.737
 1525W        W 5486   1.406   1.750  13.531
 1526W        W 5487   3.174   0.109  13.793
 1527W        W 5488   3.572   1.719  13.784
 1528W        W 5489   3.560   1.919  11.470
 1529W        W 5490   2.423   2.251  11.569
 1530W        W 5491   2.897   3.551  11.264
 1531W        W 5492   2.074   1.541  14.406
 1532W        W 5493   0.404   2.508  14.446
 1533W        W 5494   3.610   0.430  14.398
 1534W        W 5495   3.328   1.358  13.019
 1535W        W 5496   1.636   3.488  14.496
 1536W        W 5497   1.491   0.117  11.223
 1537W        W 5498   3.030   2.716  11.166
 1538W        W 5499   0.799   0.809  14.052
 1539W        W 5500   1.233   2.803  13.914
 1540W        W 5501   3.359   0.794  13.712
 1541W        W 5502   2.570   3.453  11.680
 1542W        W 5503   2.809   2.072  13.047
 1543W        W 5504   1.059   0.488  13.714
 1544W        W 5505   1.528   1.557  14.471
 1545W        W 5506   1.031   2.736  11.665
 1546W        W 5507   2.786   2.234  11.929
 1547W        W 5508   0.554   0.860  13.653
 1548W        W 5509   1.883   2.922  12.117
 1549W        W 5510   3.633   1.482  12.298
 1550W        W 5511   1.855   0.115  14.017
 1551W        W 5512   2.635   2.820  13.096
 1552W        W 5513   2.938   3.164  12.804
 1553W        W 5514   2.157   2.966  11.232
 1554W        W 5515   0.167   2.858  14.074
 1555W        W 5516   0.910   0.850  13.312
 1556W        W 5517   0.880   0.198  12.422
 1557W        W 5518   2.501   1.040  13.114
 1558W        W 5519   1.299   2.211  11.314
 1559W        W 5520   3.297   2.153  12.813
 1560W        W 5521   0.624   2.911  14.236
 1561W        W 5522   3.011   3.593  12.033
 1562W        W 5523   1.110   0.613  12.478
 1563W        W 5524   0.879   2.106  12.568
 1564W        W 5525   1.192   3.517  13.318
 1565W        W 5526   3.259   3.613  14.350
 1566W        W 5527   2.418   1.801  13.283
 1567W        W 5528   0.267   1.599  11.198
 1568W        W 5529   3.401   3.257  11.895
 1569W        W 5530   3.238   0.581  11.514
 1570W        W 5531   1.377   0.100  13.917
 1571W        W 5532   3.083   2.902  12.375
 1572W        W 5533   3.112   1.458  12.280
 1573W        W 5534   1.229   1.131  12.496
 1574W        W 5535   1.474   1.393  13.820
 1575W        W 5536   2.585   2.546  13.683
 1576W        W 5537   1.235   1.000  13.795
 1577W        W 5538   1.214   3.466  12.411
 1578W        W 5539   0.531   3.425  14.045
 1579W        W 5540   0.643   2.786  11.175
 1580W        W 5541   3.160   2.544  11.985
 1581W        W 5542   0.764   1.336  13.871
 1582W        W 5543   3.537   1.266  11.352
 1583W        W 5544   1.282   2.323  11.823
 1584W        W 5545   2.381   1.705  13.904
 1585W        W 5546   2.272   1.333  13.448
 1586W        W 5547   0.832   1.705  13.477
 1587W        W 5548   3.042   3.593  13.306
 1588W        W 5549   2.833   0.227  14.300
 1589W        W 5550   0.497   0.377  13.887
 1590W        W 5551   0.836   1.400  12.940
 1591W        W 5552   1.205   1.214  11.062
 1592W        W 5553   0.008   2.973  13.607
 1593W        W 5554   1.593   1.682  13.050
 1594W        W 5555   1.416   0.707  11.155
 1595W        W 5556   0.551   1.523  11.936
 1596W        W 5557   0.322   3.375  13.373
 1597W        W 5558   3.117   1.601  11.481
 1598W        W 5559   3.212   0.517  14.167
 1599W        W 5560   2.648   2.726  12.130
 1600W        W 5561   0.246   1.650  14.307
 1601W        W 5562   3.212   0.114  11.603
 1602W        W 5563   2.732   2.589  11.614
 1603W        W 5564   1.634   1.647  11.699
 1604W        W 5565   2.821   0.451  11.222
 1605W        W 5566   2.886   1.058  13.408
 1606W        W 5567   0.595   1.651  12.615
 1607W        W 5568   0.889   2.590  12.264
 1608W        W 5569   2.652   1.210  12.229
 1609W        W 5570   1.675   0.589  12.925
 1610W        W 5571   3.637   2.500  13.436
 1611W        W 5572   3.555   0.487  12.997
 1612W        W 5573   0.094   3.317  12.373
 1613W        W 5574   0.603   2.504  11.909
 1614W        W 5575   0.518   0.121  14.462
 1615W        W 5576   1.637   2.974  14.564
 1616W        W 5577   3.392   1.942  12.354
 1617W        W 5578   2.746   2.119  11.234
 1618W        W 5579   2.041   3.640  13.446
 1619W        W 5580   2.898   2.362  14.483
 1620W        W 5581   1.713   0.072  11.763
 1621W        W 5582   2.426   0.941  12.622
 1622W        W 5583   0.112   2.528  12.954
 1623W        W 5584   1.365   0.490  11.595
 1624W        W 5585   1.169   1.974  14.444
 1625W        W 5586   2.163   0.955  12.158
 1626W        W 5587   2.368   2.365  13.280
 1627W        W 5588   0.522   2.970  13.715
 1628W        W 5589   1.113   2.953  14.438
 1629W        W 5590   0.964   0.750  11.452
 1630W        W 5591   2.481   0.892  11.777
 1631W        W 5592   2.439   3.000  14.014
 1632W        W 5593   1.124   1.592  12.613
 1633W        W 5594   0.779   3.290  13.478
 1634W        W 5595   3.524   3.407  11.079
 1635W        W 5596   0.387   2.079  14.075
 1636W        W 5597   2.382   2.341  12.763
 1637W        W 5598   0.818   1.990  12.005
 1638W        W 5599   1.189   2.997  13.400
 1639W        W 5600   1.567   0.416  12.441
 1640W        W 5601   0.178   2.400  11.371
 1641W        W 5602   1.697   1.351  11.241
 1642W        W 5603   1.633   0.542  13.724
 1643W        W 5604   3.305   0.251  11.151
 1644W        W 5605   3.398   1.997  14.250
 1645W        W 5606   2.052   3.254  14.402
 1646W        W 5607   3.610   2.348  13.924
 1647W        W 5608   3.018   3.146  14.535
 1648W        W 5609   0.757   3.602  13.013
 1649W        W 5610   3.616   2.224  11.887
 1650W        W 5611   2.146   1.491  12.400
 1651W        W 5612   1.913   0.103  12.290
 1652W        W 5613   0.972   3.087  12.127
 1653W        W 5614   1.471   0.828  13.352
 1654W        W 5615   1.171   0.197  12.821
 1655W        W 5616   0.234   3.019  11.369
 1656W        W 5617   2.050   2.383  12.087
 1657W        W 5618   0.925   3.178  13.966
 1658W        W 5619   0.402   2.001  11.662
 1659W        W 5620   0.287   0.544  12.661
 1660W        W 5621   1.835   2.509  12.718
 1661W        W 5622   0.087   0.363  11.738
 1662W        W 5623   2.751   1.569  13.665
 1663W        W 5624   2.628   0.955  11.237
 1664W        W 5625   3.145   2.627  12.885
 1665W        W 5626   1.806   3.111  12.716
 1666W        W 5627   1.218   3.215  11.627
 1667W        W 5628   2.500   0.118  11.057
 1668W        W 5629   0.300   3.378  12.798
 1669W        W 5630   2.497   1.136  14.433
 1670W        W 5631   0.480   0.666  14.432
 1671W        W 5632   0.902   1.255  11.490
 1672W        W 5633   2.665   1.582  14.307
 1673W        W 5634   1.008   1.863  13.016
 1674W        W 5635   2.482   0.149  12.136
 1675W        W 5636   1.613   3.580  12.639
 1676W        W 5637   2.827   3.042  13.576
 1677W        W 5638   2.411   3.191  12.687
 1678W        W 5639   2.430   2.171  12.281
 1679W        W 5640   1.892   0.396  11.352
 1680W        W 5641   3.573   0.024  12.074
 1681W        W 5642   1.261   1.659  11.237
 1682W        W 5643   3.427   0.996  12.227
 1683W        W 5644   2.119   2.166  11.104
 1684W        W 5645   3.055   2.366  13.852
 1685W        W 5646   2.709   3.067  11.319
 1686W        W 5647   1.324   0.742  14.225
 1687W        W 5648   1.144   1.326  13.466
 1688W        W 5649   3.236   2.821  13.743
 1689W        W 5650   2.336   0.771  14.120
 1690W        W 5651   0.180   1.242  13.897
 1691W        W 5652   1.940   1.719  13.623
 1692W        W 5653   0.297   2.477  12.280
 1693W        W 5654   0.444   1.774  13.170
 1694W        W 5655   2.761   2.060  13.520
 1695W        W 5656   2.533   3.440  14.331
 1696W        W 5657   2.429   1.179  13.884
 1697W        W 5658   2.706   3.233  12.289
 1698W        W 5659   1.708   2.953  13.612
 1699W        W 5660   1.193   3.308  12.881
 1700W        W 5661   2.998   2.479  13.300
 1701W        W 5662   2.048   2.551  14.437
 1702W        W 5663   0.653   2.504  12.776
 1703W        W 5664   2.999   2.263  12.421
 1704W        W 5665   2.640   3.329  13.172
 1705W        W 5666   0.618   3.058  13.042
 1706W        W 5667   1.639   1.110  14.252
 1707W        W 5668   2.090   3.276  11.763
 1708W        W 5669   1.398   2.531  14.401
 1709W        W 5670   1.524   2.769  11.778
 1710W        W 5671   0.745   1.509  11.037
 1711W        W 5672   0.084   3.595  17.936
 1712W        W 5673   0.460   2.488  17.459
 1713W        W 5674   3.165   2.218  15.229
 1714W        W 5675   3.295   3.303  17.256
 1715W        W 5676   1.213   3.294  14.782
 1716W        W 5677   1.296   1.446  15.765
 1717W        W 5678   0.811   1.294  15.929
 1718W        W 5679   1.802   2.109  15.363
 1719W        W 5680   1.477   3.201  17.718
 1720W        W 5681   0.126   0.762  17.681
 1721W        W 5682   0.888   0.042  17.483
 1722W        W 5683   2.582   0.430  16.370
 1723W        W 5684   2.231   1.301  14.940
 1724W        W 5685   2.801   0.735  18.031
 1725W        W 5686   0.167   0.527  17.156
 1726W        W 5687   0.266   3.146  18.177
 1727W        W 5688   1.788   2.536  14.909
 1728W        W 5689   0.220   1.319  16.602
 1729W        W 5690   1.113   1.210  17.839
 1730W        W 5691   3.572   1.069  16.338
 1731W        W 5692   3.336   2.112  17.197
 1732W        W 5693   1.644   1.445  16.224
 1733W        W 5694   2.190   2.784  16.593
 1734W        W 5695   0.690   2.218  16.825
 1735W        W 5696   0.049   1.746  16.396
 1736W        W 5697   1.085   1.718  17.588
 1737W        W 5698   3.356   1.501  17.842
 1738W        W 5699   0.972   2.945  16.287
 1739W        W 5700   2.093   2.634  17.421
 1740W        W 5701   1.313   1.274  16.646
 1741W        W 5702   1.605   2.058  16.289
 1742W        W 5703   2.602   2.831  18.137
 1743W        W 5704   1.681   2.151  18.147
 1744W        W 5705   1.662   1.867  17.625
 1745W        W 5706   0.071   1.258  18.147
 1746W        W 5707   2.903   2.793  17.746
 1747W        W 5708   0.484   0.375  15.744
 1748W        W 5709   1.011   2.633  16.743
 1749W        W 5710   3.474   2.416  16.033
 1750W        W 5711   3.172   0.769  14.695
 1751W        W 5712   3.637   1.570  17.001
 1752W        W 5713   1.604   3.277  16.754
 1753W        W 5714   3.378   2.743  15.192
 1754W        W 5715   0.507   3.529  14.946
 1755W        W 5716   0.900   3.575  15.622
 1756W        W 5717   0.697   0.329  17.048
 1757W        W 5718   3.320   1.347  17.323
 1758W        W 5719   2.725   1.769  15.782
 1759W        W 5720   2.691   1.457  14.809
 1760W        W 5721   1.705   0.931  16.148
 1761W        W 5722   2.305   3.018  17.142
 1762W        W 5723   3.176   1.809  15.564
 1763W        W 5724   2.078   0.467  15.580
 1764W        W 5725   0.735   3.161  15.263
 1765W        W 5726   0.106   0.660  15.862
 1766W        W 5727   2.892   1.267  16.336
 1767W        W 5728   0.350   2.884  16.251
 1768W        W 5729   1.691   3.234  15.121
 1769W        W 5730   3.083   1.260  14.585
 1770W        W 5731   0.106   3.018  16.749
 1771W        W 5732   0.897   2.590  17.229
 1772W        W 5733   1.270   1.950  15.848
 1773W        W 5734   1.292   0.355  16.941
 1774W        W 5735   3.521   0.117  16.238
 1775W        W 5736   0.740   1.989  14.706
 1776W        W 5737   0.395   1.022  14.885
 1777W        W 5738   0.457   2.978  15.679
 1778W        W 5739   1.588   2.461  15.927
 1779W        W 5740   2.920   3.320  17.641
 1780W        W 5741   1.846   0.962  15.325
 1781W        W 5742   3.229   3.360  16.097
 1782W        W 5743   2.906   1.213  17.695
 1783W        W 5744   3.619   2.869  15.829
 1784W        W 5745   2.246   2.161  17.313
 1785W        W 5746   0.012   1.712  15.519
 1786W        W 5747   1.123   2.127  17.092
 1787W        W 5748   2.327   1.391  15.470
 1788W        W 5749   2.204   1.881  15.574
 1789W        W 5750   0.547   1.301  17.048
 1790W        W 5751   0.532   1.177  17.970
 1791W        W 5752   0.422   0.094  16.129
 1792W        W 5753   2.190   0.441  16.690
 1793W        W 5754   1.838   0.626  17.853
 1794W        W 5755   2.193   0.775  15.031
 1795W        W 5756   3.376   3.168  17.785
 1796W        W 5757   2.343   0.249  17.824
 1797W        W 5758   3.362   2.550  17.946
 1798W        W 5759   2.792   0.717  17.542
 1799W        W 5760   2.592   0.655  15.812
 1800W        W 5761   2.985   1.789  18.216
 1801W        W 5762   0.725   3.365  16.202
 1802W        W 5763   1.383   1.082  15.188
 1803W        W 5764   0.952   0.366  17.852
 1804W        W 5765   3.004   0.850  15.533
 1805W        W 5766   3.371   1.332  15.478
 1806W        W 5767   1.114   3.549  17.949
 1807W        W 5768   1.040   0.085  15.184
 1808W        W 5769   3.361   0.619  16.219
 1809W        W 5770   3.511   2.868  14.664
 1810W        W 5771   0.418   2.071  16.366
 1811W        W 5772   2.335   0.658  14.596
 1812W        W 5773   3.469   2.990  16.316
 1813W        W 5774   3.508   0.184  17.066
 1814W        W 5775   1.953   1.396  17.620
 1815W        W 5776   2.046   2.735  15.323
 1816W        W 5777   2.446   2.029  18.063
 1817W        W 5778   2.120   0.006  16.372
 1818W        W 5779   0.732   0.909  16.435
 1819W        W 5780   0.286   2.109  17.209
 1820W        W 5781   3.339   0.899  16.787
 1821W        W 5782   1.976   3.246  17.554
 1822W        W 5783   3.319   2.305  14.759
 1823W        W 5784   1.754   1.788  15.820
 1824W        W 5785   3.606   0.299  17.561
 1825W        W 5786   1.755   2.134  17.155
 1826W        W 5787   1.972   1.020  16.600
 1827W        W 5788   2.824   1.318  15.438
 1828W        W 5789   3.111   1.051  15.080
 1829W        W 5790   2.920   3.091  15.469
 1830W        W 5791   2.754   2.694  16.265
 1831W        W 5792   2.650   1.773  15.243
 1832W        W 5793   2.083   1.983  16.229
 1833W        W 5794   2.964   1.771  16.296
 1834W        W 5795   0.339   0.786  16.720
 1835W        W 5796   3.117   1.838  17.547
 1836W        W 5797   3.468   3.456  16.693
 1837W        W 5798   1.398   2.900  16.095
 1838W        W 5799   2.405   3.433  17.419
 1839W        W 5800   2.399   0.763  17.183
 1840W        W 5801   1.606   3.471  17.244
 1841W        W 5802   3.303   0.425  15.710
 1842W        W 5803   3.094   1.744  17.011
 1843W        W 5804   0.077   1.065  17.049
 1844W        W 5805   3.348   1.011  17.844
 1845W        W 5806   2.233   2.710  16.062
 1846W        W 5807   1.489   3.301  15.675
 1847W        W 5808   0.604   0.481  14.933
 1848W        W 5809   1.708   0.135  16.743
 1849W        W 5810   0.736   3.255  14.591
 1850W        W 5811   1.110   1.721  15.342
 1851W        W 5812   1.764   2.350  17.655
 1852W        W 5813   1.594   0.708  15.645
 1853W        W 5814   2.670   3.587  16.401
 1854W        W 5815   2.082   3.235  16.741
 1855W        W 5816   1.478   2.272  16.702
 1856W        W 5817   3.248   2.995  16.828
 1857W        W 5818   0.942   0.498  15.597
 1858W        W 5819   1.464   2.795  16.557
 1859W        W 5820   0.947   0.726  14.622
 1860W        W 5821   1.748   1.335  17.016
 1861W        W 5822   2.596   0.201  16.886
 1862W        W 5823   0.016   2.044  16.771
 1863W        W 5824   1.720   1.862  14.929
 1864W        W 5825   0.988   0.177  14.699
 1865W        W 5826   1.726   1.258  15.750
 1866W        W 5827   2.696   0.234  17.449
 1867W        W 5828   1.284   2.246  17.558
 1868W        W 5829   2.088   2.028  17.775
 1869W        W 5830   2.705   2.058  17.668
 1870W        W 5831   1.989   0.198  18.173
 1871W        W 5832   1.211   0.814  16.566
 1872W        W 5833   0.637   0.770  15.964
 1873W        W 5834   0.423   3.482  15.640
 1874W        W 5835   1.755   2.812  17.765
 1875W        W 5836   0.790   2.297  15.124
 1876W        W 5837   2.750   1.481  16.744
 1877W        W 5838   1.955   2.155  16.678
 1878W        W 5839   2.425   2.529  14.810
 1879W        W 5840   2.097   0.550  16.138
 1880W        W 5841   3.576   0.828  15.406
 1881W        W 5842   0.070   3.417  17.437
 1882W        W 5843   0.487   2.643  16.969
 1883W        W 5844   0.054   3.489  15.201
 1884W        W 5845   1.953   0.759  17.007
 1885W        W 5846   1.316   2.782  14.856
 1886W        W 5847   3.221   3.164  15.042
 1887W        W 5848   2.196   1.817  15.056
 1888W        W 5849   1.039   1.008  15.573
 1889W        W 5850   1.871   0.918  14.625
 1890W        W 5851   2.455   2.483  17.803
 1891W        W 5852   2.808   0.389  15.420
 1892W        W 5853   0.138   0.237  14.868
 1893W        W 5854   1.424   2.556  17.158
 1894W        W 5855   1.223   2.472  16.250
 1895W        W 5856   0.965   2.424  14.648
 1896W        W 5857   0.206   2.665  15.416
 1897W        W 5858   0.710   1.735  17.858
 1898W        W 5859   1.414   0.295  18.044
 1899W        W 5860   2.123   0.437  17.400
 1900W        W 5861   1.318   0.205  15.681
 1901W        W 5862   2.377   0.282  15.186
 1902W        W 5863   0.322   0.214  16.763
 1903W        W 5864   0.370   1.177  16.133
 1904W        W 5865   3.059   0.285  16.539
 1905W        W 5866   0.481   0.783  15.353
 1906W        W 5867   3.052   0.471  16.969
 1907W        W 5868   3.448   1.674  14.654
 1908W        W 5869   0.740   0.432  16.473
 1909W        W 5870   1.854   1.004  17.413
 1910W        W 5871   0.002   0.694  14.891
 1911W        W 5872   0.788   2.083  17.452
 1912W        W 5873   2.146   1.481  16.631
 1913W        W 5874   2.013   3.560  14.927
 1914W        W 5875   0.159   2.067  14.624
 1915W        W 5876   0.894   2.478  17.750
 1916W        W 5877   0.415   1.645  17.381
 1917W        W 5878   1.406   1.750  17.175
 1918W        W 5879   3.174   0.109  17.437
 1919W        W 5880   3.572   1.719  17.428
 1920W        W 5881   3.560   1.919  15.114
 1921W        W 5882   2.423   2.251  15.213
 1922W        W 5883   2.897   3.551  14.908
 1923W        W 5884   2.074   1.541  18.050
 1924W        W 5885   0.404   2.508  18.090
 1925W        W 5886   3.610   0.430  18.042
 1926W        W 5887   3.328   1.358  16.663
 1927W        W 5888   1.636   3.488  18.140
 1928W        W 5889   1.491   0.117  14.867
 1929W        W 5890   3.030   2.716  14.810
 1930W        W 5891   0.799   0.809  17.696
 1931W        W 5892   1.233   2.803  17.558
 1932W        W 5893   3.359   0.794  17.356
 1933W        W 5894   2.570   3.453  15.324
 1934W        W 5895   2.809   2.072  16.691
 1935W        W 5896   1.059   0.488  17.358
 1936W        W 5897   1.528   1.557  18.115
 1937W        W 5898   1.031   2.736  15.309
 1938W        W 5899   2.786   2.234  15.573
 1939W        W 5900   0.554   0.860  17.297
 1940W        W 5901   1.883   2.922  15.761
 1941W        W 5902   3.633   1.482  15.942
 1942W        W 5903   1.855   0.115  17.661
 1943W        W 5904   2.635   2.820  16.740
 1944W        W 5905   2.938   3.164  16.448
 1945W        W 5906   2.157   2.966  14.876
 1946W        W 5907   0.167   2.858  17.718
 1947W        W 5908   0.910   0.850  16.956
 1948W        W 5909   0.880   0.198  16.066
 1949W        W 5910   2.501   1.040  16.758
 1950W        W 5911   1.299   2.211  14.958
 1951W        W 5912   3.297   2.153  16.457
 1952W        W 5913   0.624   2.911  17.880
 1953W        W 5914   3.011   3.593  15.677
 1954W        W 5915   1.110   0.613  16.122
 1955W        W 5916   0.879   2.106  16.212
 1956W        W 5917   1.192   3.517  16.962
 1957W        W 5918   3.259   3.613  17.994
 1958W        W 5919   2.418   1.801  16.927
 1959W        W 5920   0.267   1.599  14.842
 1960W        W 5921   3.401   3.257  15.539
 1961W        W 5922   3.238   0.581  15.158
 1962W        W 5923   1.377   0.100  17.561
 1963W        W 5924   3.083   2.902  16.019
 1964W        W 5925   3.112   1.458  15.924
 1965W        W 5926   1.229   1.131  16.140
 1966W        W 5927   1.474   1.393  17.464
 1967W        W 5928   1.235   1.000  17.439
 1968W        W 5929   1.214   3.466  16.055
 1969W        W 5930   0.531   3.425  17.689
 1970W        W 5931   0.643   2.786  14.819
 1971W        W 5932   3.160   2.544  15.629
 1972W        W 5933   0.764   1.336  17.515
 1973W        W 5934   3.537   1.266  14.996
 1974W        W 5935   1.282   2.323  15.467
 1975W        W 5936   2.381   1.705  17.548
 1976W        W 5937   2.272   1.333  17.092
 1977W        W 5938   0.832   1.705  17.121
 1978W        W 5939   3.042   3.593  16.950
 1979W        W 5940   2.833   0.227  17.944
 1980W        W 5941   0.497   0.377  17.531
 1981W        W 5942   0.836   1.400  16.584
 1982W        W 5943   1.205   1.214  14.706
 1983W        W 5944   0.008   2.973  17.251
 1984W        W 5945   1.593   1.682  16.694
 1985W        W 5946   1.416   0.707  14.799
 1986W        W 5947   0.551   1.523  15.580
 1987W        W 5948   0.322   3.375  17.017
 1988W        W 5949   3.117   1.601  15.125
 1989W        W 5950   3.212   0.517  17.811
 1990W        W 5951   2.648   2.726  15.774
 1991W        W 5952   0.246   1.650  17.951
 1992W        W 5953   3.212   0.114  15.247
 1993W        W 5954   2.732   2.589  15.258
 1994W        W 5955   1.634   1.647  15.343
 1995W        W 5956   2.821   0.451  14.866
 1996W        W 5957   2.886   1.058  17.052
 1997W        W 5958   0.595   1.651  16.259
 1998W        W 5959   0.889   2.590  15.908
 1999W        W 5960   2.652   1.210  15.873
 2000W        W 5961   1.675   0.589  16.569
 2001W        W 5962   3.637   2.500  17.080
 2002W        W 5963   3.555   0.487  16.641
 2003W        W 5964   0.094   3.317  16.017
 2004W        W 5965   0.603   2.504  15.553
 2005W        W 5966   0.518   0.121  18.106
 2006W        W 5967   1.637   2.974  18.208
 2007W        W 5968   3.392   1.942  15.998
 2008W        W 5969   2.746   2.119  14.878
 2009W        W 5970   2.041   3.640  17.090
 2010W        W 5971   2.898   2.362  18.127
 2011W        W 5972   1.713   0.072  15.407
 2012W        W 5973   2.426   0.941  16.266
 2013W        W 5974   0.112   2.528  16.598
 2014W        W 5975   1.365   0.490  15.239
 2015W        W 5976   1.169   1.974  18.088
 2016W        W 5977   2.163   0.955  15.802
 2017W        W 5978   0.522   2.970  17.359
 2018W        W 5979   1.113   2.953  18.082
 2019W        W 5980   0.964   0.750  15.096
 2020W        W 5981   2.481   0.892  15.421
 2021W        W 5982   2.439   3.000  17.658
 2022W        W 5983   1.124   1.592  16.257
 2023W        W 5984   0.779   3.290  17.122
 2024W        W 5985   3.524   3.407  14.723
 2025W        W 5986   0.387   2.079  17.719
 2026W        W 5987   0.818   1.990  15.649
 2027W        W 5988   1.189   2.997  17.044
 2028W        W 5989   1.567   0.416  16.085
 2029W        W 5990   0.178   2.400  15.015
 2030W        W 5991   1.697   1.351  14.885
 2031W        W 5992   0.343   1.900  15.904
 2032W        W 5993   1.633   0.542  17.368
 2033W        W 5994   3.305   0.251  14.795
 2034W        W 5995   3.398   1.997  17.894
 2035W        W 5996   2.052   3.254  18.046
 2036W        W 5997   3.610   2.348  17.568
 2037W        W 5998   3.018   3.146  18.179
 2038W        W 5999   0.757   3.602  16.657
 2039W        W 6000   3.616   2.224  15.531
 2040W        W 6001   2.146   1.491  16.044
 2041W        W 6002   1.913   0.103  15.934
 2042W        W 6003   0.972   3.087  15.771
 2043W        W 6004   1.471   0.828  16.996
 2044W        W 6005   1.171   0.197  16.465
 2045W        W 6006   0.234   3.019  15.013
 2046W        W 6007   2.050   2.383  15.731
 2047W        W 6008   0.925   3.178  17.610
 2048W        W 6009   0.402   2.001  15.306
 2049W        W 6010   0.287   0.544  16.305
 2050W        W 6011   0.087   0.363  15.382
 2051W        W 6012   2.751   1.569  17.309
 2052W        W 6013   2.628   0.955  14.881
 2053W        W 6014   3.145   2.627  16.529
 2054W        W 6015   1.218   3.215  15.271
 2055W        W 6016   2.500   0.118  14.701
 2056W        W 6017   0.300   3.378  16.442
 2057W        W 6018   2.497   1.136  18.077
 2058W        W 6019   0.480   0.666  18.076
 2059W        W 6020   0.211   1.266  15.409
 2060W        W 6021   0.902   1.255  15.134
 2061W        W 6022   2.665   1.582  17.951
 2062W        W 6023   1.008   1.863  16.660
 2063W        W 6024   2.482   0.149  15.780
 2064W        W 6025   2.827   3.042  17.220
 2065W        W 6026   2.430   2.171  15.925
 2066W        W 6027   1.892   0.396  14.996
 2067W        W 6028   3.573   0.024  15.718
 2068W        W 6029   1.261   1.659  14.881
 2069W        W 6030   2.119   2.166  14.748
 2070W        W 6031   3.055   2.366  17.496
 2071W        W 6032   2.709   3.067  14.963
 2072W        W 6033   1.324   0.742  17.869
 2073W        W 6034   1.144   1.326  17.110
 2074W        W 6035   3.236   2.821  17.387
 2075W        W 6036   2.336   0.771  17.764
 2076W        W 6037   0.180   1.242  17.541
 2077W        W 6038   1.940   1.719  17.267
 2078W        W 6039   0.297   2.477  15.924
 2079W        W 6040   0.444   1.774  16.814
 2080W        W 6041   2.761   2.060  17.164
 2081W        W 6042   2.533   3.440  17.975
 2082W        W 6043   2.429   1.179  17.528
 2083W        W 6044   2.706   3.233  15.933
 2084W        W 6045   1.708   2.953  17.256
 2085W        W 6046   1.193   3.308  16.525
 2086W        W 6047   2.998   2.479  16.944
 2087W        W 6048   2.048   2.551  18.081
 2088W        W 6049   0.653   2.504  16.420
 2089W        W 6050   2.999   2.263  16.065
 2090W        W 6051   2.640   3.329  16.816
 2091W        W 6052   0.618   3.058  16.686
 2092W        W 6053   1.639   1.110  17.896
 2093W        W 6054   2.090   3.276  15.407
 2094W        W 6055   1.398   2.531  18.045
 2095W        W 6056   1.524   2.769  15.422
 2096W        W 6057   0.745   1.509  14.681
 2097W        W 6058   0.084   3.595  21.580
 2098W        W 6059   0.460   2.488  21.103
 2099W        W 6060   3.165   2.218  18.873
 2100W        W 6061   3.295   3.303  20.900
 2101W        W 6062   1.213   3.294  18.426
 2102W        W 6063   1.296   1.446  19.409
 2103W        W 6064   0.811   1.294  19.573
 2104W        W 6065   1.802   2.109  19.007
 2105W        W 6066   1.477   3.201  21.362
 2106W        W 6067   0.126   0.762  21.325
 2107W        W 6068   0.888   0.042  21.127
 2108W        W 6069   2.582   0.430  20.014
 2109W        W 6070   2.231   1.301  18.584
 2110W        W 6071   2.801   0.735  21.675
 2111W        W 6072   0.167   0.527  20.800
 2112W        W 6073   0.266   3.146  21.821
 2113W        W 6074   1.788   2.536  18.553
 2114W        W 6075   0.220   1.319  20.246
 2115W        W 6076   1.113   1.210  21.483
 2116W        W 6077   3.572   1.069  19.982
 2117W        W 6078   3.336   2.112  20.841
 2118W        W 6079   1.644   1.445  19.868
 2119W        W 6080   2.190   2.784  20.237
 2120W        W 6081   0.690   2.218  20.469
 2121W        W 6082   0.049   1.746  20.040
 2122W        W 6083   1.085   1.718  21.232
 2123W        W 6084   3.356   1.501  21.486
 2124W        W 6085   0.972   2.945  19.931
 2125W        W 6086   2.093   2.634  21.065
 2126W        W 6087   1.313   1.274  20.290
 2127W        W 6088   1.605   2.058  19.933
 2128W        W 6089   2.602   2.831  21.781
 2129W        W 6090   1.681   2.151  21.791
 2130W        W 6091   1.662   1.867  21.269
 2131W        W 6092   0.071   1.258  21.791
 2132W        W 6093   2.903   2.793  21.390
 2133W        W 6094   0.484   0.375  19.388
 2134W        W 6095   1.011   2.633  20.387
 2135W        W 6096   3.474   2.416  19.677
 2136W        W 6097   2.887   0.816  20.244
 2137W        W 6098   3.172   0.769  18.339
 2138W        W 6099   3.637   1.570  20.645
 2139W        W 6100   1.604   3.277  20.398
 2140W        W 6101   3.378   2.743  18.836
 2141W        W 6102   0.507   3.529  18.590
 2142W        W 6103   0.900   3.575  19.266
 2143W        W 6104   0.697   0.329  20.692
 2144W        W 6105   3.320   1.347  20.967
 2145W        W 6106   2.725   1.769  19.426
 2146W        W 6107   2.691   1.457  18.453
 2147W        W 6108   1.899   2.601  20.593
 2148W        W 6109   1.705   0.931  19.792
 2149W        W 6110   2.305   3.018  20.786
 2150W        W 6111   3.176   1.809  19.208
 2151W        W 6112   2.078   0.467  19.224
 2152W        W 6113   0.735   3.161  18.907
 2153W        W 6114   0.106   0.660  19.506
 2154W        W 6115   2.892   1.267  19.980
 2155W        W 6116   0.350   2.884  19.895
 2156W        W 6117   1.691   3.234  18.765
 2157W        W 6118   3.083   1.260  18.229
 2158W        W 6119   0.106   3.018  20.393
 2159W        W 6120   0.897   2.590  20.873
 2160W        W 6121   1.292   0.355  20.585
 2161W        W 6122   3.521   0.117  19.882
 2162W        W 6123   0.740   1.989  18.350
 2163W        W 6124   0.395   1.022  18.529
 2164W        W 6125   0.457   2.978  19.323
 2165W        W 6126   1.588   2.461  19.571
 2166W        W 6127   2.920   3.320  21.285
 2167W        W 6128   1.846   0.962  18.969
 2168W        W 6129   3.229   3.360  19.741
 2169W        W 6130   2.906   1.213  21.339
 2170W        W 6131   3.619   2.869  19.473
 2171W        W 6132   2.246   2.161  20.957
 2172W        W 6133   0.012   1.712  19.163
 2173W        W 6134   1.123   2.127  20.736
 2174W        W 6135   2.327   1.391  19.114
 2175W        W 6136   2.204   1.881  19.218
 2176W        W 6137   0.547   1.301  20.692
 2177W        W 6138   0.532   1.177  21.614
 2178W        W 6139   0.422   0.094  19.773
 2179W        W 6140   2.190   0.441  20.334
 2180W        W 6141   1.838   0.626  21.497
 2181W        W 6142   2.193   0.775  18.675
 2182W        W 6143   3.376   3.168  21.429
 2183W        W 6144   2.343   0.249  21.468
 2184W        W 6145   3.362   2.550  21.590
 2185W        W 6146   2.792   0.717  21.186
 2186W        W 6147   2.592   0.655  19.456
 2187W        W 6148   2.985   1.789  21.860
 2188W        W 6149   0.725   3.365  19.846
 2189W        W 6150   0.952   0.366  21.496
 2190W        W 6151   3.004   0.850  19.177
 2191W        W 6152   3.371   1.332  19.122
 2192W        W 6153   1.114   3.549  21.593
 2193W        W 6154   1.040   0.085  18.828
 2194W        W 6155   3.361   0.619  19.863
 2195W        W 6156   3.511   2.868  18.308
 2196W        W 6157   0.418   2.071  20.010
 2197W        W 6158   2.335   0.658  18.240
 2198W        W 6159   3.469   2.990  19.960
 2199W        W 6160   3.508   0.184  20.710
 2200W        W 6161   1.953   1.396  21.264
 2201W        W 6162   2.046   2.735  18.967
 2202W        W 6163   2.446   2.029  21.707
 2203W        W 6164   2.120   0.006  20.016
 2204W        W 6165   0.732   0.909  20.079
 2205W        W 6166   0.286   2.109  20.853
 2206W        W 6167   2.145   3.302  19.559
 2207W        W 6168   3.339   0.899  20.431
 2208W        W 6169   1.976   3.246  21.198
 2209W        W 6170   3.319   2.305  18.403
 2210W        W 6171   1.754   1.788  19.464
 2211W        W 6172   3.606   0.299  21.205
 2212W        W 6173   1.755   2.134  20.799
 2213W        W 6174   1.972   1.020  20.244
 2214W        W 6175   2.824   1.318  19.082
 2215W        W 6176   3.111   1.051  18.724
 2216W        W 6177   2.920   3.091  19.113
 2217W        W 6178   2.754   2.694  19.909
 2218W        W 6179   2.650   1.773  18.887
 2219W        W 6180   2.083   1.983  19.873
 2220W        W 6181   2.964   1.771  19.940
 2221W        W 6182   0.339   0.786  20.364
 2222W        W 6183   3.117   1.838  21.191
 2223W        W 6184   3.468   3.456  20.337
 2224W        W 6185   1.398   2.900  19.739
 2225W        W 6186   2.405   3.433  21.063
 2226W        W 6187   2.399   0.763  20.827
 2227W        W 6188   1.606   3.471  20.888
 2228W        W 6189   3.303   0.425  19.354
 2229W        W 6190   3.094   1.744  20.655
 2230W        W 6191   0.077   1.065  20.693
 2231W        W 6192   2.937   0.860  19.711
 2232W        W 6193   3.348   1.011  21.488
 2233W        W 6194   2.233   2.710  19.706
 2234W        W 6195   1.489   3.301  19.319
 2235W        W 6196   0.604   0.481  18.577
 2236W        W 6197   1.708   0.135  20.387
 2237W        W 6198   0.736   3.255  18.235
 2238W        W 6199   1.764   2.350  21.299
 2239W        W 6200   1.594   0.708  19.289
 2240W        W 6201   2.950   0.305  19.717
 2241W        W 6202   2.670   3.587  20.045
 2242W        W 6203   2.082   3.235  20.385
 2243W        W 6204   1.478   2.272  20.346
 2244W        W 6205   3.248   2.995  20.472
 2245W        W 6206   0.942   0.498  19.241
 2246W        W 6207   1.464   2.795  20.201
 2247W        W 6208   0.947   0.726  18.266
 2248W        W 6209   1.748   1.335  20.660
 2249W        W 6210   2.596   0.201  20.530
 2250W        W 6211   0.016   2.044  20.415
 2251W        W 6212   1.720   1.862  18.573
 2252W        W 6213   0.988   0.177  18.343
 2253W        W 6214   1.726   1.258  19.394
 2254W        W 6215   2.696   0.234  21.093
 2255W        W 6216   1.284   2.246  21.202
 2256W        W 6217   2.088   2.028  21.419
 2257W        W 6218   2.705   2.058  21.312
 2258W        W 6219   1.989   0.198  21.817
 2259W        W 6220   1.211   0.814  20.210
 2260W        W 6221   0.637   0.770  19.608
 2261W        W 6222   0.423   3.482  19.284
 2262W        W 6223   1.755   2.812  21.409
 2263W        W 6224   0.790   2.297  18.768
 2264W        W 6225   2.470   1.682  19.989
 2265W        W 6226   2.750   1.481  20.388
 2266W        W 6227   1.955   2.155  20.322
 2267W        W 6228   2.425   2.529  18.454
 2268W        W 6229   2.097   0.550  19.782
 2269W        W 6230   3.576   0.828  19.050
 2270W        W 6231   0.070   3.417  21.081
 2271W        W 6232   0.487   2.643  20.613
 2272W        W 6233   0.054   3.489  18.845
 2273W        W 6234   1.953   0.759  20.651
 2274W        W 6235   1.316   2.782  18.500
 2275W        W 6236   3.221   3.164  18.686
 2276W        W 6237   2.196   1.817  18.700
 2277W        W 6238   1.039   1.008  19.217
 2278W        W 6239   1.871   0.918  18.269
 2279W        W 6240   2.455   2.483  21.447
 2280W        W 6241   2.808   0.389  19.064
 2281W        W 6242   0.138   0.237  18.512
 2282W        W 6243   1.424   2.556  20.802
 2283W        W 6244   1.223   2.472  19.894
 2284W        W 6245   0.965   2.424  18.292
 2285W        W 6246   0.206   2.665  19.060
 2286W        W 6247   0.710   1.735  21.502
 2287W        W 6248   1.414   0.295  21.688
 2288W        W 6249   2.123   0.437  21.044
 2289W        W 6250   1.318   0.205  19.325
 2290W        W 6251   2.377   0.282  18.830
 2291W        W 6252   0.322   0.214  20.407
 2292W        W 6253   0.370   1.177  19.777
 2293W        W 6254   3.059   0.285  20.183
 2294W        W 6255   0.481   0.783  18.997
 2295W        W 6256   3.052   0.471  20.613
 2296W        W 6257   3.448   1.674  18.298
 2297W        W 6258   0.740   0.432  20.117
 2298W        W 6259   1.854   1.004  21.057
 2299W        W 6260   0.002   0.694  18.535
 2300W        W 6261   0.788   2.083  21.096
 2301W        W 6262   2.146   1.481  20.275
 2302W        W 6263   2.013   3.560  18.571
 2303W        W 6264   0.159   2.067  18.268
 2304W        W 6265   0.894   2.478  21.394
 2305W        W 6266   0.415   1.645  21.025
 2306W        W 6267   1.406   1.750  20.819
 2307W        W 6268   3.174   0.109  21.081
 2308W        W 6269   3.572   1.719  21.072
 2309W        W 6270   3.560   1.919  18.758
 2310W        W 6271   2.423   2.251  18.857
 2311W        W 6272   2.897   3.551  18.552
 2312W        W 6273   2.074   1.541  21.694
 2313W        W 6274   0.404   2.508  21.734
 2314W        W 6275   3.610   0.430  21.686
 2315W        W 6276   3.328   1.358  20.307
 2316W        W 6277   1.636   3.488  21.784
 2317W        W 6278   1.491   0.117  18.511
 2318W        W 6279   3.030   2.716  18.454
 2319W        W 6280   0.799   0.809  21.340
 2320W        W 6281   1.233   2.803  21.202
 2321W        W 6282   3.359   0.794  21.000
 2322W        W 6283   2.570   3.453  18.968
 2323W        W 6284   2.809   2.072  20.335
 2324W        W 6285   1.059   0.488  21.002
 2325W        W 6286   1.528   1.557  21.759
 2326W        W 6287   1.031   2.736  18.953
 2327W        W 6288   2.786   2.234  19.217
 2328W        W 6289   0.554   0.860  20.941
 2329W        W 6290   1.883   2.922  19.405
 2330W        W 6291   3.633   1.482  19.586
 2331W        W 6292   1.855   0.115  21.305
 2332W        W 6293   2.635   2.820  20.384
 2333W        W 6294   2.938   3.164  20.092
 2334W        W 6295   2.157   2.966  18.520
 2335W        W 6296   0.167   2.858  21.362
 2336W        W 6297   0.910   0.850  20.600
 2337W        W 6298   0.880   0.198  19.710
 2338W        W 6299   2.501   1.040  20.402
 2339W        W 6300   1.299   2.211  18.602
 2340W        W 6301   3.297   2.153  20.101
 2341W        W 6302   0.624   2.911  21.524
 2342W        W 6303   3.011   3.593  19.321
 2343W        W 6304   1.110   0.613  19.766
 2344W        W 6305   0.879   2.106  19.856
 2345W        W 6306   1.192   3.517  20.606
 2346W        W 6307   3.259   3.613  21.638
 2347W        W 6308   2.418   1.801  20.571
 2348W        W 6309   0.267   1.599  18.486
 2349W        W 6310   3.401   3.257  19.183
 2350W        W 6311   3.238   0.581  18.802
 2351W        W 6312   1.377   0.100  21.205
 2352W        W 6313   3.083   2.902  19.663
 2353W        W 6314   3.112   1.458  19.568
 2354W        W 6315   1.229   1.131  19.784
 2355W        W 6316   1.474   1.393  21.108
 2356W        W 6317   2.585   2.546  20.971
 2357W        W 6318   1.235   1.000  21.083
 2358W        W 6319   1.214   3.466  19.699
 2359W        W 6320   0.531   3.425  21.333
 2360W        W 6321   0.643   2.786  18.463
 2361W        W 6322   3.160   2.544  19.273
 2362W        W 6323   0.764   1.336  21.159
 2363W        W 6324   3.537   1.266  18.640
 2364W        W 6325   1.282   2.323  19.111
 2365W        W 6326   2.381   1.705  21.192
 2366W        W 6327   2.272   1.333  20.736
 2367W        W 6328   0.832   1.705  20.765
 2368W        W 6329   3.042   3.593  20.594
 2369W        W 6330   2.833   0.227  21.588
 2370W        W 6331   0.497   0.377  21.175
 2371W        W 6332   0.836   1.400  20.228
 2372W        W 6333   1.205   1.214  18.350
 2373W        W 6334   0.008   2.973  20.895
 2374W        W 6335   1.593   1.682  20.338
 2375W        W 6336   1.416   0.707  18.443
 2376W        W 6337   0.551   1.523  19.224
 2377W        W 6338   0.322   3.375  20.661
 2378W        W 6339   3.117   1.601  18.769
 2379W        W 6340   3.212   0.517  21.455
 2380W        W 6341   2.648   2.726  19.418
 2381W        W 6342   0.246   1.650  21.595
 2382W        W 6343   3.212   0.114  18.891
 2383W        W 6344   2.732   2.589  18.902
 2384W        W 6345   1.634   1.647  18.987
 2385W        W 6346   2.821   0.451  18.510
 2386W        W 6347   2.886   1.058  20.696
 2387W        W 6348   0.595   1.651  19.903
 2388W        W 6349   0.889   2.590  19.552
 2389W        W 6350   2.652   1.210  19.517
 2390W        W 6351   1.675   0.589  20.213
 2391W        W 6352   3.637   2.500  20.724
 2392W        W 6353   3.555   0.487  20.285
 2393W        W 6354   0.094   3.317  19.661
 2394W        W 6355   0.603   2.504  19.197
 2395W        W 6356   0.518   0.121  21.750
 2396W        W 6357   1.637   2.974  21.852
 2397W        W 6358   3.392   1.942  19.642
 2398W        W 6359   2.746   2.119  18.522
 2399W        W 6360   2.041   3.640  20.734
 2400W        W 6361   2.898   2.362  21.771
 2401W        W 6362   1.713   0.072  19.051
 2402W        W 6363   2.426   0.941  19.910
 2403W        W 6364   0.112   2.528  20.242
 2404W        W 6365   1.365   0.490  18.883
 2405W        W 6366   1.169   1.974  21.732
 2406W        W 6367   2.163   0.955  19.446
 2407W        W 6368   2.368   2.365  20.568
 2408W        W 6369   0.522   2.970  21.003
 2409W        W 6370   1.113   2.953  21.726
 2410W        W 6371   0.964   0.750  18.740
 2411W        W 6372   2.481   0.892  19.065
 2412W        W 6373   2.439   3.000  21.302
 2413W        W 6374   1.124   1.592  19.901
 2414W        W 6375   0.779   3.290  20.766
 2415W        W 6376   3.524   3.407  18.367
 2416W        W 6377   0.387   2.079  21.363
 2417W        W 6378   2.382   2.341  20.051
 2418W        W 6379   0.818   1.990  19.293
 2419W        W 6380   1.189   2.997  20.688
 2420W        W 6381   1.567   0.416  19.729
 2421W        W 6382   0.178   2.400  18.659
 2422W        W 6383   1.697   1.351  18.529
 2423W        W 6384   0.343   1.900  19.548
 2424W        W 6385   1.633   0.542  21.012
 2425W        W 6386   3.305   0.251  18.439
 2426W        W 6387   3.398   1.997  21.538
 2427W        W 6388   2.052   3.254  21.690
 2428W        W 6389   3.610   2.348  21.212
 2429W        W 6390   3.018   3.146  21.823
 2430W        W 6391   0.757   3.602  20.301
 2431W        W 6392   3.616   2.224  19.175
 2432W        W 6393   2.146   1.491  19.688
 2433W        W 6394   1.913   0.103  19.578
 2434W        W 6395   0.972   3.087  19.415
 2435W        W 6396   1.471   0.828  20.640
 2436W        W 6397   1.171   0.197  20.109
 2437W        W 6398   0.234   3.019  18.657
 2438W        W 6399   2.050   2.383  19.375
 2439W        W 6400   0.925   3.178  21.254
 2440W        W 6401   0.402   2.001  18.950
 2441W        W 6402   0.287   0.544  19.949
 2442W        W 6403   1.835   2.509  20.006
 2443W        W 6404   0.087   0.363  19.026
 2444W        W 6405   2.751   1.569  20.953
 2445W        W 6406   2.628   0.955  18.525
 2446W        W 6407   3.145   2.627  20.173
 2447W        W 6408   1.806   3.111  20.004
 2448W        W 6409   1.218   3.215  18.915
 2449W        W 6410   2.500   0.118  18.345
 2450W        W 6411   0.300   3.378  20.086
 2451W        W 6412   2.497   1.136  21.721
 2452W        W 6413   0.480   0.666  21.720
 2453W        W 6414   0.211   1.266  19.053
 2454W        W 6415   2.665   1.582  21.595
 2455W        W 6416   1.008   1.863  20.304
 2456W        W 6417   2.482   0.149  19.424
 2457W        W 6418   1.613   3.580  19.927
 2458W        W 6419   2.827   3.042  20.864
 2459W        W 6420   2.411   3.191  19.975
 2460W        W 6421   2.430   2.171  19.569
 2461W        W 6422   1.892   0.396  18.640
 2462W        W 6423   3.573   0.024  19.362
 2463W        W 6424   1.261   1.659  18.525
 2464W        W 6425   3.427   0.996  19.515
 2465W        W 6426   2.119   2.166  18.392
 2466W        W 6427   3.055   2.366  21.140
 2467W        W 6428   2.709   3.067  18.607
 2468W        W 6429   1.324   0.742  21.513
 2469W        W 6430   1.144   1.326  20.754
 2470W        W 6431   3.236   2.821  21.031
 2471W        W 6432   2.336   0.771  21.408
 2472W        W 6433   0.180   1.242  21.185
 2473W        W 6434   1.940   1.719  20.911
 2474W        W 6435   0.297   2.477  19.568
 2475W        W 6436   0.444   1.774  20.458
 2476W        W 6437   2.761   2.060  20.808
 2477W        W 6438   2.533   3.440  21.619
 2478W        W 6439   2.429   1.179  21.172
 2479W        W 6440   2.706   3.233  19.577
 2480W        W 6441   1.708   2.953  20.900
 2481W        W 6442   1.193   3.308  20.169
 2482W        W 6443   2.998   2.479  20.588
 2483W        W 6444   2.048   2.551  21.725
 2484W        W 6445   0.653   2.504  20.064
 2485W        W 6446   2.999   2.263  19.709
 2486W        W 6447   2.640   3.329  20.460
 2487W        W 6448   0.618   3.058  20.330
 2488W        W 6449   1.639   1.110  21.540
 2489W        W 6450   2.090   3.276  19.051
 2490W        W 6451   1.398   2.531  21.689
 2491W        W 6452   1.524   2.769  19.066
 2492W        W 6453   0.745   1.509  18.325
 2493W        W 6454   3.165   2.218  22.518
 2494W        W 6455   1.213   3.294  22.071
 2495W        W 6456   1.296   1.446  23.054
 2496W        W 6457   0.811   1.294  23.218
 2497W        W 6458   1.802   2.109  22.652
 2498W        W 6459   2.231   1.301  22.229
 2499W        W 6460   1.788   2.536  22.198
 2500W        W 6461   0.484   0.375  23.033
 2501W        W 6462   3.172   0.769  21.984
 2502W        W 6463   3.378   2.743  22.481
 2503W        W 6464   0.507   3.529  22.235
 2504W        W 6465   0.900   3.575  22.911
 2505W        W 6466   2.725   1.769  23.071
 2506W        W 6467   2.691   1.457  22.098
 2507W        W 6468   3.176   1.809  22.853
 2508W        W 6469   2.078   0.467  22.869
 2509W        W 6470   0.735   3.161  22.552
 2510W        W 6471   1.691   3.234  22.410
 2511W        W 6472   3.083   1.260  21.874
 2512W        W 6473   1.270   1.950  23.137
 2513W        W 6474   0.740   1.989  21.995
 2514W        W 6475   0.395   1.022  22.174
 2515W        W 6476   0.457   2.978  22.968
 2516W        W 6477   1.588   2.461  23.216
 2517W        W 6478   1.846   0.962  22.614
 2518W        W 6479   0.012   1.712  22.808
 2519W        W 6480   2.327   1.391  22.759
 2520W        W 6481   2.204   1.881  22.863
 2521W        W 6482   2.193   0.775  22.320
 2522W        W 6483   2.592   0.655  23.101
 2523W        W 6484   1.383   1.082  22.477
 2524W        W 6485   3.004   0.850  22.822
 2525W        W 6486   3.371   1.332  22.767
 2526W        W 6487   1.040   0.085  22.473
 2527W        W 6488   3.511   2.868  21.953
 2528W        W 6489   2.335   0.658  21.885
 2529W        W 6490   2.046   2.735  22.612
 2530W        W 6491   2.145   3.302  23.204
 2531W        W 6492   3.319   2.305  22.048
 2532W        W 6493   1.754   1.788  23.109
 2533W        W 6494   2.824   1.318  22.727
 2534W        W 6495   3.111   1.051  22.369
 2535W        W 6496   2.920   3.091  22.758
 2536W        W 6497   2.650   1.773  22.532
 2537W        W 6498   3.303   0.425  22.999
 2538W        W 6499   1.489   3.301  22.964
 2539W        W 6500   0.604   0.481  22.222
 2540W        W 6501   0.736   3.255  21.880
 2541W        W 6502   1.110   1.721  22.631
 2542W        W 6503   1.594   0.708  22.934
 2543W        W 6504   0.942   0.498  22.886
 2544W        W 6505   0.947   0.726  21.911
 2545W        W 6506   1.720   1.862  22.218
 2546W        W 6507   0.988   0.177  21.988
 2547W        W 6508   1.726   1.258  23.039
 2548W        W 6509   0.637   0.770  23.253
 2549W        W 6510   0.423   3.482  22.929
 2550W        W 6511   0.790   2.297  22.413
 2551W        W 6512   2.425   2.529  22.099
 2552W        W 6513   3.576   0.828  22.695
 2553W        W 6514   0.054   3.489  22.490
 2554W        W 6515   1.316   2.782  22.145
 2555W        W 6516   3.221   3.164  22.331
 2556W        W 6517   2.196   1.817  22.345
 2557W        W 6518   1.039   1.008  22.862
 2558W        W 6519   1.871   0.918  21.914
 2559W        W 6520   2.808   0.389  22.709
 2560W        W 6521   0.138   0.237  22.157
 2561W        W 6522   0.965   2.424  21.937
 2562W        W 6523   0.206   2.665  22.705
 2563W        W 6524   1.318   0.205  22.970
 2564W        W 6525   2.377   0.282  22.475
 2565W        W 6526   0.481   0.783  22.642
 2566W        W 6527   3.448   1.674  21.943
 2567W        W 6528   0.002   0.694  22.180
 2568W        W 6529   2.013   3.560  22.216
 2569W        W 6530   0.159   2.067  21.913
 2570W        W 6531   3.560   1.919  22.403
 2571W        W 6532   2.423   2.251  22.502
 2572W        W 6533   2.897   3.551  22.197
 2573W        W 6534   1.491   0.117  22.156
 2574W        W 6535   3.030   2.716  22.099
 2575W        W 6536   2.570   3.453  22.613
 2576W        W 6537   1.031   2.736  22.598
 2577W        W 6538   2.786   2.234  22.862
 2578W        W 6539   1.883   2.922  23.050
 2579W        W 6540   3.633   1.482  23.231
 2580W        W 6541   2.157   2.966  22.165
 2581W        W 6542   1.299   2.211  22.247
 2582W        W 6543   3.011   3.593  22.966
 2583W        W 6544   0.267   1.599  22.131
 2584W        W 6545   3.401   3.257  22.828
 2585W        W 6546   3.238   0.581  22.447
 2586W        W 6547   3.112   1.458  23.213
 2587W        W 6548   0.643   2.786  22.108
 2588W        W 6549   3.160   2.544  22.918
 2589W        W 6550   3.537   1.266  22.285
 2590W        W 6551   1.282   2.323  22.756
 2591W        W 6552   1.205   1.214  21.995
 2592W        W 6553   1.416   0.707  22.088
 2593W        W 6554   0.551   1.523  22.869
 2594W        W 6555   3.117   1.601  22.414
 2595W        W 6556   2.648   2.726  23.063
 2596W        W 6557   3.212   0.114  22.536
 2597W        W 6558   2.732   2.589  22.547
 2598W        W 6559   1.634   1.647  22.632
 2599W        W 6560   2.821   0.451  22.155
 2600W        W 6561   0.889   2.590  23.197
 2601W        W 6562   2.652   1.210  23.162
 2602W        W 6563   0.094   3.317  23.306
 2603W        W 6564   0.603   2.504  22.842
 2604W        W 6565   3.392   1.942  23.287
 2605W        W 6566   2.746   2.119  22.167
 2606W        W 6567   1.713   0.072  22.696
 2607W        W 6568   1.365   0.490  22.528
 2608W        W 6569   2.163   0.955  23.091
 2609W        W 6570   0.964   0.750  22.385
 2610W        W 6571   2.481   0.892  22.710
 2611W        W 6572   3.524   3.407  22.012
 2612W        W 6573   0.178   2.400  22.304
 2613W        W 6574   1.697   1.351  22.174
 2614W        W 6575   0.343   1.900  23.193
 2615W        W 6576   3.305   0.251  22.084
 2616W        W 6577   3.616   2.224  22.820
 2617W        W 6578   1.913   0.103  23.223
 2618W        W 6579   0.972   3.087  23.060
 2619W        W 6580   0.234   3.019  22.302
 2620W        W 6581   2.050   2.383  23.020
 2621W        W 6582   0.402   2.001  22.595
 2622W        W 6583   0.087   0.363  22.671
 2623W        W 6584   2.628   0.955  22.170
 2624W        W 6585   1.218   3.215  22.560
 2625W        W 6586   2.500   0.118  21.990
 2626W        W 6587   0.211   1.266  22.698
 2627W        W 6588   0.902   1.255  22.423
 2628W        W 6589   2.430   2.171  23.214
 2629W        W 6590   1.892   0.396  22.285
 2630W        W 6591   3.573   0.024  23.007
 2631W        W 6592   1.261   1.659  22.170
 2632W        W 6593   3.427   0.996  23.160
 2633W        W 6594   2.119   2.166  22.037
 2634W        W 6595   2.709   3.067  22.252
 2635W        W 6596   0.297   2.477  23.213
 2636W        W 6597   2.706   3.233  23.222
 2637W        W 6598   2.090   3.276  22.696
 2638W        W 6599   1.524   2.769  22.711
 2639W        W 6600   0.745   1.509  21.970
 2640W        W 6601   0.084   7.239   3.359
 2641W        W 6602   0.460   6.132   2.882
 2642W        W 6603   3.165   5.862   0.652
 2643W        W 6604   3.295   6.947   2.679
 2644W        W 6605   1.213   6.938   0.205
 2645W        W 6606   1.296   5.090   1.188
 2646W        W 6607   0.811   4.938   1.352
 2647W        W 6608   1.802   5.753   0.786
 2648W        W 6609   1.477   6.845   3.141
 2649W        W 6610   0.126   4.406   3.104
 2650W        W 6611   0.888   3.686   2.906
 2651W        W 6612   2.582   4.074   1.793
 2652W        W 6613   2.231   4.945   0.363
 2653W        W 6614   2.801   4.379   3.454
 2654W        W 6615   0.167   4.171   2.579
 2655W        W 6616   0.266   6.790   3.600
 2656W        W 6617   1.788   6.180   0.332
 2657W        W 6618   0.220   4.963   2.025
 2658W        W 6619   1.113   4.854   3.262
 2659W        W 6620   3.572   4.713   1.761
 2660W        W 6621   3.336   5.756   2.620
 2661W        W 6622   1.644   5.089   1.647
 2662W        W 6623   2.190   6.428   2.016
 2663W        W 6624   0.690   5.862   2.248
 2664W        W 6625   0.049   5.390   1.819
 2665W        W 6626   1.085   5.362   3.011
 2666W        W 6627   3.356   5.145   3.265
 2667W        W 6628   0.972   6.589   1.710
 2668W        W 6629   2.093   6.278   2.844
 2669W        W 6630   1.313   4.918   2.069
 2670W        W 6631   1.605   5.702   1.712
 2671W        W 6632   2.602   6.475   3.560
 2672W        W 6633   1.681   5.795   3.570
 2673W        W 6634   1.662   5.511   3.048
 2674W        W 6635   0.071   4.902   3.570
 2675W        W 6636   2.903   6.437   3.169
 2676W        W 6637   0.484   4.019   1.167
 2677W        W 6638   1.011   6.277   2.166
 2678W        W 6639   3.474   6.060   1.456
 2679W        W 6640   2.887   4.460   2.023
 2680W        W 6641   3.172   4.413   0.118
 2681W        W 6642   3.637   5.214   2.424
 2682W        W 6643   1.604   6.921   2.177
 2683W        W 6644   3.378   6.387   0.615
 2684W        W 6645   0.507   7.173   0.369
 2685W        W 6646   0.900   7.219   1.045
 2686W        W 6647   0.697   3.973   2.471
 2687W        W 6648   3.320   4.991   2.746
 2688W        W 6649   2.725   5.413   1.205
 2689W        W 6650   2.691   5.101   0.232
 2690W        W 6651   1.899   6.245   2.372
 2691W        W 6652   1.705   4.575   1.571
 2692W        W 6653   2.305   6.662   2.565
 2693W        W 6654   3.176   5.453   0.987
 2694W        W 6655   2.078   4.111   1.003
 2695W        W 6656   0.735   6.805   0.686
 2696W        W 6657   0.106   4.304   1.285
 2697W        W 6658   2.892   4.911   1.759
 2698W        W 6659   0.350   6.528   1.674
 2699W        W 6660   1.691   6.878   0.544
 2700W        W 6661   3.083   4.904   0.008
 2701W        W 6662   0.106   6.662   2.172
 2702W        W 6663   0.897   6.234   2.652
 2703W        W 6664   1.270   5.594   1.271
 2704W        W 6665   1.292   3.999   2.364
 2705W        W 6666   3.521   3.761   1.661
 2706W        W 6667   0.740   5.633   0.129
 2707W        W 6668   0.395   4.666   0.308
 2708W        W 6669   0.457   6.622   1.102
 2709W        W 6670   1.588   6.105   1.350
 2710W        W 6671   2.920   6.964   3.064
 2711W        W 6672   1.846   4.606   0.748
 2712W        W 6673   3.229   7.004   1.520
 2713W        W 6674   2.906   4.857   3.118
 2714W        W 6675   3.619   6.513   1.252
 2715W        W 6676   2.246   5.805   2.736
 2716W        W 6677   0.012   5.356   0.942
 2717W        W 6678   1.123   5.771   2.515
 2718W        W 6679   2.327   5.035   0.893
 2719W        W 6680   2.204   5.525   0.997
 2720W        W 6681   0.547   4.945   2.471
 2721W        W 6682   0.532   4.821   3.393
 2722W        W 6683   0.422   3.738   1.552
 2723W        W 6684   2.190   4.085   2.113
 2724W        W 6685   1.838   4.270   3.276
 2725W        W 6686   2.193   4.419   0.454
 2726W        W 6687   3.376   6.812   3.208
 2727W        W 6688   2.343   3.893   3.247
 2728W        W 6689   3.362   6.194   3.369
 2729W        W 6690   2.792   4.361   2.965
 2730W        W 6691   2.592   4.299   1.235
 2731W        W 6692   2.985   5.433   3.639
 2732W        W 6693   0.725   7.009   1.625
 2733W        W 6694   1.383   4.726   0.611
 2734W        W 6695   0.952   4.010   3.275
 2735W        W 6696   3.004   4.494   0.956
 2736W        W 6697   3.371   4.976   0.901
 2737W        W 6698   1.114   7.193   3.372
 2738W        W 6699   1.040   3.729   0.607
 2739W        W 6700   3.361   4.263   1.642
 2740W        W 6701   3.511   6.512   0.087
 2741W        W 6702   0.418   5.715   1.789
 2742W        W 6703   2.335   4.302   0.019
 2743W        W 6704   3.469   6.634   1.739
 2744W        W 6705   3.508   3.828   2.489
 2745W        W 6706   1.953   5.040   3.043
 2746W        W 6707   2.046   6.379   0.746
 2747W        W 6708   2.446   5.673   3.486
 2748W        W 6709   2.120   3.650   1.795
 2749W        W 6710   0.732   4.553   1.858
 2750W        W 6711   0.286   5.753   2.632
 2751W        W 6712   2.145   6.946   1.338
 2752W        W 6713   3.339   4.543   2.210
 2753W        W 6714   1.976   6.890   2.977
 2754W        W 6715   3.319   5.949   0.182
 2755W        W 6716   1.754   5.432   1.243
 2756W        W 6717   3.606   3.943   2.984
 2757W        W 6718   1.755   5.778   2.578
 2758W        W 6719   1.972   4.664   2.023
 2759W        W 6720   2.824   4.962   0.861
 2760W        W 6721   3.111   4.695   0.503
 2761W        W 6722   2.920   6.735   0.892
 2762W        W 6723   2.754   6.338   1.688
 2763W        W 6724   2.650   5.417   0.666
 2764W        W 6725   2.083   5.627   1.652
 2765W        W 6726   2.964   5.415   1.719
 2766W        W 6727   0.339   4.430   2.143
 2767W        W 6728   3.117   5.482   2.970
 2768W        W 6729   3.468   7.100   2.116
 2769W        W 6730   1.398   6.544   1.518
 2770W        W 6731   2.405   7.077   2.842
 2771W        W 6732   2.399   4.407   2.606
 2772W        W 6733   1.606   7.115   2.667
 2773W        W 6734   3.303   4.069   1.133
 2774W        W 6735   3.094   5.388   2.434
 2775W        W 6736   0.077   4.709   2.472
 2776W        W 6737   2.937   4.504   1.490
 2777W        W 6738   3.348   4.655   3.267
 2778W        W 6739   2.233   6.354   1.485
 2779W        W 6740   1.489   6.945   1.098
 2780W        W 6741   0.604   4.125   0.356
 2781W        W 6742   1.708   3.779   2.166
 2782W        W 6743   0.736   6.899   0.014
 2783W        W 6744   1.110   5.365   0.765
 2784W        W 6745   1.764   5.994   3.078
 2785W        W 6746   1.594   4.352   1.068
 2786W        W 6747   2.950   3.949   1.496
 2787W        W 6748   2.670   7.231   1.824
 2788W        W 6749   2.082   6.879   2.164
 2789W        W 6750   1.478   5.916   2.125
 2790W        W 6751   3.248   6.639   2.251
 2791W        W 6752   0.942   4.142   1.020
 2792W        W 6753   1.464   6.439   1.980
 2793W        W 6754   0.947   4.370   0.045
 2794W        W 6755   1.748   4.979   2.439
 2795W        W 6756   2.596   3.845   2.309
 2796W        W 6757   0.016   5.688   2.194
 2797W        W 6758   1.720   5.506   0.352
 2798W        W 6759   0.988   3.821   0.122
 2799W        W 6760   1.726   4.902   1.173
 2800W        W 6761   2.696   3.878   2.872
 2801W        W 6762   1.284   5.890   2.981
 2802W        W 6763   2.088   5.672   3.198
 2803W        W 6764   2.705   5.702   3.091
 2804W        W 6765   1.989   3.842   3.596
 2805W        W 6766   1.211   4.458   1.989
 2806W        W 6767   0.637   4.414   1.387
 2807W        W 6768   0.423   7.126   1.063
 2808W        W 6769   1.755   6.456   3.188
 2809W        W 6770   0.790   5.941   0.547
 2810W        W 6771   2.470   5.326   1.768
 2811W        W 6772   2.750   5.125   2.167
 2812W        W 6773   1.955   5.799   2.101
 2813W        W 6774   2.425   6.173   0.233
 2814W        W 6775   2.097   4.194   1.561
 2815W        W 6776   3.576   4.472   0.829
 2816W        W 6777   0.070   7.061   2.860
 2817W        W 6778   0.487   6.287   2.392
 2818W        W 6779   0.054   7.133   0.624
 2819W        W 6780   1.953   4.403   2.430
 2820W        W 6781   1.316   6.426   0.279
 2821W        W 6782   3.221   6.808   0.465
 2822W        W 6783   2.196   5.461   0.479
 2823W        W 6784   1.039   4.652   0.996
 2824W        W 6785   1.871   4.562   0.048
 2825W        W 6786   2.455   6.127   3.226
 2826W        W 6787   2.808   4.033   0.843
 2827W        W 6788   0.138   3.881   0.291
 2828W        W 6789   1.424   6.200   2.581
 2829W        W 6790   1.223   6.116   1.673
 2830W        W 6791   0.965   6.068   0.071
 2831W        W 6792   0.206   6.309   0.839
 2832W        W 6793   0.710   5.379   3.281
 2833W        W 6794   1.414   3.939   3.467
 2834W        W 6795   2.123   4.081   2.823
 2835W        W 6796   1.318   3.849   1.104
 2836W        W 6797   2.377   3.926   0.609
 2837W        W 6798   0.322   3.858   2.186
 2838W        W 6799   0.370   4.821   1.556
 2839W        W 6800   3.059   3.929   1.962
 2840W        W 6801   0.481   4.427   0.776
 2841W        W 6802   3.052   4.115   2.392
 2842W        W 6803   3.448   5.318   0.077
 2843W        W 6804   0.740   4.076   1.896
 2844W        W 6805   1.854   4.648   2.836
 2845W        W 6806   0.002   4.338   0.314
 2846W        W 6807   0.788   5.727   2.875
 2847W        W 6808   2.146   5.125   2.054
 2848W        W 6809   2.013   7.204   0.350
 2849W        W 6810   0.159   5.711   0.047
 2850W        W 6811   0.894   6.122   3.173
 2851W        W 6812   0.415   5.289   2.804
 2852W        W 6813   1.406   5.394   2.598
 2853W        W 6814   3.174   3.753   2.860
 2854W        W 6815   3.572   5.363   2.851
 2855W        W 6816   3.560   5.563   0.537
 2856W        W 6817   2.423   5.895   0.636
 2857W        W 6818   2.897   7.195   0.331
 2858W        W 6819   2.074   5.185   3.473
 2859W        W 6820   0.404   6.152   3.513
 2860W        W 6821   3.610   4.074   3.465
 2861W        W 6822   3.328   5.002   2.086
 2862W        W 6823   1.636   7.132   3.563
 2863W        W 6824   1.491   3.761   0.290
 2864W        W 6825   3.030   6.360   0.233
 2865W        W 6826   0.799   4.453   3.119
 2866W        W 6827   1.233   6.447   2.981
 2867W        W 6828   3.359   4.438   2.779
 2868W        W 6829   2.570   7.097   0.747
 2869W        W 6830   2.809   5.716   2.114
 2870W        W 6831   1.059   4.132   2.781
 2871W        W 6832   1.528   5.201   3.538
 2872W        W 6833   1.031   6.380   0.732
 2873W        W 6834   2.786   5.878   0.996
 2874W        W 6835   0.554   4.504   2.720
 2875W        W 6836   1.883   6.566   1.184
 2876W        W 6837   3.633   5.126   1.365
 2877W        W 6838   1.855   3.759   3.084
 2878W        W 6839   2.635   6.464   2.163
 2879W        W 6840   2.938   6.808   1.871
 2880W        W 6841   2.157   6.610   0.299
 2881W        W 6842   0.167   6.502   3.141
 2882W        W 6843   0.910   4.494   2.379
 2883W        W 6844   0.880   3.842   1.489
 2884W        W 6845   2.501   4.684   2.181
 2885W        W 6846   1.299   5.855   0.381
 2886W        W 6847   3.297   5.797   1.880
 2887W        W 6848   0.624   6.555   3.303
 2888W        W 6849   3.011   7.237   1.100
 2889W        W 6850   1.110   4.257   1.545
 2890W        W 6851   0.879   5.750   1.635
 2891W        W 6852   1.192   7.161   2.385
 2892W        W 6853   3.259   7.257   3.417
 2893W        W 6854   2.418   5.445   2.350
 2894W        W 6855   0.267   5.243   0.265
 2895W        W 6856   3.401   6.901   0.962
 2896W        W 6857   3.238   4.225   0.581
 2897W        W 6858   1.377   3.744   2.984
 2898W        W 6859   3.083   6.546   1.442
 2899W        W 6860   3.112   5.102   1.347
 2900W        W 6861   1.229   4.775   1.563
 2901W        W 6862   1.474   5.037   2.887
 2902W        W 6863   2.585   6.190   2.750
 2903W        W 6864   1.235   4.644   2.862
 2904W        W 6865   1.214   7.110   1.478
 2905W        W 6866   0.531   7.069   3.112
 2906W        W 6867   0.643   6.430   0.242
 2907W        W 6868   3.160   6.188   1.052
 2908W        W 6869   0.764   4.980   2.938
 2909W        W 6870   3.537   4.910   0.419
 2910W        W 6871   1.282   5.967   0.890
 2911W        W 6872   2.381   5.349   2.971
 2912W        W 6873   2.272   4.977   2.515
 2913W        W 6874   0.832   5.349   2.544
 2914W        W 6875   3.042   7.237   2.373
 2915W        W 6876   2.833   3.871   3.367
 2916W        W 6877   0.497   4.021   2.954
 2917W        W 6878   0.836   5.044   2.007
 2918W        W 6879   1.205   4.858   0.129
 2919W        W 6880   0.008   6.617   2.674
 2920W        W 6881   1.593   5.326   2.117
 2921W        W 6882   1.416   4.351   0.222
 2922W        W 6883   0.551   5.167   1.003
 2923W        W 6884   0.322   7.019   2.440
 2924W        W 6885   3.117   5.245   0.548
 2925W        W 6886   3.212   4.161   3.234
 2926W        W 6887   2.648   6.370   1.197
 2927W        W 6888   0.246   5.294   3.374
 2928W        W 6889   3.212   3.758   0.670
 2929W        W 6890   2.732   6.233   0.681
 2930W        W 6891   1.634   5.291   0.766
 2931W        W 6892   2.821   4.095   0.289
 2932W        W 6893   2.886   4.702   2.475
 2933W        W 6894   0.595   5.295   1.682
 2934W        W 6895   0.889   6.234   1.331
 2935W        W 6896   2.652   4.854   1.296
 2936W        W 6897   1.675   4.233   1.992
 2937W        W 6898   3.637   6.144   2.503
 2938W        W 6899   3.555   4.131   2.064
 2939W        W 6900   0.094   6.961   1.440
 2940W        W 6901   0.603   6.148   0.976
 2941W        W 6902   0.518   3.765   3.529
 2942W        W 6903   1.637   6.618   3.631
 2943W        W 6904   3.392   5.586   1.421
 2944W        W 6905   2.746   5.763   0.301
 2945W        W 6906   2.041   7.284   2.513
 2946W        W 6907   2.898   6.006   3.550
 2947W        W 6908   1.713   3.716   0.830
 2948W        W 6909   2.426   4.585   1.689
 2949W        W 6910   0.112   6.172   2.021
 2950W        W 6911   1.365   4.134   0.662
 2951W        W 6912   1.169   5.618   3.511
 2952W        W 6913   2.163   4.599   1.225
 2953W        W 6914   2.368   6.009   2.347
 2954W        W 6915   0.522   6.614   2.782
 2955W        W 6916   1.113   6.597   3.505
 2956W        W 6917   0.964   4.394   0.519
 2957W        W 6918   2.481   4.536   0.844
 2958W        W 6919   2.439   6.644   3.081
 2959W        W 6920   1.124   5.236   1.680
 2960W        W 6921   0.779   6.934   2.545
 2961W        W 6922   3.524   7.051   0.146
 2962W        W 6923   0.387   5.723   3.142
 2963W        W 6924   2.382   5.985   1.830
 2964W        W 6925   0.818   5.634   1.072
 2965W        W 6926   1.189   6.641   2.467
 2966W        W 6927   1.567   4.060   1.508
 2967W        W 6928   0.178   6.044   0.438
 2968W        W 6929   1.697   4.995   0.308
 2969W        W 6930   0.343   5.544   1.327
 2970W        W 6931   1.633   4.186   2.791
 2971W        W 6932   3.305   3.895   0.218
 2972W        W 6933   3.398   5.641   3.317
 2973W        W 6934   2.052   6.898   3.469
 2974W        W 6935   3.610   5.992   2.991
 2975W        W 6936   3.018   6.790   3.602
 2976W        W 6937   0.757   7.246   2.080
 2977W        W 6938   3.616   5.868   0.954
 2978W        W 6939   2.146   5.135   1.467
 2979W        W 6940   1.913   3.747   1.357
 2980W        W 6941   0.972   6.731   1.194
 2981W        W 6942   1.471   4.472   2.419
 2982W        W 6943   1.171   3.841   1.888
 2983W        W 6944   0.234   6.663   0.436
 2984W        W 6945   2.050   6.027   1.154
 2985W        W 6946   0.925   6.822   3.033
 2986W        W 6947   0.402   5.645   0.729
 2987W        W 6948   0.287   4.188   1.728
 2988W        W 6949   1.835   6.153   1.785
 2989W        W 6950   0.087   4.007   0.805
 2990W        W 6951   2.751   5.213   2.732
 2991W        W 6952   2.628   4.599   0.304
 2992W        W 6953   3.145   6.271   1.952
 2993W        W 6954   1.806   6.755   1.783
 2994W        W 6955   1.218   6.859   0.694
 2995W        W 6956   2.500   3.762   0.124
 2996W        W 6957   0.300   7.022   1.865
 2997W        W 6958   2.497   4.780   3.500
 2998W        W 6959   0.480   4.310   3.499
 2999W        W 6960   0.211   4.910   0.832
 3000W        W 6961   0.902   4.899   0.557
 3001W        W 6962   2.665   5.226   3.374
 3002W        W 6963   1.008   5.507   2.083
 3003W        W 6964   2.482   3.793   1.203
 3004W        W 6965   1.613   7.224   1.706
 3005W        W 6966   2.827   6.686   2.643
 3006W        W 6967   2.411   6.835   1.754
 3007W        W 6968   2.430   5.815   1.348
 3008W        W 6969   1.892   4.040   0.419
 3009W        W 6970   3.573   3.668   1.141
 3010W        W 6971   1.261   5.303   0.304
 3011W        W 6972   3.427   4.640   1.294
 3012W        W 6973   2.119   5.810   0.171
 3013W        W 6974   3.055   6.010   2.919
 3014W        W 6975   2.709   6.711   0.386
 3015W        W 6976   1.324   4.386   3.292
 3016W        W 6977   1.144   4.970   2.533
 3017W        W 6978   3.236   6.465   2.810
 3018W        W 6979   2.336   4.415   3.187
 3019W        W 6980   0.180   4.886   2.964
 3020W        W 6981   1.940   5.363   2.690
 3021W        W 6982   0.297   6.121   1.347
 3022W        W 6983   0.444   5.418   2.237
 3023W        W 6984   2.761   5.704   2.587
 3024W        W 6985   2.533   7.084   3.398
 3025W        W 6986   2.429   4.823   2.951
 3026W        W 6987   2.706   6.877   1.356
 3027W        W 6988   1.708   6.597   2.679
 3028W        W 6989   1.193   6.952   1.948
 3029W        W 6990   2.998   6.123   2.367
 3030W        W 6991   2.048   6.195   3.504
 3031W        W 6992   0.653   6.148   1.843
 3032W        W 6993   2.999   5.907   1.488
 3033W        W 6994   2.640   6.973   2.239
 3034W        W 6995   0.618   6.702   2.109
 3035W        W 6996   1.639   4.754   3.319
 3036W        W 6997   2.090   6.920   0.830
 3037W        W 6998   1.398   6.175   3.468
 3038W        W 6999   1.524   6.413   0.845
 3039W        W 7000   0.745   5.153   0.104
 3040W        W 7001   0.084   7.239   7.003
 3041W        W 7002   0.460   6.132   6.526
 3042W        W 7003   3.165   5.862   4.296
 3043W        W 7004   3.295   6.947   6.323
 3044W        W 7005   1.213   6.938   3.849
 3045W        W 7006   1.296   5.090   4.832
 3046W        W 7007   0.811   4.938   4.996
 3047W        W 7008   1.802   5.753   4.430
 3048W        W 7009   1.477   6.845   6.785
 3049W        W 7010   0.126   4.406   6.748
 3050W        W 7011   0.888   3.686   6.550
 3051W        W 7012   2.582   4.074   5.437
 3052W        W 7013   2.231   4.945   4.007
 3053W        W 7014   2.801   4.379   7.098
 3054W        W 7015   0.167   4.171   6.223
 3055W        W 7016   0.266   6.790   7.244
 3056W        W 7017   1.788   6.180   3.976
 3057W        W 7018   0.220   4.963   5.669
 3058W        W 7019   1.113   4.854   6.906
 3059W        W 7020   3.572   4.713   5.405
 3060W        W 7021   3.336   5.756   6.264
 3061W        W 7022   1.644   5.089   5.291
 3062W        W 7023   2.190   6.428   5.660
 3063W        W 7024   0.690   5.862   5.892
 3064W        W 7025   0.049   5.390   5.463
 3065W        W 7026   1.085   5.362   6.655
 3066W        W 7027   3.356   5.145   6.909
 3067W        W 7028   0.972   6.589   5.354
 3068W        W 7029   2.093   6.278   6.488
 3069W        W 7030   1.313   4.918   5.713
 3070W        W 7031   1.605   5.702   5.356
 3071W        W 7032   2.602   6.475   7.204
 3072W        W 7033   1.681   5.795   7.214
 3073W        W 7034   1.662   5.511   6.692
 3074W        W 7035   0.071   4.902   7.214
 3075W        W 7036   2.903   6.437   6.813
 3076W        W 7037   0.484   4.019   4.811
 3077W        W 7038   1.011   6.277   5.810
 3078W        W 7039   3.474   6.060   5.100
 3079W        W 7040   2.887   4.460   5.667
 3080W        W 7041   3.172   4.413   3.762
 3081W        W 7042   3.637   5.214   6.068
 3082W        W 7043   1.604   6.921   5.821
 3083W        W 7044   3.378   6.387   4.259
 3084W        W 7045   0.507   7.173   4.013
 3085W        W 7046   0.900   7.219   4.689
 3086W        W 7047   0.697   3.973   6.115
 3087W        W 7048   3.320   4.991   6.390
 3088W        W 7049   2.725   5.413   4.849
 3089W        W 7050   2.691   5.101   3.876
 3090W        W 7051   1.899   6.245   6.016
 3091W        W 7052   1.705   4.575   5.215
 3092W        W 7053   2.305   6.662   6.209
 3093W        W 7054   3.176   5.453   4.631
 3094W        W 7055   2.078   4.111   4.647
 3095W        W 7056   0.735   6.805   4.330
 3096W        W 7057   0.106   4.304   4.929
 3097W        W 7058   2.892   4.911   5.403
 3098W        W 7059   0.350   6.528   5.318
 3099W        W 7060   1.691   6.878   4.188
 3100W        W 7061   3.083   4.904   3.652
 3101W        W 7062   0.106   6.662   5.816
 3102W        W 7063   0.897   6.234   6.296
 3103W        W 7064   1.270   5.594   4.915
 3104W        W 7065   1.292   3.999   6.008
 3105W        W 7066   3.521   3.761   5.305
 3106W        W 7067   0.740   5.633   3.773
 3107W        W 7068   0.395   4.666   3.952
 3108W        W 7069   0.457   6.622   4.746
 3109W        W 7070   1.588   6.105   4.994
 3110W        W 7071   2.920   6.964   6.708
 3111W        W 7072   1.846   4.606   4.392
 3112W        W 7073   3.229   7.004   5.164
 3113W        W 7074   2.906   4.857   6.762
 3114W        W 7075   3.619   6.513   4.896
 3115W        W 7076   2.246   5.805   6.380
 3116W        W 7077   0.012   5.356   4.586
 3117W        W 7078   1.123   5.771   6.159
 3118W        W 7079   2.327   5.035   4.537
 3119W        W 7080   2.204   5.525   4.641
 3120W        W 7081   0.547   4.945   6.115
 3121W        W 7082   0.532   4.821   7.037
 3122W        W 7083   0.422   3.738   5.196
 3123W        W 7084   2.190   4.085   5.757
 3124W        W 7085   1.838   4.270   6.920
 3125W        W 7086   2.193   4.419   4.098
 3126W        W 7087   3.376   6.812   6.852
 3127W        W 7088   2.343   3.893   6.891
 3128W        W 7089   3.362   6.194   7.013
 3129W        W 7090   2.792   4.361   6.609
 3130W        W 7091   2.592   4.299   4.879
 3131W        W 7092   2.985   5.433   7.283
 3132W        W 7093   0.725   7.009   5.269
 3133W        W 7094   1.383   4.726   4.255
 3134W        W 7095   0.952   4.010   6.919
 3135W        W 7096   3.004   4.494   4.600
 3136W        W 7097   3.371   4.976   4.545
 3137W        W 7098   1.114   7.193   7.016
 3138W        W 7099   1.040   3.729   4.251
 3139W        W 7100   3.361   4.263   5.286
 3140W        W 7101   3.511   6.512   3.731
 3141W        W 7102   0.418   5.715   5.433
 3142W        W 7103   2.335   4.302   3.663
 3143W        W 7104   3.469   6.634   5.383
 3144W        W 7105   3.508   3.828   6.133
 3145W        W 7106   1.953   5.040   6.687
 3146W        W 7107   2.046   6.379   4.390
 3147W        W 7108   2.446   5.673   7.130
 3148W        W 7109   2.120   3.650   5.439
 3149W        W 7110   0.732   4.553   5.502
 3150W        W 7111   0.286   5.753   6.276
 3151W        W 7112   2.145   6.946   4.982
 3152W        W 7113   3.339   4.543   5.854
 3153W        W 7114   1.976   6.890   6.621
 3154W        W 7115   3.319   5.949   3.826
 3155W        W 7116   1.754   5.432   4.887
 3156W        W 7117   3.606   3.943   6.628
 3157W        W 7118   1.755   5.778   6.222
 3158W        W 7119   1.972   4.664   5.667
 3159W        W 7120   2.824   4.962   4.505
 3160W        W 7121   3.111   4.695   4.147
 3161W        W 7122   2.920   6.735   4.536
 3162W        W 7123   2.754   6.338   5.332
 3163W        W 7124   2.650   5.417   4.310
 3164W        W 7125   2.083   5.627   5.296
 3165W        W 7126   2.964   5.415   5.363
 3166W        W 7127   0.339   4.430   5.787
 3167W        W 7128   3.117   5.482   6.614
 3168W        W 7129   3.468   7.100   5.760
 3169W        W 7130   1.398   6.544   5.162
 3170W        W 7131   2.405   7.077   6.486
 3171W        W 7132   2.399   4.407   6.250
 3172W        W 7133   1.606   7.115   6.311
 3173W        W 7134   3.303   4.069   4.777
 3174W        W 7135   3.094   5.388   6.078
 3175W        W 7136   0.077   4.709   6.116
 3176W        W 7137   2.937   4.504   5.134
 3177W        W 7138   3.348   4.655   6.911
 3178W        W 7139   2.233   6.354   5.129
 3179W        W 7140   1.489   6.945   4.742
 3180W        W 7141   0.604   4.125   4.000
 3181W        W 7142   1.708   3.779   5.810
 3182W        W 7143   0.736   6.899   3.658
 3183W        W 7144   1.110   5.365   4.409
 3184W        W 7145   1.764   5.994   6.722
 3185W        W 7146   1.594   4.352   4.712
 3186W        W 7147   2.950   3.949   5.140
 3187W        W 7148   2.670   7.231   5.468
 3188W        W 7149   2.082   6.879   5.808
 3189W        W 7150   1.478   5.916   5.769
 3190W        W 7151   3.248   6.639   5.895
 3191W        W 7152   0.942   4.142   4.664
 3192W        W 7153   1.464   6.439   5.624
 3193W        W 7154   0.947   4.370   3.689
 3194W        W 7155   1.748   4.979   6.083
 3195W        W 7156   2.596   3.845   5.953
 3196W        W 7157   0.016   5.688   5.838
 3197W        W 7158   1.720   5.506   3.996
 3198W        W 7159   0.988   3.821   3.766
 3199W        W 7160   1.726   4.902   4.817
 3200W        W 7161   2.696   3.878   6.516
 3201W        W 7162   1.284   5.890   6.625
 3202W        W 7163   2.088   5.672   6.842
 3203W        W 7164   2.705   5.702   6.735
 3204W        W 7165   1.989   3.842   7.240
 3205W        W 7166   1.211   4.458   5.633
 3206W        W 7167   0.637   4.414   5.031
 3207W        W 7168   0.423   7.126   4.707
 3208W        W 7169   1.755   6.456   6.832
 3209W        W 7170   0.790   5.941   4.191
 3210W        W 7171   2.470   5.326   5.412
 3211W        W 7172   2.750   5.125   5.811
 3212W        W 7173   1.955   5.799   5.745
 3213W        W 7174   2.425   6.173   3.877
 3214W        W 7175   2.097   4.194   5.205
 3215W        W 7176   3.576   4.472   4.473
 3216W        W 7177   0.070   7.061   6.504
 3217W        W 7178   0.487   6.287   6.036
 3218W        W 7179   0.054   7.133   4.268
 3219W        W 7180   1.953   4.403   6.074
 3220W        W 7181   1.316   6.426   3.923
 3221W        W 7182   3.221   6.808   4.109
 3222W        W 7183   2.196   5.461   4.123
 3223W        W 7184   1.039   4.652   4.640
 3224W        W 7185   1.871   4.562   3.692
 3225W        W 7186   2.455   6.127   6.870
 3226W        W 7187   2.808   4.033   4.487
 3227W        W 7188   0.138   3.881   3.935
 3228W        W 7189   1.424   6.200   6.225
 3229W        W 7190   1.223   6.116   5.317
 3230W        W 7191   0.965   6.068   3.715
 3231W        W 7192   0.206   6.309   4.483
 3232W        W 7193   0.710   5.379   6.925
 3233W        W 7194   1.414   3.939   7.111
 3234W        W 7195   2.123   4.081   6.467
 3235W        W 7196   1.318   3.849   4.748
 3236W        W 7197   2.377   3.926   4.253
 3237W        W 7198   0.322   3.858   5.830
 3238W        W 7199   0.370   4.821   5.200
 3239W        W 7200   3.059   3.929   5.606
 3240W        W 7201   0.481   4.427   4.420
 3241W        W 7202   3.052   4.115   6.036
 3242W        W 7203   3.448   5.318   3.721
 3243W        W 7204   0.740   4.076   5.540
 3244W        W 7205   1.854   4.648   6.480
 3245W        W 7206   0.002   4.338   3.958
 3246W        W 7207   0.788   5.727   6.519
 3247W        W 7208   2.146   5.125   5.698
 3248W        W 7209   2.013   7.204   3.994
 3249W        W 7210   0.159   5.711   3.691
 3250W        W 7211   0.894   6.122   6.817
 3251W        W 7212   0.415   5.289   6.448
 3252W        W 7213   1.406   5.394   6.242
 3253W        W 7214   3.174   3.753   6.504
 3254W        W 7215   3.572   5.363   6.495
 3255W        W 7216   3.560   5.563   4.181
 3256W        W 7217   2.423   5.895   4.280
 3257W        W 7218   2.897   7.195   3.975
 3258W        W 7219   2.074   5.185   7.117
 3259W        W 7220   0.404   6.152   7.157
 3260W        W 7221   3.610   4.074   7.109
 3261W        W 7222   3.328   5.002   5.730
 3262W        W 7223   1.636   7.132   7.207
 3263W        W 7224   1.491   3.761   3.934
 3264W        W 7225   3.030   6.360   3.877
 3265W        W 7226   0.799   4.453   6.763
 3266W        W 7227   1.233   6.447   6.625
 3267W        W 7228   3.359   4.438   6.423
 3268W        W 7229   2.570   7.097   4.391
 3269W        W 7230   2.809   5.716   5.758
 3270W        W 7231   1.059   4.132   6.425
 3271W        W 7232   1.528   5.201   7.182
 3272W        W 7233   1.031   6.380   4.376
 3273W        W 7234   2.786   5.878   4.640
 3274W        W 7235   0.554   4.504   6.364
 3275W        W 7236   1.883   6.566   4.828
 3276W        W 7237   3.633   5.126   5.009
 3277W        W 7238   1.855   3.759   6.728
 3278W        W 7239   2.635   6.464   5.807
 3279W        W 7240   2.938   6.808   5.515
 3280W        W 7241   2.157   6.610   3.943
 3281W        W 7242   0.167   6.502   6.785
 3282W        W 7243   0.910   4.494   6.023
 3283W        W 7244   0.880   3.842   5.133
 3284W        W 7245   2.501   4.684   5.825
 3285W        W 7246   1.299   5.855   4.025
 3286W        W 7247   3.297   5.797   5.524
 3287W        W 7248   0.624   6.555   6.947
 3288W        W 7249   3.011   7.237   4.744
 3289W        W 7250   1.110   4.257   5.189
 3290W        W 7251   0.879   5.750   5.279
 3291W        W 7252   1.192   7.161   6.029
 3292W        W 7253   3.259   7.257   7.061
 3293W        W 7254   2.418   5.445   5.994
 3294W        W 7255   0.267   5.243   3.909
 3295W        W 7256   3.401   6.901   4.606
 3296W        W 7257   3.238   4.225   4.225
 3297W        W 7258   1.377   3.744   6.628
 3298W        W 7259   3.083   6.546   5.086
 3299W        W 7260   3.112   5.102   4.991
 3300W        W 7261   1.229   4.775   5.207
 3301W        W 7262   1.474   5.037   6.531
 3302W        W 7263   2.585   6.190   6.394
 3303W        W 7264   1.235   4.644   6.506
 3304W        W 7265   1.214   7.110   5.122
 3305W        W 7266   0.531   7.069   6.756
 3306W        W 7267   0.643   6.430   3.886
 3307W        W 7268   3.160   6.188   4.696
 3308W        W 7269   0.764   4.980   6.582
 3309W        W 7270   3.537   4.910   4.063
 3310W        W 7271   1.282   5.967   4.534
 3311W        W 7272   2.381   5.349   6.615
 3312W        W 7273   2.272   4.977   6.159
 3313W        W 7274   0.832   5.349   6.188
 3314W        W 7275   3.042   7.237   6.017
 3315W        W 7276   2.833   3.871   7.011
 3316W        W 7277   0.497   4.021   6.598
 3317W        W 7278   0.836   5.044   5.651
 3318W        W 7279   1.205   4.858   3.773
 3319W        W 7280   0.008   6.617   6.318
 3320W        W 7281   1.593   5.326   5.761
 3321W        W 7282   1.416   4.351   3.866
 3322W        W 7283   0.551   5.167   4.647
 3323W        W 7284   0.322   7.019   6.084
 3324W        W 7285   3.117   5.245   4.192
 3325W        W 7286   3.212   4.161   6.878
 3326W        W 7287   2.648   6.370   4.841
 3327W        W 7288   0.246   5.294   7.018
 3328W        W 7289   3.212   3.758   4.314
 3329W        W 7290   2.732   6.233   4.325
 3330W        W 7291   1.634   5.291   4.410
 3331W        W 7292   2.821   4.095   3.933
 3332W        W 7293   2.886   4.702   6.119
 3333W        W 7294   0.595   5.295   5.326
 3334W        W 7295   0.889   6.234   4.975
 3335W        W 7296   2.652   4.854   4.940
 3336W        W 7297   1.675   4.233   5.636
 3337W        W 7298   3.637   6.144   6.147
 3338W        W 7299   3.555   4.131   5.708
 3339W        W 7300   0.094   6.961   5.084
 3340W        W 7301   0.603   6.148   4.620
 3341W        W 7302   0.518   3.765   7.173
 3342W        W 7303   1.637   6.618   7.275
 3343W        W 7304   3.392   5.586   5.065
 3344W        W 7305   2.746   5.763   3.945
 3345W        W 7306   2.041   7.284   6.157
 3346W        W 7307   2.898   6.006   7.194
 3347W        W 7308   1.713   3.716   4.474
 3348W        W 7309   2.426   4.585   5.333
 3349W        W 7310   0.112   6.172   5.665
 3350W        W 7311   1.365   4.134   4.306
 3351W        W 7312   1.169   5.618   7.155
 3352W        W 7313   2.163   4.599   4.869
 3353W        W 7314   2.368   6.009   5.991
 3354W        W 7315   0.522   6.614   6.426
 3355W        W 7316   1.113   6.597   7.149
 3356W        W 7317   0.964   4.394   4.163
 3357W        W 7318   2.481   4.536   4.488
 3358W        W 7319   2.439   6.644   6.725
 3359W        W 7320   1.124   5.236   5.324
 3360W        W 7321   0.779   6.934   6.189
 3361W        W 7322   3.524   7.051   3.790
 3362W        W 7323   0.387   5.723   6.786
 3363W        W 7324   2.382   5.985   5.474
 3364W        W 7325   0.818   5.634   4.716
 3365W        W 7326   1.189   6.641   6.111
 3366W        W 7327   1.567   4.060   5.152
 3367W        W 7328   0.178   6.044   4.082
 3368W        W 7329   1.697   4.995   3.952
 3369W        W 7330   0.343   5.544   4.971
 3370W        W 7331   1.633   4.186   6.435
 3371W        W 7332   3.305   3.895   3.862
 3372W        W 7333   3.398   5.641   6.961
 3373W        W 7334   2.052   6.898   7.113
 3374W        W 7335   3.610   5.992   6.635
 3375W        W 7336   3.018   6.790   7.246
 3376W        W 7337   0.757   7.246   5.724
 3377W        W 7338   3.616   5.868   4.598
 3378W        W 7339   2.146   5.135   5.111
 3379W        W 7340   1.913   3.747   5.001
 3380W        W 7341   0.972   6.731   4.838
 3381W        W 7342   1.471   4.472   6.063
 3382W        W 7343   1.171   3.841   5.532
 3383W        W 7344   0.234   6.663   4.080
 3384W        W 7345   2.050   6.027   4.798
 3385W        W 7346   0.925   6.822   6.677
 3386W        W 7347   0.402   5.645   4.373
 3387W        W 7348   0.287   4.188   5.372
 3388W        W 7349   1.835   6.153   5.429
 3389W        W 7350   0.087   4.007   4.449
 3390W        W 7351   2.751   5.213   6.376
 3391W        W 7352   2.628   4.599   3.948
 3392W        W 7353   3.145   6.271   5.596
 3393W        W 7354   1.806   6.755   5.427
 3394W        W 7355   1.218   6.859   4.338
 3395W        W 7356   2.500   3.762   3.768
 3396W        W 7357   0.300   7.022   5.509
 3397W        W 7358   2.497   4.780   7.144
 3398W        W 7359   0.480   4.310   7.143
 3399W        W 7360   0.211   4.910   4.476
 3400W        W 7361   0.902   4.899   4.201
 3401W        W 7362   2.665   5.226   7.018
 3402W        W 7363   1.008   5.507   5.727
 3403W        W 7364   2.482   3.793   4.847
 3404W        W 7365   1.613   7.224   5.350
 3405W        W 7366   2.827   6.686   6.287
 3406W        W 7367   2.411   6.835   5.398
 3407W        W 7368   2.430   5.815   4.992
 3408W        W 7369   1.892   4.040   4.063
 3409W        W 7370   3.573   3.668   4.785
 3410W        W 7371   1.261   5.303   3.948
 3411W        W 7372   3.427   4.640   4.938
 3412W        W 7373   2.119   5.810   3.815
 3413W        W 7374   3.055   6.010   6.563
 3414W        W 7375   2.709   6.711   4.030
 3415W        W 7376   1.324   4.386   6.936
 3416W        W 7377   1.144   4.970   6.177
 3417W        W 7378   3.236   6.465   6.454
 3418W        W 7379   2.336   4.415   6.831
 3419W        W 7380   0.180   4.886   6.608
 3420W        W 7381   1.940   5.363   6.334
 3421W        W 7382   0.297   6.121   4.991
 3422W        W 7383   0.444   5.418   5.881
 3423W        W 7384   2.761   5.704   6.231
 3424W        W 7385   2.533   7.084   7.042
 3425W        W 7386   2.429   4.823   6.595
 3426W        W 7387   2.706   6.877   5.000
 3427W        W 7388   1.708   6.597   6.323
 3428W        W 7389   1.193   6.952   5.592
 3429W        W 7390   2.998   6.123   6.011
 3430W        W 7391   2.048   6.195   7.148
 3431W        W 7392   0.653   6.148   5.487
 3432W        W 7393   2.999   5.907   5.132
 3433W        W 7394   2.640   6.973   5.883
 3434W        W 7395   0.618   6.702   5.753
 3435W        W 7396   1.639   4.754   6.963
 3436W        W 7397   2.090   6.920   4.474
 3437W        W 7398   1.398   6.175   7.112
 3438W        W 7399   1.524   6.413   4.489
 3439W        W 7400   0.745   5.153   3.748
 3440W        W 7401   0.084   7.239  10.648
 3441W        W 7402   0.460   6.132  10.171
 3442W        W 7403   3.165   5.862   7.941
 3443W        W 7404   3.295   6.947   9.968
 3444W        W 7405   1.213   6.938   7.494
 3445W        W 7406   1.296   5.090   8.477
 3446W        W 7407   0.811   4.938   8.641
 3447W        W 7408   1.802   5.753   8.075
 3448W        W 7409   1.477   6.845  10.430
 3449W        W 7410   0.126   4.406  10.393
 3450W        W 7411   0.888   3.686  10.195
 3451W        W 7412   2.582   4.074   9.082
 3452W        W 7413   2.231   4.945   7.652
 3453W        W 7414   2.801   4.379  10.743
 3454W        W 7415   0.167   4.171   9.868
 3455W        W 7416   0.266   6.790  10.889
 3456W        W 7417   1.788   6.180   7.621
 3457W        W 7418   0.220   4.963   9.314
 3458W        W 7419   1.113   4.854  10.551
 3459W        W 7420   3.572   4.713   9.050
 3460W        W 7421   3.336   5.756   9.909
 3461W        W 7422   1.644   5.089   8.936
 3462W        W 7423   2.190   6.428   9.305
 3463W        W 7424   0.690   5.862   9.537
 3464W        W 7425   0.049   5.390   9.108
 3465W        W 7426   1.085   5.362  10.300
 3466W        W 7427   3.356   5.145  10.554
 3467W        W 7428   0.972   6.589   8.999
 3468W        W 7429   2.093   6.278  10.133
 3469W        W 7430   1.313   4.918   9.358
 3470W        W 7431   1.605   5.702   9.001
 3471W        W 7432   2.602   6.475  10.849
 3472W        W 7433   1.681   5.795  10.859
 3473W        W 7434   1.662   5.511  10.337
 3474W        W 7435   0.071   4.902  10.859
 3475W        W 7436   2.903   6.437  10.458
 3476W        W 7437   0.484   4.019   8.456
 3477W        W 7438   1.011   6.277   9.455
 3478W        W 7439   3.474   6.060   8.745
 3479W        W 7440   2.887   4.460   9.312
 3480W        W 7441   3.172   4.413   7.407
 3481W        W 7442   3.637   5.214   9.713
 3482W        W 7443   1.604   6.921   9.466
 3483W        W 7444   3.378   6.387   7.904
 3484W        W 7445   0.507   7.173   7.658
 3485W        W 7446   0.900   7.219   8.334
 3486W        W 7447   3.320   4.991  10.035
 3487W        W 7448   2.725   5.413   8.494
 3488W        W 7449   2.691   5.101   7.521
 3489W        W 7450   1.899   6.245   9.661
 3490W        W 7451   1.705   4.575   8.860
 3491W        W 7452   2.305   6.662   9.854
 3492W        W 7453   3.176   5.453   8.276
 3493W        W 7454   2.078   4.111   8.292
 3494W        W 7455   0.735   6.805   7.975
 3495W        W 7456   0.106   4.304   8.574
 3496W        W 7457   2.892   4.911   9.048
 3497W        W 7458   0.350   6.528   8.963
 3498W        W 7459   1.691   6.878   7.833
 3499W        W 7460   3.083   4.904   7.297
 3500W        W 7461   0.106   6.662   9.461
 3501W        W 7462   0.897   6.234   9.941
 3502W        W 7463   1.270   5.594   8.560
 3503W        W 7464   3.521   3.761   8.950
 3504W        W 7465   0.740   5.633   7.418
 3505W        W 7466   0.395   4.666   7.597
 3506W        W 7467   0.457   6.622   8.391
 3507W        W 7468   1.588   6.105   8.639
 3508W        W 7469   2.920   6.964  10.353
 3509W        W 7470   1.846   4.606   8.037
 3510W        W 7471   3.229   7.004   8.809
 3511W        W 7472   2.906   4.857  10.407
 3512W        W 7473   3.619   6.513   8.541
 3513W        W 7474   2.246   5.805  10.025
 3514W        W 7475   0.012   5.356   8.231
 3515W        W 7476   1.123   5.771   9.804
 3516W        W 7477   2.327   5.035   8.182
 3517W        W 7478   2.204   5.525   8.286
 3518W        W 7479   0.547   4.945   9.760
 3519W        W 7480   0.532   4.821  10.682
 3520W        W 7481   0.422   3.738   8.841
 3521W        W 7482   2.190   4.085   9.402
 3522W        W 7483   1.838   4.270  10.565
 3523W        W 7484   2.193   4.419   7.743
 3524W        W 7485   3.376   6.812  10.497
 3525W        W 7486   2.343   3.893  10.536
 3526W        W 7487   3.362   6.194  10.658
 3527W        W 7488   2.792   4.361  10.254
 3528W        W 7489   2.592   4.299   8.524
 3529W        W 7490   2.985   5.433  10.928
 3530W        W 7491   0.725   7.009   8.914
 3531W        W 7492   1.383   4.726   7.900
 3532W        W 7493   0.952   4.010  10.564
 3533W        W 7494   3.004   4.494   8.245
 3534W        W 7495   3.371   4.976   8.190
 3535W        W 7496   1.114   7.193  10.661
 3536W        W 7497   1.040   3.729   7.896
 3537W        W 7498   3.361   4.263   8.931
 3538W        W 7499   3.511   6.512   7.376
 3539W        W 7500   0.418   5.715   9.078
 3540W        W 7501   2.335   4.302   7.308
 3541W        W 7502   3.469   6.634   9.028
 3542W        W 7503   3.508   3.828   9.778
 3543W        W 7504   1.953   5.040  10.332
 3544W        W 7505   2.046   6.379   8.035
 3545W        W 7506   2.446   5.673  10.775
 3546W        W 7507   2.120   3.650   9.084
 3547W        W 7508   0.732   4.553   9.147
 3548W        W 7509   0.286   5.753   9.921
 3549W        W 7510   2.145   6.946   8.627
 3550W        W 7511   3.339   4.543   9.499
 3551W        W 7512   1.976   6.890  10.266
 3552W        W 7513   3.319   5.949   7.471
 3553W        W 7514   1.754   5.432   8.532
 3554W        W 7515   3.606   3.943  10.273
 3555W        W 7516   1.755   5.778   9.867
 3556W        W 7517   1.972   4.664   9.312
 3557W        W 7518   2.824   4.962   8.150
 3558W        W 7519   3.111   4.695   7.792
 3559W        W 7520   2.920   6.735   8.181
 3560W        W 7521   2.754   6.338   8.977
 3561W        W 7522   2.650   5.417   7.955
 3562W        W 7523   2.083   5.627   8.941
 3563W        W 7524   2.964   5.415   9.008
 3564W        W 7525   0.339   4.430   9.432
 3565W        W 7526   3.117   5.482  10.259
 3566W        W 7527   3.468   7.100   9.405
 3567W        W 7528   1.398   6.544   8.807
 3568W        W 7529   2.405   7.077  10.131
 3569W        W 7530   2.399   4.407   9.895
 3570W        W 7531   1.606   7.115   9.956
 3571W        W 7532   3.303   4.069   8.422
 3572W        W 7533   3.094   5.388   9.723
 3573W        W 7534   0.077   4.709   9.761
 3574W        W 7535   2.937   4.504   8.779
 3575W        W 7536   3.348   4.655  10.556
 3576W        W 7537   2.233   6.354   8.774
 3577W        W 7538   1.489   6.945   8.387
 3578W        W 7539   0.604   4.125   7.645
 3579W        W 7540   1.708   3.779   9.455
 3580W        W 7541   0.736   6.899   7.303
 3581W        W 7542   1.110   5.365   8.054
 3582W        W 7543   1.764   5.994  10.367
 3583W        W 7544   1.594   4.352   8.357
 3584W        W 7545   2.950   3.949   8.785
 3585W        W 7546   2.670   7.231   9.113
 3586W        W 7547   2.082   6.879   9.453
 3587W        W 7548   1.478   5.916   9.414
 3588W        W 7549   3.248   6.639   9.540
 3589W        W 7550   0.942   4.142   8.309
 3590W        W 7551   1.464   6.439   9.269
 3591W        W 7552   0.947   4.370   7.334
 3592W        W 7553   1.748   4.979   9.728
 3593W        W 7554   2.596   3.845   9.598
 3594W        W 7555   0.016   5.688   9.483
 3595W        W 7556   1.720   5.506   7.641
 3596W        W 7557   0.988   3.821   7.411
 3597W        W 7558   1.726   4.902   8.462
 3598W        W 7559   2.696   3.878  10.161
 3599W        W 7560   1.284   5.890  10.270
 3600W        W 7561   2.088   5.672  10.487
 3601W        W 7562   2.705   5.702  10.380
 3602W        W 7563   1.989   3.842  10.885
 3603W        W 7564   1.211   4.458   9.278
 3604W        W 7565   0.637   4.414   8.676
 3605W        W 7566   0.423   7.126   8.352
 3606W        W 7567   1.755   6.456  10.477
 3607W        W 7568   0.790   5.941   7.836
 3608W        W 7569   2.470   5.326   9.057
 3609W        W 7570   2.750   5.125   9.456
 3610W        W 7571   1.955   5.799   9.390
 3611W        W 7572   2.425   6.173   7.522
 3612W        W 7573   2.097   4.194   8.850
 3613W        W 7574   3.576   4.472   8.118
 3614W        W 7575   0.070   7.061  10.149
 3615W        W 7576   0.487   6.287   9.681
 3616W        W 7577   0.054   7.133   7.913
 3617W        W 7578   1.953   4.403   9.719
 3618W        W 7579   1.316   6.426   7.568
 3619W        W 7580   3.221   6.808   7.754
 3620W        W 7581   2.196   5.461   7.768
 3621W        W 7582   1.039   4.652   8.285
 3622W        W 7583   1.871   4.562   7.337
 3623W        W 7584   2.455   6.127  10.515
 3624W        W 7585   2.808   4.033   8.132
 3625W        W 7586   0.138   3.881   7.580
 3626W        W 7587   1.424   6.200   9.870
 3627W        W 7588   1.223   6.116   8.962
 3628W        W 7589   0.965   6.068   7.360
 3629W        W 7590   0.206   6.309   8.128
 3630W        W 7591   0.710   5.379  10.570
 3631W        W 7592   1.414   3.939  10.756
 3632W        W 7593   2.123   4.081  10.112
 3633W        W 7594   1.318   3.849   8.393
 3634W        W 7595   2.377   3.926   7.898
 3635W        W 7596   0.322   3.858   9.475
 3636W        W 7597   0.370   4.821   8.845
 3637W        W 7598   3.059   3.929   9.251
 3638W        W 7599   0.481   4.427   8.065
 3639W        W 7600   3.052   4.115   9.681
 3640W        W 7601   3.448   5.318   7.366
 3641W        W 7602   0.740   4.076   9.185
 3642W        W 7603   1.854   4.648  10.125
 3643W        W 7604   0.002   4.338   7.603
 3644W        W 7605   0.788   5.727  10.164
 3645W        W 7606   2.146   5.125   9.343
 3646W        W 7607   2.013   7.204   7.639
 3647W        W 7608   0.159   5.711   7.336
 3648W        W 7609   0.894   6.122  10.462
 3649W        W 7610   0.415   5.289  10.093
 3650W        W 7611   1.406   5.394   9.887
 3651W        W 7612   3.174   3.753  10.149
 3652W        W 7613   3.572   5.363  10.140
 3653W        W 7614   3.560   5.563   7.826
 3654W        W 7615   2.423   5.895   7.925
 3655W        W 7616   2.897   7.195   7.620
 3656W        W 7617   2.074   5.185  10.762
 3657W        W 7618   0.404   6.152  10.802
 3658W        W 7619   3.610   4.074  10.754
 3659W        W 7620   3.328   5.002   9.375
 3660W        W 7621   1.636   7.132  10.852
 3661W        W 7622   1.491   3.761   7.579
 3662W        W 7623   3.030   6.360   7.522
 3663W        W 7624   0.799   4.453  10.408
 3664W        W 7625   1.233   6.447  10.270
 3665W        W 7626   3.359   4.438  10.068
 3666W        W 7627   2.570   7.097   8.036
 3667W        W 7628   2.809   5.716   9.403
 3668W        W 7629   1.528   5.201  10.827
 3669W        W 7630   1.031   6.380   8.021
 3670W        W 7631   2.786   5.878   8.285
 3671W        W 7632   0.554   4.504  10.009
 3672W        W 7633   1.883   6.566   8.473
 3673W        W 7634   3.633   5.126   8.654
 3674W        W 7635   1.855   3.759  10.373
 3675W        W 7636   2.635   6.464   9.452
 3676W        W 7637   2.938   6.808   9.160
 3677W        W 7638   2.157   6.610   7.588
 3678W        W 7639   0.167   6.502  10.430
 3679W        W 7640   0.910   4.494   9.668
 3680W        W 7641   0.880   3.842   8.778
 3681W        W 7642   2.501   4.684   9.470
 3682W        W 7643   1.299   5.855   7.670
 3683W        W 7644   3.297   5.797   9.169
 3684W        W 7645   0.624   6.555  10.592
 3685W        W 7646   3.011   7.237   8.389
 3686W        W 7647   1.110   4.257   8.834
 3687W        W 7648   0.879   5.750   8.924
 3688W        W 7649   1.192   7.161   9.674
 3689W        W 7650   3.259   7.257  10.706
 3690W        W 7651   2.418   5.445   9.639
 3691W        W 7652   0.267   5.243   7.554
 3692W        W 7653   3.401   6.901   8.251
 3693W        W 7654   3.238   4.225   7.870
 3694W        W 7655   1.377   3.744  10.273
 3695W        W 7656   3.083   6.546   8.731
 3696W        W 7657   3.112   5.102   8.636
 3697W        W 7658   1.229   4.775   8.852
 3698W        W 7659   1.474   5.037  10.176
 3699W        W 7660   2.585   6.190  10.039
 3700W        W 7661   1.235   4.644  10.151
 3701W        W 7662   1.214   7.110   8.767
 3702W        W 7663   0.531   7.069  10.401
 3703W        W 7664   0.643   6.430   7.531
 3704W        W 7665   3.160   6.188   8.341
 3705W        W 7666   0.764   4.980  10.227
 3706W        W 7667   3.537   4.910   7.708
 3707W        W 7668   1.282   5.967   8.179
 3708W        W 7669   2.381   5.349  10.260
 3709W        W 7670   2.272   4.977   9.804
 3710W        W 7671   0.832   5.349   9.833
 3711W        W 7672   3.042   7.237   9.662
 3712W        W 7673   2.833   3.871  10.656
 3713W        W 7674   0.497   4.021  10.243
 3714W        W 7675   0.836   5.044   9.296
 3715W        W 7676   1.205   4.858   7.418
 3716W        W 7677   0.008   6.617   9.963
 3717W        W 7678   1.593   5.326   9.406
 3718W        W 7679   1.416   4.351   7.511
 3719W        W 7680   0.551   5.167   8.292
 3720W        W 7681   0.322   7.019   9.729
 3721W        W 7682   3.117   5.245   7.837
 3722W        W 7683   3.212   4.161  10.523
 3723W        W 7684   2.648   6.370   8.486
 3724W        W 7685   0.246   5.294  10.663
 3725W        W 7686   3.212   3.758   7.959
 3726W        W 7687   2.732   6.233   7.970
 3727W        W 7688   1.634   5.291   8.055
 3728W        W 7689   2.821   4.095   7.578
 3729W        W 7690   2.886   4.702   9.764
 3730W        W 7691   0.595   5.295   8.971
 3731W        W 7692   0.889   6.234   8.620
 3732W        W 7693   2.652   4.854   8.585
 3733W        W 7694   3.637   6.144   9.792
 3734W        W 7695   3.555   4.131   9.353
 3735W        W 7696   0.094   6.961   8.729
 3736W        W 7697   0.603   6.148   8.265
 3737W        W 7698   0.518   3.765  10.818
 3738W        W 7699   1.637   6.618  10.920
 3739W        W 7700   3.392   5.586   8.710
 3740W        W 7701   2.746   5.763   7.590
 3741W        W 7702   2.041   7.284   9.802
 3742W        W 7703   2.898   6.006  10.839
 3743W        W 7704   1.713   3.716   8.119
 3744W        W 7705   2.426   4.585   8.978
 3745W        W 7706   0.112   6.172   9.310
 3746W        W 7707   1.365   4.134   7.951
 3747W        W 7708   1.169   5.618  10.800
 3748W        W 7709   2.163   4.599   8.514
 3749W        W 7710   2.368   6.009   9.636
 3750W        W 7711   0.522   6.614  10.071
 3751W        W 7712   1.113   6.597  10.794
 3752W        W 7713   0.964   4.394   7.808
 3753W        W 7714   2.481   4.536   8.133
 3754W        W 7715   2.439   6.644  10.370
 3755W        W 7716   1.124   5.236   8.969
 3756W        W 7717   0.779   6.934   9.834
 3757W        W 7718   3.524   7.051   7.435
 3758W        W 7719   0.387   5.723  10.431
 3759W        W 7720   2.382   5.985   9.119
 3760W        W 7721   0.818   5.634   8.361
 3761W        W 7722   1.189   6.641   9.756
 3762W        W 7723   1.567   4.060   8.797
 3763W        W 7724   0.178   6.044   7.727
 3764W        W 7725   1.697   4.995   7.597
 3765W        W 7726   0.343   5.544   8.616
 3766W        W 7727   1.633   4.186  10.080
 3767W        W 7728   3.305   3.895   7.507
 3768W        W 7729   3.398   5.641  10.606
 3769W        W 7730   2.052   6.898  10.758
 3770W        W 7731   3.610   5.992  10.280
 3771W        W 7732   3.018   6.790  10.891
 3772W        W 7733   0.757   7.246   9.369
 3773W        W 7734   3.616   5.868   8.243
 3774W        W 7735   2.146   5.135   8.756
 3775W        W 7736   1.913   3.747   8.646
 3776W        W 7737   0.972   6.731   8.483
 3777W        W 7738   1.471   4.472   9.708
 3778W        W 7739   1.171   3.841   9.177
 3779W        W 7740   0.234   6.663   7.725
 3780W        W 7741   2.050   6.027   8.443
 3781W        W 7742   0.925   6.822  10.322
 3782W        W 7743   0.402   5.645   8.018
 3783W        W 7744   0.287   4.188   9.017
 3784W        W 7745   1.835   6.153   9.074
 3785W        W 7746   0.087   4.007   8.094
 3786W        W 7747   2.751   5.213  10.021
 3787W        W 7748   2.628   4.599   7.593
 3788W        W 7749   3.145   6.271   9.241
 3789W        W 7750   1.806   6.755   9.072
 3790W        W 7751   1.218   6.859   7.983
 3791W        W 7752   2.500   3.762   7.413
 3792W        W 7753   0.300   7.022   9.154
 3793W        W 7754   2.497   4.780  10.789
 3794W        W 7755   0.480   4.310  10.788
 3795W        W 7756   0.211   4.910   8.121
 3796W        W 7757   0.902   4.899   7.846
 3797W        W 7758   2.665   5.226  10.663
 3798W        W 7759   1.008   5.507   9.372
 3799W        W 7760   2.482   3.793   8.492
 3800W        W 7761   1.613   7.224   8.995
 3801W        W 7762   2.827   6.686   9.932
 3802W        W 7763   2.411   6.835   9.043
 3803W        W 7764   2.430   5.815   8.637
 3804W        W 7765   1.892   4.040   7.708
 3805W        W 7766   3.573   3.668   8.430
 3806W        W 7767   1.261   5.303   7.593
 3807W        W 7768   3.427   4.640   8.583
 3808W        W 7769   2.119   5.810   7.460
 3809W        W 7770   3.055   6.010  10.208
 3810W        W 7771   2.709   6.711   7.675
 3811W        W 7772   1.324   4.386  10.581
 3812W        W 7773   1.144   4.970   9.822
 3813W        W 7774   3.236   6.465  10.099
 3814W        W 7775   2.336   4.415  10.476
 3815W        W 7776   0.180   4.886  10.253
 3816W        W 7777   1.940   5.363   9.979
 3817W        W 7778   0.297   6.121   8.636
 3818W        W 7779   0.444   5.418   9.526
 3819W        W 7780   2.761   5.704   9.876
 3820W        W 7781   2.533   7.084  10.687
 3821W        W 7782   2.429   4.823  10.240
 3822W        W 7783   2.706   6.877   8.645
 3823W        W 7784   1.708   6.597   9.968
 3824W        W 7785   1.193   6.952   9.237
 3825W        W 7786   2.998   6.123   9.656
 3826W        W 7787   2.048   6.195  10.793
 3827W        W 7788   0.653   6.148   9.132
 3828W        W 7789   2.999   5.907   8.777
 3829W        W 7790   2.640   6.973   9.528
 3830W        W 7791   0.618   6.702   9.398
 3831W        W 7792   1.639   4.754  10.608
 3832W        W 7793   2.090   6.920   8.119
 3833W        W 7794   1.398   6.175  10.757
 3834W        W 7795   1.524   6.413   8.134
 3835W        W 7796   0.745   5.153   7.393
 3836W        W 7797   0.084   7.239  14.292
 3837W        W 7798   0.460   6.132  13.815
 3838W        W 7799   3.165   5.862  11.585
 3839W        W 7800   3.295   6.947  13.612
 3840W        W 7801   1.213   6.938  11.138
 3841W        W 7802   1.296   5.090  12.121
 3842W        W 7803   0.811   4.938  12.285
 3843W        W 7804   1.802   5.753  11.719
 3844W        W 7805   1.477   6.845  14.074
 3845W        W 7806   0.126   4.406  14.037
 3846W        W 7807   0.888   3.686  13.839
 3847W        W 7808   2.582   4.074  12.726
 3848W        W 7809   2.231   4.945  11.296
 3849W        W 7810   2.801   4.379  14.387
 3850W        W 7811   0.167   4.171  13.512
 3851W        W 7812   0.266   6.790  14.533
 3852W        W 7813   1.788   6.180  11.265
 3853W        W 7814   0.220   4.963  12.958
 3854W        W 7815   1.113   4.854  14.195
 3855W        W 7816   3.572   4.713  12.694
 3856W        W 7817   3.336   5.756  13.553
 3857W        W 7818   1.644   5.089  12.580
 3858W        W 7819   2.190   6.428  12.949
 3859W        W 7820   0.690   5.862  13.181
 3860W        W 7821   0.049   5.390  12.752
 3861W        W 7822   1.085   5.362  13.944
 3862W        W 7823   3.356   5.145  14.198
 3863W        W 7824   0.972   6.589  12.643
 3864W        W 7825   2.093   6.278  13.777
 3865W        W 7826   1.313   4.918  13.002
 3866W        W 7827   1.605   5.702  12.645
 3867W        W 7828   2.602   6.475  14.493
 3868W        W 7829   1.681   5.795  14.503
 3869W        W 7830   1.662   5.511  13.981
 3870W        W 7831   0.071   4.902  14.503
 3871W        W 7832   2.903   6.437  14.102
 3872W        W 7833   0.484   4.019  12.100
 3873W        W 7834   1.011   6.277  13.099
 3874W        W 7835   3.474   6.060  12.389
 3875W        W 7836   2.887   4.460  12.956
 3876W        W 7837   3.172   4.413  11.051
 3877W        W 7838   3.637   5.214  13.357
 3878W        W 7839   1.604   6.921  13.110
 3879W        W 7840   3.378   6.387  11.548
 3880W        W 7841   0.507   7.173  11.302
 3881W        W 7842   0.900   7.219  11.978
 3882W        W 7843   0.697   3.973  13.404
 3883W        W 7844   3.320   4.991  13.679
 3884W        W 7845   2.725   5.413  12.138
 3885W        W 7846   2.691   5.101  11.165
 3886W        W 7847   1.899   6.245  13.305
 3887W        W 7848   1.705   4.575  12.504
 3888W        W 7849   2.305   6.662  13.498
 3889W        W 7850   3.176   5.453  11.920
 3890W        W 7851   2.078   4.111  11.936
 3891W        W 7852   0.735   6.805  11.619
 3892W        W 7853   0.106   4.304  12.218
 3893W        W 7854   2.892   4.911  12.692
 3894W        W 7855   0.350   6.528  12.607
 3895W        W 7856   1.691   6.878  11.477
 3896W        W 7857   3.083   4.904  10.941
 3897W        W 7858   0.106   6.662  13.105
 3898W        W 7859   0.897   6.234  13.585
 3899W        W 7860   1.270   5.594  12.204
 3900W        W 7861   1.292   3.999  13.297
 3901W        W 7862   3.521   3.761  12.594
 3902W        W 7863   0.740   5.633  11.062
 3903W        W 7864   0.395   4.666  11.241
 3904W        W 7865   0.457   6.622  12.035
 3905W        W 7866   1.588   6.105  12.283
 3906W        W 7867   2.920   6.964  13.997
 3907W        W 7868   1.846   4.606  11.681
 3908W        W 7869   3.229   7.004  12.453
 3909W        W 7870   2.906   4.857  14.051
 3910W        W 7871   3.619   6.513  12.185
 3911W        W 7872   2.246   5.805  13.669
 3912W        W 7873   0.012   5.356  11.875
 3913W        W 7874   1.123   5.771  13.448
 3914W        W 7875   2.327   5.035  11.826
 3915W        W 7876   2.204   5.525  11.930
 3916W        W 7877   0.547   4.945  13.404
 3917W        W 7878   0.532   4.821  14.326
 3918W        W 7879   2.190   4.085  13.046
 3919W        W 7880   1.838   4.270  14.209
 3920W        W 7881   2.193   4.419  11.387
 3921W        W 7882   3.376   6.812  14.141
 3922W        W 7883   2.343   3.893  14.180
 3923W        W 7884   3.362   6.194  14.302
 3924W        W 7885   2.792   4.361  13.898
 3925W        W 7886   2.592   4.299  12.168
 3926W        W 7887   2.985   5.433  14.572
 3927W        W 7888   0.725   7.009  12.558
 3928W        W 7889   1.383   4.726  11.544
 3929W        W 7890   0.952   4.010  14.208
 3930W        W 7891   3.004   4.494  11.889
 3931W        W 7892   3.371   4.976  11.834
 3932W        W 7893   1.114   7.193  14.305
 3933W        W 7894   1.040   3.729  11.540
 3934W        W 7895   3.361   4.263  12.575
 3935W        W 7896   3.511   6.512  11.020
 3936W        W 7897   0.418   5.715  12.722
 3937W        W 7898   2.335   4.302  10.952
 3938W        W 7899   3.469   6.634  12.672
 3939W        W 7900   3.508   3.828  13.422
 3940W        W 7901   1.953   5.040  13.976
 3941W        W 7902   2.046   6.379  11.679
 3942W        W 7903   2.446   5.673  14.419
 3943W        W 7904   2.120   3.650  12.728
 3944W        W 7905   0.732   4.553  12.791
 3945W        W 7906   0.286   5.753  13.565
 3946W        W 7907   2.145   6.946  12.271
 3947W        W 7908   3.339   4.543  13.143
 3948W        W 7909   1.976   6.890  13.910
 3949W        W 7910   3.319   5.949  11.115
 3950W        W 7911   1.754   5.432  12.176
 3951W        W 7912   3.606   3.943  13.917
 3952W        W 7913   1.755   5.778  13.511
 3953W        W 7914   1.972   4.664  12.956
 3954W        W 7915   2.824   4.962  11.794
 3955W        W 7916   3.111   4.695  11.436
 3956W        W 7917   2.920   6.735  11.825
 3957W        W 7918   2.754   6.338  12.621
 3958W        W 7919   2.650   5.417  11.599
 3959W        W 7920   2.083   5.627  12.585
 3960W        W 7921   2.964   5.415  12.652
 3961W        W 7922   0.339   4.430  13.076
 3962W        W 7923   3.117   5.482  13.903
 3963W        W 7924   3.468   7.100  13.049
 3964W        W 7925   1.398   6.544  12.451
 3965W        W 7926   2.405   7.077  13.775
 3966W        W 7927   2.399   4.407  13.539
 3967W        W 7928   1.606   7.115  13.600
 3968W        W 7929   3.303   4.069  12.066
 3969W        W 7930   3.094   5.388  13.367
 3970W        W 7931   0.077   4.709  13.405
 3971W        W 7932   2.937   4.504  12.423
 3972W        W 7933   3.348   4.655  14.200
 3973W        W 7934   2.233   6.354  12.418
 3974W        W 7935   1.489   6.945  12.031
 3975W        W 7936   0.604   4.125  11.289
 3976W        W 7937   1.708   3.779  13.099
 3977W        W 7938   0.736   6.899  10.947
 3978W        W 7939   1.110   5.365  11.698
 3979W        W 7940   1.764   5.994  14.011
 3980W        W 7941   1.594   4.352  12.001
 3981W        W 7942   2.950   3.949  12.429
 3982W        W 7943   2.670   7.231  12.757
 3983W        W 7944   2.082   6.879  13.097
 3984W        W 7945   1.478   5.916  13.058
 3985W        W 7946   3.248   6.639  13.184
 3986W        W 7947   0.942   4.142  11.953
 3987W        W 7948   1.464   6.439  12.913
 3988W        W 7949   0.947   4.370  10.978
 3989W        W 7950   1.748   4.979  13.372
 3990W        W 7951   2.596   3.845  13.242
 3991W        W 7952   0.016   5.688  13.127
 3992W        W 7953   1.720   5.506  11.285
 3993W        W 7954   0.988   3.821  11.055
 3994W        W 7955   1.726   4.902  12.106
 3995W        W 7956   2.696   3.878  13.805
 3996W        W 7957   1.284   5.890  13.914
 3997W        W 7958   2.088   5.672  14.131
 3998W        W 7959   2.705   5.702  14.024
 3999W        W 7960   1.989   3.842  14.529
 4000W        W 7961   1.211   4.458  12.922
 4001W        W 7962   0.637   4.414  12.320
 4002W        W 7963   0.423   7.126  11.996
 4003W        W 7964   1.755   6.456  14.121
 4004W        W 7965   0.790   5.941  11.480
 4005W        W 7966   2.470   5.326  12.701
 4006W        W 7967   2.750   5.125  13.100
 4007W        W 7968   1.955   5.799  13.034
 4008W        W 7969   2.425   6.173  11.166
 4009W        W 7970   2.097   4.194  12.494
 4010W        W 7971   3.576   4.472  11.762
 4011W        W 7972   0.070   7.061  13.793
 4012W        W 7973   0.487   6.287  13.325
 4013W        W 7974   0.054   7.133  11.557
 4014W        W 7975   1.953   4.403  13.363
 4015W        W 7976   1.316   6.426  11.212
 4016W        W 7977   3.221   6.808  11.398
 4017W        W 7978   2.196   5.461  11.412
 4018W        W 7979   1.039   4.652  11.929
 4019W        W 7980   1.871   4.562  10.981
 4020W        W 7981   2.455   6.127  14.159
 4021W        W 7982   2.808   4.033  11.776
 4022W        W 7983   0.138   3.881  11.224
 4023W        W 7984   1.424   6.200  13.514
 4024W        W 7985   1.223   6.116  12.606
 4025W        W 7986   0.965   6.068  11.004
 4026W        W 7987   0.206   6.309  11.772
 4027W        W 7988   0.710   5.379  14.214
 4028W        W 7989   1.414   3.939  14.400
 4029W        W 7990   2.123   4.081  13.756
 4030W        W 7991   1.318   3.849  12.037
 4031W        W 7992   2.377   3.926  11.542
 4032W        W 7993   0.322   3.858  13.119
 4033W        W 7994   0.370   4.821  12.489
 4034W        W 7995   3.059   3.929  12.895
 4035W        W 7996   0.481   4.427  11.709
 4036W        W 7997   3.052   4.115  13.325
 4037W        W 7998   3.448   5.318  11.010
 4038W        W 7999   0.740   4.076  12.829
 4039W        W 8000   1.854   4.648  13.769
 4040W        W 8001   0.002   4.338  11.247
 4041W        W 8002   0.788   5.727  13.808
 4042W        W 8003   2.146   5.125  12.987
 4043W        W 8004   2.013   7.204  11.283
 4044W        W 8005   0.159   5.711  10.980
 4045W        W 8006   0.894   6.122  14.106
 4046W        W 8007   0.415   5.289  13.737
 4047W        W 8008   1.406   5.394  13.531
 4048W        W 8009   3.174   3.753  13.793
 4049W        W 8010   3.572   5.363  13.784
 4050W        W 8011   3.560   5.563  11.470
 4051W        W 8012   2.423   5.895  11.569
 4052W        W 8013   2.897   7.195  11.264
 4053W        W 8014   2.074   5.185  14.406
 4054W        W 8015   0.404   6.152  14.446
 4055W        W 8016   3.610   4.074  14.398
 4056W        W 8017   3.328   5.002  13.019
 4057W        W 8018   1.636   7.132  14.496
 4058W        W 8019   1.491   3.761  11.223
 4059W        W 8020   3.030   6.360  11.166
 4060W        W 8021   0.799   4.453  14.052
 4061W        W 8022   1.233   6.447  13.914
 4062W        W 8023   3.359   4.438  13.712
 4063W        W 8024   2.570   7.097  11.680
 4064W        W 8025   2.809   5.716  13.047
 4065W        W 8026   1.059   4.132  13.714
 4066W        W 8027   1.528   5.201  14.471
 4067W        W 8028   1.031   6.380  11.665
 4068W        W 8029   2.786   5.878  11.929
 4069W        W 8030   0.554   4.504  13.653
 4070W        W 8031   1.883   6.566  12.117
 4071W        W 8032   3.633   5.126  12.298
 4072W        W 8033   1.855   3.759  14.017
 4073W        W 8034   2.635   6.464  13.096
 4074W        W 8035   2.938   6.808  12.804
 4075W        W 8036   2.157   6.610  11.232
 4076W        W 8037   0.167   6.502  14.074
 4077W        W 8038   0.910   4.494  13.312
 4078W        W 8039   0.880   3.842  12.422
 4079W        W 8040   2.501   4.684  13.114
 4080W        W 8041   1.299   5.855  11.314
 4081W        W 8042   3.297   5.797  12.813
 4082W        W 8043   0.624   6.555  14.236
 4083W        W 8044   3.011   7.237  12.033
 4084W        W 8045   1.110   4.257  12.478
 4085W        W 8046   0.879   5.750  12.568
 4086W        W 8047   1.192   7.161  13.318
 4087W        W 8048   3.259   7.257  14.350
 4088W        W 8049   2.418   5.445  13.283
 4089W        W 8050   0.267   5.243  11.198
 4090W        W 8051   3.401   6.901  11.895
 4091W        W 8052   3.238   4.225  11.514
 4092W        W 8053   1.377   3.744  13.917
 4093W        W 8054   3.083   6.546  12.375
 4094W        W 8055   3.112   5.102  12.280
 4095W        W 8056   1.229   4.775  12.496
 4096W        W 8057   1.474   5.037  13.820
 4097W        W 8058   2.585   6.190  13.683
 4098W        W 8059   1.235   4.644  13.795
 4099W        W 8060   1.214   7.110  12.411
 4100W        W 8061   0.531   7.069  14.045
 4101W        W 8062   0.643   6.430  11.175
 4102W        W 8063   3.160   6.188  11.985
 4103W        W 8064   0.764   4.980  13.871
 4104W        W 8065   3.537   4.910  11.352
 4105W        W 8066   1.282   5.967  11.823
 4106W        W 8067   2.381   5.349  13.904
 4107W        W 8068   2.272   4.977  13.448
 4108W        W 8069   0.832   5.349  13.477
 4109W        W 8070   3.042   7.237  13.306
 4110W        W 8071   2.833   3.871  14.300
 4111W        W 8072   0.497   4.021  13.887
 4112W        W 8073   0.836   5.044  12.940
 4113W        W 8074   1.205   4.858  11.062
 4114W        W 8075   0.008   6.617  13.607
 4115W        W 8076   1.593   5.326  13.050
 4116W        W 8077   1.416   4.351  11.155
 4117W        W 8078   0.551   5.167  11.936
 4118W        W 8079   0.322   7.019  13.373
 4119W        W 8080   3.117   5.245  11.481
 4120W        W 8081   3.212   4.161  14.167
 4121W        W 8082   2.648   6.370  12.130
 4122W        W 8083   0.246   5.294  14.307
 4123W        W 8084   3.212   3.758  11.603
 4124W        W 8085   2.732   6.233  11.614
 4125W        W 8086   1.634   5.291  11.699
 4126W        W 8087   2.821   4.095  11.222
 4127W        W 8088   2.886   4.702  13.408
 4128W        W 8089   0.595   5.295  12.615
 4129W        W 8090   0.889   6.234  12.264
 4130W        W 8091   2.652   4.854  12.229
 4131W        W 8092   1.675   4.233  12.925
 4132W        W 8093   3.637   6.144  13.436
 4133W        W 8094   3.555   4.131  12.997
 4134W        W 8095   0.094   6.961  12.373
 4135W        W 8096   0.603   6.148  11.909
 4136W        W 8097   0.518   3.765  14.462
 4137W        W 8098   1.637   6.618  14.564
 4138W        W 8099   3.392   5.586  12.354
 4139W        W 8100   2.746   5.763  11.234
 4140W        W 8101   2.041   7.284  13.446
 4141W        W 8102   2.898   6.006  14.483
 4142W        W 8103   1.713   3.716  11.763
 4143W        W 8104   2.426   4.585  12.622
 4144W        W 8105   0.112   6.172  12.954
 4145W        W 8106   1.365   4.134  11.595
 4146W        W 8107   1.169   5.618  14.444
 4147W        W 8108   2.163   4.599  12.158
 4148W        W 8109   2.368   6.009  13.280
 4149W        W 8110   0.522   6.614  13.715
 4150W        W 8111   1.113   6.597  14.438
 4151W        W 8112   0.964   4.394  11.452
 4152W        W 8113   2.481   4.536  11.777
 4153W        W 8114   2.439   6.644  14.014
 4154W        W 8115   1.124   5.236  12.613
 4155W        W 8116   0.779   6.934  13.478
 4156W        W 8117   3.524   7.051  11.079
 4157W        W 8118   0.387   5.723  14.075
 4158W        W 8119   2.382   5.985  12.763
 4159W        W 8120   0.818   5.634  12.005
 4160W        W 8121   1.189   6.641  13.400
 4161W        W 8122   1.567   4.060  12.441
 4162W        W 8123   0.178   6.044  11.371
 4163W        W 8124   1.697   4.995  11.241
 4164W        W 8125   0.343   5.544  12.260
 4165W        W 8126   1.633   4.186  13.724
 4166W        W 8127   3.305   3.895  11.151
 4167W        W 8128   3.398   5.641  14.250
 4168W        W 8129   2.052   6.898  14.402
 4169W        W 8130   3.610   5.992  13.924
 4170W        W 8131   3.018   6.790  14.535
 4171W        W 8132   0.757   7.246  13.013
 4172W        W 8133   3.616   5.868  11.887
 4173W        W 8134   2.146   5.135  12.400
 4174W        W 8135   1.913   3.747  12.290
 4175W        W 8136   0.972   6.731  12.127
 4176W        W 8137   1.471   4.472  13.352
 4177W        W 8138   1.171   3.841  12.821
 4178W        W 8139   0.234   6.663  11.369
 4179W        W 8140   2.050   6.027  12.087
 4180W        W 8141   0.925   6.822  13.966
 4181W        W 8142   0.402   5.645  11.662
 4182W        W 8143   0.287   4.188  12.661
 4183W        W 8144   1.835   6.153  12.718
 4184W        W 8145   2.751   5.213  13.665
 4185W        W 8146   2.628   4.599  11.237
 4186W        W 8147   3.145   6.271  12.885
 4187W        W 8148   1.806   6.755  12.716
 4188W        W 8149   1.218   6.859  11.627
 4189W        W 8150   2.500   3.762  11.057
 4190W        W 8151   0.300   7.022  12.798
 4191W        W 8152   2.497   4.780  14.433
 4192W        W 8153   0.480   4.310  14.432
 4193W        W 8154   0.211   4.910  11.765
 4194W        W 8155   0.902   4.899  11.490
 4195W        W 8156   2.665   5.226  14.307
 4196W        W 8157   1.008   5.507  13.016
 4197W        W 8158   2.482   3.793  12.136
 4198W        W 8159   1.613   7.224  12.639
 4199W        W 8160   2.827   6.686  13.576
 4200W        W 8161   2.411   6.835  12.687
 4201W        W 8162   2.430   5.815  12.281
 4202W        W 8163   1.892   4.040  11.352
 4203W        W 8164   3.573   3.668  12.074
 4204W        W 8165   1.261   5.303  11.237
 4205W        W 8166   3.427   4.640  12.227
 4206W        W 8167   2.119   5.810  11.104
 4207W        W 8168   3.055   6.010  13.852
 4208W        W 8169   2.709   6.711  11.319
 4209W        W 8170   1.324   4.386  14.225
 4210W        W 8171   1.144   4.970  13.466
 4211W        W 8172   3.236   6.465  13.743
 4212W        W 8173   2.336   4.415  14.120
 4213W        W 8174   0.180   4.886  13.897
 4214W        W 8175   1.940   5.363  13.623
 4215W        W 8176   0.297   6.121  12.280
 4216W        W 8177   0.444   5.418  13.170
 4217W        W 8178   2.761   5.704  13.520
 4218W        W 8179   2.533   7.084  14.331
 4219W        W 8180   2.429   4.823  13.884
 4220W        W 8181   2.706   6.877  12.289
 4221W        W 8182   1.708   6.597  13.612
 4222W        W 8183   1.193   6.952  12.881
 4223W        W 8184   2.998   6.123  13.300
 4224W        W 8185   2.048   6.195  14.437
 4225W        W 8186   0.653   6.148  12.776
 4226W        W 8187   2.999   5.907  12.421
 4227W        W 8188   2.640   6.973  13.172
 4228W        W 8189   0.618   6.702  13.042
 4229W        W 8190   1.639   4.754  14.252
 4230W        W 8191   2.090   6.920  11.763
 4231W        W 8192   1.398   6.175  14.401
 4232W        W 8193   1.524   6.413  11.778
 4233W        W 8194   0.745   5.153  11.037
 4234W        W 8195   0.084   7.239  17.936
 4235W        W 8196   0.460   6.132  17.459
 4236W        W 8197   3.165   5.862  15.229
 4237W        W 8198   3.295   6.947  17.256
 4238W        W 8199   1.213   6.938  14.782
 4239W        W 8200   1.296   5.090  15.765
 4240W        W 8201   0.811   4.938  15.929
 4241W        W 8202   1.802   5.753  15.363
 4242W        W 8203   1.477   6.845  17.718
 4243W        W 8204   0.126   4.406  17.681
 4244W        W 8205   0.888   3.686  17.483
 4245W        W 8206   2.582   4.074  16.370
 4246W        W 8207   2.231   4.945  14.940
 4247W        W 8208   2.801   4.379  18.031
 4248W        W 8209   0.167   4.171  17.156
 4249W        W 8210   0.266   6.790  18.177
 4250W        W 8211   1.788   6.180  14.909
 4251W        W 8212   0.220   4.963  16.602
 4252W        W 8213   1.113   4.854  17.839
 4253W        W 8214   3.572   4.713  16.338
 4254W        W 8215   3.336   5.756  17.197
 4255W        W 8216   1.644   5.089  16.224
 4256W        W 8217   2.190   6.428  16.593
 4257W        W 8218   0.690   5.862  16.825
 4258W        W 8219   0.049   5.390  16.396
 4259W        W 8220   1.085   5.362  17.588
 4260W        W 8221   3.356   5.145  17.842
 4261W        W 8222   0.972   6.589  16.287
 4262W        W 8223   2.093   6.278  17.421
 4263W        W 8224   1.313   4.918  16.646
 4264W        W 8225   1.605   5.702  16.289
 4265W        W 8226   2.602   6.475  18.137
 4266W        W 8227   1.681   5.795  18.147
 4267W        W 8228   1.662   5.511  17.625
 4268W        W 8229   0.071   4.902  18.147
 4269W        W 8230   2.903   6.437  17.746
 4270W        W 8231   0.484   4.019  15.744
 4271W        W 8232   1.011   6.277  16.743
 4272W        W 8233   3.474   6.060  16.033
 4273W        W 8234   2.887   4.460  16.600
 4274W        W 8235   3.172   4.413  14.695
 4275W        W 8236   3.637   5.214  17.001
 4276W        W 8237   1.604   6.921  16.754
 4277W        W 8238   3.378   6.387  15.192
 4278W        W 8239   0.507   7.173  14.946
 4279W        W 8240   0.900   7.219  15.622
 4280W        W 8241   0.697   3.973  17.048
 4281W        W 8242   3.320   4.991  17.323
 4282W        W 8243   2.725   5.413  15.782
 4283W        W 8244   2.691   5.101  14.809
 4284W        W 8245   1.899   6.245  16.949
 4285W        W 8246   1.705   4.575  16.148
 4286W        W 8247   2.305   6.662  17.142
 4287W        W 8248   3.176   5.453  15.564
 4288W        W 8249   2.078   4.111  15.580
 4289W        W 8250   0.735   6.805  15.263
 4290W        W 8251   0.106   4.304  15.862
 4291W        W 8252   2.892   4.911  16.336
 4292W        W 8253   0.350   6.528  16.251
 4293W        W 8254   1.691   6.878  15.121
 4294W        W 8255   3.083   4.904  14.585
 4295W        W 8256   0.106   6.662  16.749
 4296W        W 8257   0.897   6.234  17.229
 4297W        W 8258   1.270   5.594  15.848
 4298W        W 8259   1.292   3.999  16.941
 4299W        W 8260   3.521   3.761  16.238
 4300W        W 8261   0.740   5.633  14.706
 4301W        W 8262   0.395   4.666  14.885
 4302W        W 8263   0.457   6.622  15.679
 4303W        W 8264   1.588   6.105  15.927
 4304W        W 8265   2.920   6.964  17.641
 4305W        W 8266   1.846   4.606  15.325
 4306W        W 8267   3.229   7.004  16.097
 4307W        W 8268   2.906   4.857  17.695
 4308W        W 8269   3.619   6.513  15.829
 4309W        W 8270   2.246   5.805  17.313
 4310W        W 8271   0.012   5.356  15.519
 4311W        W 8272   1.123   5.771  17.092
 4312W        W 8273   2.327   5.035  15.470
 4313W        W 8274   2.204   5.525  15.574
 4314W        W 8275   0.547   4.945  17.048
 4315W        W 8276   0.532   4.821  17.970
 4316W        W 8277   0.422   3.738  16.129
 4317W        W 8278   2.190   4.085  16.690
 4318W        W 8279   1.838   4.270  17.853
 4319W        W 8280   2.193   4.419  15.031
 4320W        W 8281   3.376   6.812  17.785
 4321W        W 8282   2.343   3.893  17.824
 4322W        W 8283   3.362   6.194  17.946
 4323W        W 8284   2.792   4.361  17.542
 4324W        W 8285   2.592   4.299  15.812
 4325W        W 8286   2.985   5.433  18.216
 4326W        W 8287   0.725   7.009  16.202
 4327W        W 8288   1.383   4.726  15.188
 4328W        W 8289   0.952   4.010  17.852
 4329W        W 8290   3.004   4.494  15.533
 4330W        W 8291   3.371   4.976  15.478
 4331W        W 8292   1.114   7.193  17.949
 4332W        W 8293   1.040   3.729  15.184
 4333W        W 8294   3.361   4.263  16.219
 4334W        W 8295   3.511   6.512  14.664
 4335W        W 8296   0.418   5.715  16.366
 4336W        W 8297   2.335   4.302  14.596
 4337W        W 8298   3.469   6.634  16.316
 4338W        W 8299   3.508   3.828  17.066
 4339W        W 8300   1.953   5.040  17.620
 4340W        W 8301   2.046   6.379  15.323
 4341W        W 8302   2.446   5.673  18.063
 4342W        W 8303   2.120   3.650  16.372
 4343W        W 8304   0.732   4.553  16.435
 4344W        W 8305   0.286   5.753  17.209
 4345W        W 8306   2.145   6.946  15.915
 4346W        W 8307   3.339   4.543  16.787
 4347W        W 8308   1.976   6.890  17.554
 4348W        W 8309   3.319   5.949  14.759
 4349W        W 8310   1.754   5.432  15.820
 4350W        W 8311   3.606   3.943  17.561
 4351W        W 8312   1.755   5.778  17.155
 4352W        W 8313   1.972   4.664  16.600
 4353W        W 8314   2.824   4.962  15.438
 4354W        W 8315   3.111   4.695  15.080
 4355W        W 8316   2.920   6.735  15.469
 4356W        W 8317   2.754   6.338  16.265
 4357W        W 8318   2.650   5.417  15.243
 4358W        W 8319   2.083   5.627  16.229
 4359W        W 8320   2.964   5.415  16.296
 4360W        W 8321   0.339   4.430  16.720
 4361W        W 8322   3.117   5.482  17.547
 4362W        W 8323   3.468   7.100  16.693
 4363W        W 8324   1.398   6.544  16.095
 4364W        W 8325   2.405   7.077  17.419
 4365W        W 8326   2.399   4.407  17.183
 4366W        W 8327   1.606   7.115  17.244
 4367W        W 8328   3.303   4.069  15.710
 4368W        W 8329   3.094   5.388  17.011
 4369W        W 8330   0.077   4.709  17.049
 4370W        W 8331   2.937   4.504  16.067
 4371W        W 8332   3.348   4.655  17.844
 4372W        W 8333   2.233   6.354  16.062
 4373W        W 8334   1.489   6.945  15.675
 4374W        W 8335   0.604   4.125  14.933
 4375W        W 8336   1.708   3.779  16.743
 4376W        W 8337   0.736   6.899  14.591
 4377W        W 8338   1.110   5.365  15.342
 4378W        W 8339   1.764   5.994  17.655
 4379W        W 8340   1.594   4.352  15.645
 4380W        W 8341   2.950   3.949  16.073
 4381W        W 8342   2.670   7.231  16.401
 4382W        W 8343   2.082   6.879  16.741
 4383W        W 8344   1.478   5.916  16.702
 4384W        W 8345   3.248   6.639  16.828
 4385W        W 8346   0.942   4.142  15.597
 4386W        W 8347   1.464   6.439  16.557
 4387W        W 8348   0.947   4.370  14.622
 4388W        W 8349   1.748   4.979  17.016
 4389W        W 8350   2.596   3.845  16.886
 4390W        W 8351   0.016   5.688  16.771
 4391W        W 8352   1.720   5.506  14.929
 4392W        W 8353   0.988   3.821  14.699
 4393W        W 8354   1.726   4.902  15.750
 4394W        W 8355   2.696   3.878  17.449
 4395W        W 8356   1.284   5.890  17.558
 4396W        W 8357   2.088   5.672  17.775
 4397W        W 8358   2.705   5.702  17.668
 4398W        W 8359   1.989   3.842  18.173
 4399W        W 8360   1.211   4.458  16.566
 4400W        W 8361   0.637   4.414  15.964
 4401W        W 8362   0.423   7.126  15.640
 4402W        W 8363   1.755   6.456  17.765
 4403W        W 8364   0.790   5.941  15.124
 4404W        W 8365   2.470   5.326  16.345
 4405W        W 8366   2.750   5.125  16.744
 4406W        W 8367   1.955   5.799  16.678
 4407W        W 8368   2.425   6.173  14.810
 4408W        W 8369   2.097   4.194  16.138
 4409W        W 8370   3.576   4.472  15.406
 4410W        W 8371   0.070   7.061  17.437
 4411W        W 8372   0.487   6.287  16.969
 4412W        W 8373   0.054   7.133  15.201
 4413W        W 8374   1.953   4.403  17.007
 4414W        W 8375   1.316   6.426  14.856
 4415W        W 8376   3.221   6.808  15.042
 4416W        W 8377   2.196   5.461  15.056
 4417W        W 8378   1.039   4.652  15.573
 4418W        W 8379   1.871   4.562  14.625
 4419W        W 8380   2.455   6.127  17.803
 4420W        W 8381   2.808   4.033  15.420
 4421W        W 8382   0.138   3.881  14.868
 4422W        W 8383   1.424   6.200  17.158
 4423W        W 8384   1.223   6.116  16.250
 4424W        W 8385   0.965   6.068  14.648
 4425W        W 8386   0.206   6.309  15.416
 4426W        W 8387   0.710   5.379  17.858
 4427W        W 8388   1.414   3.939  18.044
 4428W        W 8389   2.123   4.081  17.400
 4429W        W 8390   1.318   3.849  15.681
 4430W        W 8391   2.377   3.926  15.186
 4431W        W 8392   0.322   3.858  16.763
 4432W        W 8393   0.370   4.821  16.133
 4433W        W 8394   3.059   3.929  16.539
 4434W        W 8395   0.481   4.427  15.353
 4435W        W 8396   3.052   4.115  16.969
 4436W        W 8397   3.448   5.318  14.654
 4437W        W 8398   0.740   4.076  16.473
 4438W        W 8399   1.854   4.648  17.413
 4439W        W 8400   0.002   4.338  14.891
 4440W        W 8401   0.788   5.727  17.452
 4441W        W 8402   2.146   5.125  16.631
 4442W        W 8403   2.013   7.204  14.927
 4443W        W 8404   0.159   5.711  14.624
 4444W        W 8405   0.894   6.122  17.750
 4445W        W 8406   0.415   5.289  17.381
 4446W        W 8407   1.406   5.394  17.175
 4447W        W 8408   3.174   3.753  17.437
 4448W        W 8409   3.572   5.363  17.428
 4449W        W 8410   3.560   5.563  15.114
 4450W        W 8411   2.423   5.895  15.213
 4451W        W 8412   2.897   7.195  14.908
 4452W        W 8413   2.074   5.185  18.050
 4453W        W 8414   0.404   6.152  18.090
 4454W        W 8415   3.610   4.074  18.042
 4455W        W 8416   3.328   5.002  16.663
 4456W        W 8417   1.636   7.132  18.140
 4457W        W 8418   1.491   3.761  14.867
 4458W        W 8419   3.030   6.360  14.810
 4459W        W 8420   0.799   4.453  17.696
 4460W        W 8421   1.233   6.447  17.558
 4461W        W 8422   3.359   4.438  17.356
 4462W        W 8423   2.570   7.097  15.324
 4463W        W 8424   2.809   5.716  16.691
 4464W        W 8425   1.059   4.132  17.358
 4465W        W 8426   1.528   5.201  18.115
 4466W        W 8427   1.031   6.380  15.309
 4467W        W 8428   2.786   5.878  15.573
 4468W        W 8429   0.554   4.504  17.297
 4469W        W 8430   1.883   6.566  15.761
 4470W        W 8431   3.633   5.126  15.942
 4471W        W 8432   1.855   3.759  17.661
 4472W        W 8433   2.635   6.464  16.740
 4473W        W 8434   2.938   6.808  16.448
 4474W        W 8435   2.157   6.610  14.876
 4475W        W 8436   0.167   6.502  17.718
 4476W        W 8437   0.910   4.494  16.956
 4477W        W 8438   0.880   3.842  16.066
 4478W        W 8439   2.501   4.684  16.758
 4479W        W 8440   1.299   5.855  14.958
 4480W        W 8441   3.297   5.797  16.457
 4481W        W 8442   0.624   6.555  17.880
 4482W        W 8443   3.011   7.237  15.677
 4483W        W 8444   1.110   4.257  16.122
 4484W        W 8445   0.879   5.750  16.212
 4485W        W 8446   1.192   7.161  16.962
 4486W        W 8447   3.259   7.257  17.994
 4487W        W 8448   2.418   5.445  16.927
 4488W        W 8449   0.267   5.243  14.842
 4489W        W 8450   3.401   6.901  15.539
 4490W        W 8451   3.238   4.225  15.158
 4491W        W 8452   1.377   3.744  17.561
 4492W        W 8453   3.083   6.546  16.019
 4493W        W 8454   3.112   5.102  15.924
 4494W        W 8455   1.229   4.775  16.140
 4495W        W 8456   1.474   5.037  17.464
 4496W        W 8457   2.585   6.190  17.327
 4497W        W 8458   1.235   4.644  17.439
 4498W        W 8459   1.214   7.110  16.055
 4499W        W 8460   0.531   7.069  17.689
 4500W        W 8461   0.643   6.430  14.819
 4501W        W 8462   3.160   6.188  15.629
 4502W        W 8463   0.764   4.980  17.515
 4503W        W 8464   3.537   4.910  14.996
 4504W        W 8465   1.282   5.967  15.467
 4505W        W 8466   2.381   5.349  17.548
 4506W        W 8467   2.272   4.977  17.092
 4507W        W 8468   0.832   5.349  17.121
 4508W        W 8469   3.042   7.237  16.950
 4509W        W 8470   2.833   3.871  17.944
 4510W        W 8471   0.497   4.021  17.531
 4511W        W 8472   0.836   5.044  16.584
 4512W        W 8473   1.205   4.858  14.706
 4513W        W 8474   0.008   6.617  17.251
 4514W        W 8475   1.593   5.326  16.694
 4515W        W 8476   0.551   5.167  15.580
 4516W        W 8477   0.322   7.019  17.017
 4517W        W 8478   3.117   5.245  15.125
 4518W        W 8479   3.212   4.161  17.811
 4519W        W 8480   2.648   6.370  15.774
 4520W        W 8481   0.246   5.294  17.951
 4521W        W 8482   3.212   3.758  15.247
 4522W        W 8483   2.732   6.233  15.258
 4523W        W 8484   1.634   5.291  15.343
 4524W        W 8485   2.821   4.095  14.866
 4525W        W 8486   2.886   4.702  17.052
 4526W        W 8487   0.595   5.295  16.259
 4527W        W 8488   0.889   6.234  15.908
 4528W        W 8489   2.652   4.854  15.873
 4529W        W 8490   1.675   4.233  16.569
 4530W        W 8491   3.637   6.144  17.080
 4531W        W 8492   3.555   4.131  16.641
 4532W        W 8493   0.094   6.961  16.017
 4533W        W 8494   0.603   6.148  15.553
 4534W        W 8495   0.518   3.765  18.106
 4535W        W 8496   1.637   6.618  18.208
 4536W        W 8497   3.392   5.586  15.998
 4537W        W 8498   2.746   5.763  14.878
 4538W        W 8499   2.041   7.284  17.090
 4539W        W 8500   2.898   6.006  18.127
 4540W        W 8501   1.713   3.716  15.407
 4541W        W 8502   2.426   4.585  16.266
 4542W        W 8503   0.112   6.172  16.598
 4543W        W 8504   1.169   5.618  18.088
 4544W        W 8505   2.163   4.599  15.802
 4545W        W 8506   2.368   6.009  16.924
 4546W        W 8507   0.522   6.614  17.359
 4547W        W 8508   1.113   6.597  18.082
 4548W        W 8509   0.964   4.394  15.096
 4549W        W 8510   2.481   4.536  15.421
 4550W        W 8511   2.439   6.644  17.658
 4551W        W 8512   1.124   5.236  16.257
 4552W        W 8513   0.779   6.934  17.122
 4553W        W 8514   3.524   7.051  14.723
 4554W        W 8515   0.387   5.723  17.719
 4555W        W 8516   2.382   5.985  16.407
 4556W        W 8517   0.818   5.634  15.649
 4557W        W 8518   1.189   6.641  17.044
 4558W        W 8519   1.567   4.060  16.085
 4559W        W 8520   0.178   6.044  15.015
 4560W        W 8521   1.697   4.995  14.885
 4561W        W 8522   0.343   5.544  15.904
 4562W        W 8523   1.633   4.186  17.368
 4563W        W 8524   3.305   3.895  14.795
 4564W        W 8525   3.398   5.641  17.894
 4565W        W 8526   2.052   6.898  18.046
 4566W        W 8527   3.610   5.992  17.568
 4567W        W 8528   3.018   6.790  18.179
 4568W        W 8529   0.757   7.246  16.657
 4569W        W 8530   3.616   5.868  15.531
 4570W        W 8531   2.146   5.135  16.044
 4571W        W 8532   1.913   3.747  15.934
 4572W        W 8533   0.972   6.731  15.771
 4573W        W 8534   1.471   4.472  16.996
 4574W        W 8535   1.171   3.841  16.465
 4575W        W 8536   0.234   6.663  15.013
 4576W        W 8537   2.050   6.027  15.731
 4577W        W 8538   0.925   6.822  17.610
 4578W        W 8539   0.402   5.645  15.306
 4579W        W 8540   0.287   4.188  16.305
 4580W        W 8541   1.835   6.153  16.362
 4581W        W 8542   0.087   4.007  15.382
 4582W        W 8543   2.751   5.213  17.309
 4583W        W 8544   2.628   4.599  14.881
 4584W        W 8545   3.145   6.271  16.529
 4585W        W 8546   1.806   6.755  16.360
 4586W        W 8547   1.218   6.859  15.271
 4587W        W 8548   2.500   3.762  14.701
 4588W        W 8549   0.300   7.022  16.442
 4589W        W 8550   2.497   4.780  18.077
 4590W        W 8551   0.480   4.310  18.076
 4591W        W 8552   0.211   4.910  15.409
 4592W        W 8553   0.902   4.899  15.134
 4593W        W 8554   2.665   5.226  17.951
 4594W        W 8555   1.008   5.507  16.660
 4595W        W 8556   2.482   3.793  15.780
 4596W        W 8557   1.613   7.224  16.283
 4597W        W 8558   2.827   6.686  17.220
 4598W        W 8559   2.411   6.835  16.331
 4599W        W 8560   2.430   5.815  15.925
 4600W        W 8561   3.573   3.668  15.718
 4601W        W 8562   1.261   5.303  14.881
 4602W        W 8563   3.427   4.640  15.871
 4603W        W 8564   2.119   5.810  14.748
 4604W        W 8565   3.055   6.010  17.496
 4605W        W 8566   2.709   6.711  14.963
 4606W        W 8567   1.324   4.386  17.869
 4607W        W 8568   1.144   4.970  17.110
 4608W        W 8569   3.236   6.465  17.387
 4609W        W 8570   2.336   4.415  17.764
 4610W        W 8571   0.180   4.886  17.541
 4611W        W 8572   1.940   5.363  17.267
 4612W        W 8573   0.297   6.121  15.924
 4613W        W 8574   0.444   5.418  16.814
 4614W        W 8575   2.761   5.704  17.164
 4615W        W 8576   2.533   7.084  17.975
 4616W        W 8577   2.429   4.823  17.528
 4617W        W 8578   2.706   6.877  15.933
 4618W        W 8579   1.708   6.597  17.256
 4619W        W 8580   1.193   6.952  16.525
 4620W        W 8581   2.998   6.123  16.944
 4621W        W 8582   2.048   6.195  18.081
 4622W        W 8583   0.653   6.148  16.420
 4623W        W 8584   2.999   5.907  16.065
 4624W        W 8585   2.640   6.973  16.816
 4625W        W 8586   0.618   6.702  16.686
 4626W        W 8587   1.639   4.754  17.896
 4627W        W 8588   2.090   6.920  15.407
 4628W        W 8589   1.398   6.175  18.045
 4629W        W 8590   1.524   6.413  15.422
 4630W        W 8591   0.745   5.153  14.681
 4631W        W 8592   0.084   7.239  21.580
 4632W        W 8593   0.460   6.132  21.103
 4633W        W 8594   3.165   5.862  18.873
 4634W        W 8595   3.295   6.947  20.900
 4635W        W 8596   1.213   6.938  18.426
 4636W        W 8597   1.296   5.090  19.409
 4637W        W 8598   0.811   4.938  19.573
 4638W        W 8599   1.802   5.753  19.007
 4639W        W 8600   1.477   6.845  21.362
 4640W        W 8601   0.126   4.406  21.325
 4641W        W 8602   0.888   3.686  21.127
 4642W        W 8603   2.582   4.074  20.014
 4643W        W 8604   2.231   4.945  18.584
 4644W        W 8605   2.801   4.379  21.675
 4645W        W 8606   0.167   4.171  20.800
 4646W        W 8607   0.266   6.790  21.821
 4647W        W 8608   1.788   6.180  18.553
 4648W        W 8609   0.220   4.963  20.246
 4649W        W 8610   1.113   4.854  21.483
 4650W        W 8611   3.572   4.713  19.982
 4651W        W 8612   3.336   5.756  20.841
 4652W        W 8613   1.644   5.089  19.868
 4653W        W 8614   2.190   6.428  20.237
 4654W        W 8615   0.690   5.862  20.469
 4655W        W 8616   0.049   5.390  20.040
 4656W        W 8617   1.085   5.362  21.232
 4657W        W 8618   3.356   5.145  21.486
 4658W        W 8619   0.972   6.589  19.931
 4659W        W 8620   2.093   6.278  21.065
 4660W        W 8621   1.313   4.918  20.290
 4661W        W 8622   1.605   5.702  19.933
 4662W        W 8623   2.602   6.475  21.781
 4663W        W 8624   1.681   5.795  21.791
 4664W        W 8625   1.662   5.511  21.269
 4665W        W 8626   0.071   4.902  21.791
 4666W        W 8627   2.903   6.437  21.390
 4667W        W 8628   0.484   4.019  19.388
 4668W        W 8629   1.011   6.277  20.387
 4669W        W 8630   3.474   6.060  19.677
 4670W        W 8631   2.887   4.460  20.244
 4671W        W 8632   3.172   4.413  18.339
 4672W        W 8633   3.637   5.214  20.645
 4673W        W 8634   1.604   6.921  20.398
 4674W        W 8635   3.378   6.387  18.836
 4675W        W 8636   0.507   7.173  18.590
 4676W        W 8637   0.900   7.219  19.266
 4677W        W 8638   0.697   3.973  20.692
 4678W        W 8639   3.320   4.991  20.967
 4679W        W 8640   2.725   5.413  19.426
 4680W        W 8641   2.691   5.101  18.453
 4681W        W 8642   1.899   6.245  20.593
 4682W        W 8643   1.705   4.575  19.792
 4683W        W 8644   2.305   6.662  20.786
 4684W        W 8645   3.176   5.453  19.208
 4685W        W 8646   2.078   4.111  19.224
 4686W        W 8647   0.735   6.805  18.907
 4687W        W 8648   0.106   4.304  19.506
 4688W        W 8649   2.892   4.911  19.980
 4689W        W 8650   0.350   6.528  19.895
 4690W        W 8651   1.691   6.878  18.765
 4691W        W 8652   3.083   4.904  18.229
 4692W        W 8653   0.106   6.662  20.393
 4693W        W 8654   0.897   6.234  20.873
 4694W        W 8655   1.270   5.594  19.492
 4695W        W 8656   1.292   3.999  20.585
 4696W        W 8657   3.521   3.761  19.882
 4697W        W 8658   0.740   5.633  18.350
 4698W        W 8659   0.395   4.666  18.529
 4699W        W 8660   0.457   6.622  19.323
 4700W        W 8661   1.588   6.105  19.571
 4701W        W 8662   2.920   6.964  21.285
 4702W        W 8663   1.846   4.606  18.969
 4703W        W 8664   3.229   7.004  19.741
 4704W        W 8665   2.906   4.857  21.339
 4705W        W 8666   3.619   6.513  19.473
 4706W        W 8667   2.246   5.805  20.957
 4707W        W 8668   0.012   5.356  19.163
 4708W        W 8669   1.123   5.771  20.736
 4709W        W 8670   2.327   5.035  19.114
 4710W        W 8671   2.204   5.525  19.218
 4711W        W 8672   0.547   4.945  20.692
 4712W        W 8673   0.532   4.821  21.614
 4713W        W 8674   0.422   3.738  19.773
 4714W        W 8675   2.190   4.085  20.334
 4715W        W 8676   1.838   4.270  21.497
 4716W        W 8677   2.193   4.419  18.675
 4717W        W 8678   3.376   6.812  21.429
 4718W        W 8679   2.343   3.893  21.468
 4719W        W 8680   3.362   6.194  21.590
 4720W        W 8681   2.792   4.361  21.186
 4721W        W 8682   2.592   4.299  19.456
 4722W        W 8683   2.985   5.433  21.860
 4723W        W 8684   0.725   7.009  19.846
 4724W        W 8685   1.383   4.726  18.832
 4725W        W 8686   0.952   4.010  21.496
 4726W        W 8687   3.004   4.494  19.177
 4727W        W 8688   3.371   4.976  19.122
 4728W        W 8689   1.114   7.193  21.593
 4729W        W 8690   1.040   3.729  18.828
 4730W        W 8691   3.361   4.263  19.863
 4731W        W 8692   0.418   5.715  20.010
 4732W        W 8693   2.335   4.302  18.240
 4733W        W 8694   3.469   6.634  19.960
 4734W        W 8695   3.508   3.828  20.710
 4735W        W 8696   1.953   5.040  21.264
 4736W        W 8697   2.046   6.379  18.967
 4737W        W 8698   2.446   5.673  21.707
 4738W        W 8699   2.120   3.650  20.016
 4739W        W 8700   0.732   4.553  20.079
 4740W        W 8701   0.286   5.753  20.853
 4741W        W 8702   2.145   6.946  19.559
 4742W        W 8703   3.339   4.543  20.431
 4743W        W 8704   1.976   6.890  21.198
 4744W        W 8705   3.319   5.949  18.403
 4745W        W 8706   1.754   5.432  19.464
 4746W        W 8707   3.606   3.943  21.205
 4747W        W 8708   1.755   5.778  20.799
 4748W        W 8709   1.972   4.664  20.244
 4749W        W 8710   2.824   4.962  19.082
 4750W        W 8711   3.111   4.695  18.724
 4751W        W 8712   2.920   6.735  19.113
 4752W        W 8713   2.754   6.338  19.909
 4753W        W 8714   2.650   5.417  18.887
 4754W        W 8715   2.083   5.627  19.873
 4755W        W 8716   2.964   5.415  19.940
 4756W        W 8717   0.339   4.430  20.364
 4757W        W 8718   3.117   5.482  21.191
 4758W        W 8719   3.468   7.100  20.337
 4759W        W 8720   1.398   6.544  19.739
 4760W        W 8721   2.405   7.077  21.063
 4761W        W 8722   2.399   4.407  20.827
 4762W        W 8723   1.606   7.115  20.888
 4763W        W 8724   3.303   4.069  19.354
 4764W        W 8725   3.094   5.388  20.655
 4765W        W 8726   0.077   4.709  20.693
 4766W        W 8727   2.937   4.504  19.711
 4767W        W 8728   3.348   4.655  21.488
 4768W        W 8729   2.233   6.354  19.706
 4769W        W 8730   1.489   6.945  19.319
 4770W        W 8731   0.604   4.125  18.577
 4771W        W 8732   1.708   3.779  20.387
 4772W        W 8733   0.736   6.899  18.235
 4773W        W 8734   1.110   5.365  18.986
 4774W        W 8735   1.764   5.994  21.299
 4775W        W 8736   1.594   4.352  19.289
 4776W        W 8737   2.950   3.949  19.717
 4777W        W 8738   2.670   7.231  20.045
 4778W        W 8739   2.082   6.879  20.385
 4779W        W 8740   1.478   5.916  20.346
 4780W        W 8741   3.248   6.639  20.472
 4781W        W 8742   0.942   4.142  19.241
 4782W        W 8743   1.464   6.439  20.201
 4783W        W 8744   0.947   4.370  18.266
 4784W        W 8745   1.748   4.979  20.660
 4785W        W 8746   2.596   3.845  20.530
 4786W        W 8747   0.016   5.688  20.415
 4787W        W 8748   1.720   5.506  18.573
 4788W        W 8749   0.988   3.821  18.343
 4789W        W 8750   1.726   4.902  19.394
 4790W        W 8751   2.696   3.878  21.093
 4791W        W 8752   1.284   5.890  21.202
 4792W        W 8753   2.088   5.672  21.419
 4793W        W 8754   2.705   5.702  21.312
 4794W        W 8755   1.989   3.842  21.817
 4795W        W 8756   1.211   4.458  20.210
 4796W        W 8757   0.637   4.414  19.608
 4797W        W 8758   0.423   7.126  19.284
 4798W        W 8759   1.755   6.456  21.409
 4799W        W 8760   0.790   5.941  18.768
 4800W        W 8761   2.470   5.326  19.989
 4801W        W 8762   2.750   5.125  20.388
 4802W        W 8763   1.955   5.799  20.322
 4803W        W 8764   2.425   6.173  18.454
 4804W        W 8765   2.097   4.194  19.782
 4805W        W 8766   3.576   4.472  19.050
 4806W        W 8767   0.070   7.061  21.081
 4807W        W 8768   0.487   6.287  20.613
 4808W        W 8769   0.054   7.133  18.845
 4809W        W 8770   1.953   4.403  20.651
 4810W        W 8771   1.316   6.426  18.500
 4811W        W 8772   3.221   6.808  18.686
 4812W        W 8773   2.196   5.461  18.700
 4813W        W 8774   1.039   4.652  19.217
 4814W        W 8775   1.871   4.562  18.269
 4815W        W 8776   2.455   6.127  21.447
 4816W        W 8777   2.808   4.033  19.064
 4817W        W 8778   0.138   3.881  18.512
 4818W        W 8779   1.424   6.200  20.802
 4819W        W 8780   1.223   6.116  19.894
 4820W        W 8781   0.965   6.068  18.292
 4821W        W 8782   0.206   6.309  19.060
 4822W        W 8783   0.710   5.379  21.502
 4823W        W 8784   1.414   3.939  21.688
 4824W        W 8785   2.123   4.081  21.044
 4825W        W 8786   1.318   3.849  19.325
 4826W        W 8787   2.377   3.926  18.830
 4827W        W 8788   0.322   3.858  20.407
 4828W        W 8789   0.370   4.821  19.777
 4829W        W 8790   3.059   3.929  20.183
 4830W        W 8791   0.481   4.427  18.997
 4831W        W 8792   3.052   4.115  20.613
 4832W        W 8793   3.448   5.318  18.298
 4833W        W 8794   0.740   4.076  20.117
 4834W        W 8795   1.854   4.648  21.057
 4835W        W 8796   0.002   4.338  18.535
 4836W        W 8797   0.788   5.727  21.096
 4837W        W 8798   2.146   5.125  20.275
 4838W        W 8799   2.013   7.204  18.571
 4839W        W 8800   0.159   5.711  18.268
 4840W        W 8801   0.894   6.122  21.394
 4841W        W 8802   0.415   5.289  21.025
 4842W        W 8803   1.406   5.394  20.819
 4843W        W 8804   3.174   3.753  21.081
 4844W        W 8805   3.572   5.363  21.072
 4845W        W 8806   3.560   5.563  18.758
 4846W        W 8807   2.423   5.895  18.857
 4847W        W 8808   2.897   7.195  18.552
 4848W        W 8809   2.074   5.185  21.694
 4849W        W 8810   0.404   6.152  21.734
 4850W        W 8811   3.610   4.074  21.686
 4851W        W 8812   3.328   5.002  20.307
 4852W        W 8813   1.636   7.132  21.784
 4853W        W 8814   1.491   3.761  18.511
 4854W        W 8815   3.030   6.360  18.454
 4855W        W 8816   0.799   4.453  21.340
 4856W        W 8817   1.233   6.447  21.202
 4857W        W 8818   3.359   4.438  21.000
 4858W        W 8819   2.570   7.097  18.968
 4859W        W 8820   2.809   5.716  20.335
 4860W        W 8821   1.059   4.132  21.002
 4861W        W 8822   1.528   5.201  21.759
 4862W        W 8823   1.031   6.380  18.953
 4863W        W 8824   2.786   5.878  19.217
 4864W        W 8825   0.554   4.504  20.941
 4865W        W 8826   1.883   6.566  19.405
 4866W        W 8827   3.633   5.126  19.586
 4867W        W 8828   1.855   3.759  21.305
 4868W        W 8829   2.635   6.464  20.384
 4869W        W 8830   2.938   6.808  20.092
 4870W        W 8831   2.157   6.610  18.520
 4871W        W 8832   0.167   6.502  21.362
 4872W        W 8833   0.910   4.494  20.600
 4873W        W 8834   0.880   3.842  19.710
 4874W        W 8835   2.501   4.684  20.402
 4875W        W 8836   1.299   5.855  18.602
 4876W        W 8837   3.297   5.797  20.101
 4877W        W 8838   0.624   6.555  21.524
 4878W        W 8839   3.011   7.237  19.321
 4879W        W 8840   1.110   4.257  19.766
 4880W        W 8841   0.879   5.750  19.856
 4881W        W 8842   1.192   7.161  20.606
 4882W        W 8843   3.259   7.257  21.638
 4883W        W 8844   2.418   5.445  20.571
 4884W        W 8845   0.267   5.243  18.486
 4885W        W 8846   3.401   6.901  19.183
 4886W        W 8847   3.238   4.225  18.802
 4887W        W 8848   1.377   3.744  21.205
 4888W        W 8849   3.083   6.546  19.663
 4889W        W 8850   3.112   5.102  19.568
 4890W        W 8851   1.229   4.775  19.784
 4891W        W 8852   1.474   5.037  21.108
 4892W        W 8853   2.585   6.190  20.971
 4893W        W 8854   1.235   4.644  21.083
 4894W        W 8855   1.214   7.110  19.699
 4895W        W 8856   0.531   7.069  21.333
 4896W        W 8857   0.643   6.430  18.463
 4897W        W 8858   3.160   6.188  19.273
 4898W        W 8859   0.764   4.980  21.159
 4899W        W 8860   3.537   4.910  18.640
 4900W        W 8861   1.282   5.967  19.111
 4901W        W 8862   2.381   5.349  21.192
 4902W        W 8863   2.272   4.977  20.736
 4903W        W 8864   0.832   5.349  20.765
 4904W        W 8865   3.042   7.237  20.594
 4905W        W 8866   2.833   3.871  21.588
 4906W        W 8867   0.497   4.021  21.175
 4907W        W 8868   0.836   5.044  20.228
 4908W        W 8869   1.205   4.858  18.350
 4909W        W 8870   0.008   6.617  20.895
 4910W        W 8871   1.593   5.326  20.338
 4911W        W 8872   1.416   4.351  18.443
 4912W        W 8873   0.551   5.167  19.224
 4913W        W 8874   0.322   7.019  20.661
 4914W        W 8875   3.117   5.245  18.769
 4915W        W 8876   3.212   4.161  21.455
 4916W        W 8877   2.648   6.370  19.418
 4917W        W 8878   0.246   5.294  21.595
 4918W        W 8879   3.212   3.758  18.891
 4919W        W 8880   2.732   6.233  18.902
 4920W        W 8881   1.634   5.291  18.987
 4921W        W 8882   2.821   4.095  18.510
 4922W        W 8883   2.886   4.702  20.696
 4923W        W 8884   0.595   5.295  19.903
 4924W        W 8885   0.889   6.234  19.552
 4925W        W 8886   2.652   4.854  19.517
 4926W        W 8887   1.675   4.233  20.213
 4927W        W 8888   3.637   6.144  20.724
 4928W        W 8889   3.555   4.131  20.285
 4929W        W 8890   0.094   6.961  19.661
 4930W        W 8891   0.603   6.148  19.197
 4931W        W 8892   0.518   3.765  21.750
 4932W        W 8893   1.637   6.618  21.852
 4933W        W 8894   3.392   5.586  19.642
 4934W        W 8895   2.746   5.763  18.522
 4935W        W 8896   2.041   7.284  20.734
 4936W        W 8897   2.898   6.006  21.771
 4937W        W 8898   1.713   3.716  19.051
 4938W        W 8899   2.426   4.585  19.910
 4939W        W 8900   0.112   6.172  20.242
 4940W        W 8901   1.365   4.134  18.883
 4941W        W 8902   1.169   5.618  21.732
 4942W        W 8903   2.163   4.599  19.446
 4943W        W 8904   2.368   6.009  20.568
 4944W        W 8905   0.522   6.614  21.003
 4945W        W 8906   1.113   6.597  21.726
 4946W        W 8907   0.964   4.394  18.740
 4947W        W 8908   2.481   4.536  19.065
 4948W        W 8909   2.439   6.644  21.302
 4949W        W 8910   1.124   5.236  19.901
 4950W        W 8911   0.779   6.934  20.766
 4951W        W 8912   3.524   7.051  18.367
 4952W        W 8913   0.387   5.723  21.363
 4953W        W 8914   2.382   5.985  20.051
 4954W        W 8915   0.818   5.634  19.293
 4955W        W 8916   1.189   6.641  20.688
 4956W        W 8917   1.567   4.060  19.729
 4957W        W 8918   0.178   6.044  18.659
 4958W        W 8919   1.697   4.995  18.529
 4959W        W 8920   0.343   5.544  19.548
 4960W        W 8921   1.633   4.186  21.012
 4961W        W 8922   3.305   3.895  18.439
 4962W        W 8923   3.398   5.641  21.538
 4963W        W 8924   2.052   6.898  21.690
 4964W        W 8925   3.610   5.992  21.212
 4965W        W 8926   3.018   6.790  21.823
 4966W        W 8927   0.757   7.246  20.301
 4967W        W 8928   3.616   5.868  19.175
 4968W        W 8929   2.146   5.135  19.688
 4969W        W 8930   1.913   3.747  19.578
 4970W        W 8931   0.972   6.731  19.415
 4971W        W 8932   1.471   4.472  20.640
 4972W        W 8933   1.171   3.841  20.109
 4973W        W 8934   0.234   6.663  18.657
 4974W        W 8935   2.050   6.027  19.375
 4975W        W 8936   0.925   6.822  21.254
 4976W        W 8937   0.402   5.645  18.950
 4977W        W 8938   0.287   4.188  19.949
 4978W        W 8939   1.835   6.153  20.006
 4979W        W 8940   0.087   4.007  19.026
 4980W        W 8941   2.751   5.213  20.953
 4981W        W 8942   2.628   4.599  18.525
 4982W        W 8943   3.145   6.271  20.173
 4983W        W 8944   1.806   6.755  20.004
 4984W        W 8945   1.218   6.859  18.915
 4985W        W 8946   2.500   3.762  18.345
 4986W        W 8947   0.300   7.022  20.086
 4987W        W 8948   2.497   4.780  21.721
 4988W        W 8949   0.480   4.310  21.720
 4989W        W 8950   0.211   4.910  19.053
 4990W        W 8951   0.902   4.899  18.778
 4991W        W 8952   2.665   5.226  21.595
 4992W        W 8953   1.008   5.507  20.304
 4993W        W 8954   2.482   3.793  19.424
 4994W        W 8955   1.613   7.224  19.927
 4995W        W 8956   2.827   6.686  20.864
 4996W        W 8957   2.411   6.835  19.975
 4997W        W 8958   2.430   5.815  19.569
 4998W        W 8959   1.892   4.040  18.640
 4999W        W 8960   3.573   3.668  19.362
 5000W        W 8961   1.261   5.303  18.525
 5001W        W 8962   3.427   4.640  19.515
 5002W        W 8963   2.119   5.810  18.392
 5003W        W 8964   3.055   6.010  21.140
 5004W        W 8965   2.709   6.711  18.607
 5005W        W 8966   1.324   4.386  21.513
 5006W        W 8967   1.144   4.970  20.754
 5007W        W 8968   3.236   6.465  21.031
 5008W        W 8969   2.336   4.415  21.408
 5009W        W 8970   0.180   4.886  21.185
 5010W        W 8971   1.940   5.363  20.911
 5011W        W 8972   0.297   6.121  19.568
 5012W        W 8973   0.444   5.418  20.458
 5013W        W 8974   2.761   5.704  20.808
 5014W        W 8975   2.533   7.084  21.619
 5015W        W 8976   2.429   4.823  21.172
 5016W        W 8977   2.706   6.877  19.577
 5017W        W 8978   1.708   6.597  20.900
 5018W        W 8979   1.193   6.952  20.169
 5019W        W 8980   2.998   6.123  20.588
 5020W        W 8981   2.048   6.195  21.725
 5021W        W 8982   0.653   6.148  20.064
 5022W        W 8983   2.999   5.907  19.709
 5023W        W 8984   2.640   6.973  20.460
 5024W        W 8985   0.618   6.702  20.330
 5025W        W 8986   1.639   4.754  21.540
 5026W        W 8987   2.090   6.920  19.051
 5027W        W 8988   1.398   6.175  21.689
 5028W        W 8989   1.524   6.413  19.066
 5029W        W 8990   0.745   5.153  18.325
 5030W        W 8991   3.165   5.862  22.518
 5031W        W 8992   1.213   6.938  22.071
 5032W        W 8993   1.296   5.090  23.054
 5033W        W 8994   0.811   4.938  23.218
 5034W        W 8995   1.802   5.753  22.652
 5035W        W 8996   2.231   4.945  22.229
 5036W        W 8997   1.788   6.180  22.198
 5037W        W 8998   0.484   4.019  23.033
 5038W        W 8999   3.172   4.413  21.984
 5039W        W 9000   3.378   6.387  22.481
 5040W        W 9001   0.507   7.173  22.235
 5041W        W 9002   0.900   7.219  22.911
 5042W        W 9003   2.725   5.413  23.071
 5043W        W 9004   2.691   5.101  22.098
 5044W        W 9005   3.176   5.453  22.853
 5045W        W 9006   2.078   4.111  22.869
 5046W        W 9007   0.735   6.805  22.552
 5047W        W 9008   1.691   6.878  22.410
 5048W        W 9009   3.083   4.904  21.874
 5049W        W 9010   1.270   5.594  23.137
 5050W        W 9011   0.740   5.633  21.995
 5051W        W 9012   0.395   4.666  22.174
 5052W        W 9013   0.457   6.622  22.968
 5053W        W 9014   1.588   6.105  23.216
 5054W        W 9015   1.846   4.606  22.614
 5055W        W 9016   0.012   5.356  22.808
 5056W        W 9017   2.327   5.035  22.759
 5057W        W 9018   2.204   5.525  22.863
 5058W        W 9019   2.193   4.419  22.320
 5059W        W 9020   2.592   4.299  23.101
 5060W        W 9021   1.383   4.726  22.477
 5061W        W 9022   3.004   4.494  22.822
 5062W        W 9023   3.371   4.976  22.767
 5063W        W 9024   1.040   3.729  22.473
 5064W        W 9025   3.511   6.512  21.953
 5065W        W 9026   2.335   4.302  21.885
 5066W        W 9027   2.046   6.379  22.612
 5067W        W 9028   2.145   6.946  23.204
 5068W        W 9029   3.319   5.949  22.048
 5069W        W 9030   1.754   5.432  23.109
 5070W        W 9031   2.824   4.962  22.727
 5071W        W 9032   3.111   4.695  22.369
 5072W        W 9033   2.920   6.735  22.758
 5073W        W 9034   2.650   5.417  22.532
 5074W        W 9035   3.303   4.069  22.999
 5075W        W 9036   1.489   6.945  22.964
 5076W        W 9037   0.604   4.125  22.222
 5077W        W 9038   0.736   6.899  21.880
 5078W        W 9039   1.110   5.365  22.631
 5079W        W 9040   1.594   4.352  22.934
 5080W        W 9041   0.942   4.142  22.886
 5081W        W 9042   0.947   4.370  21.911
 5082W        W 9043   1.720   5.506  22.218
 5083W        W 9044   0.988   3.821  21.988
 5084W        W 9045   1.726   4.902  23.039
 5085W        W 9046   0.637   4.414  23.253
 5086W        W 9047   0.423   7.126  22.929
 5087W        W 9048   0.790   5.941  22.413
 5088W        W 9049   2.425   6.173  22.099
 5089W        W 9050   3.576   4.472  22.695
 5090W        W 9051   0.054   7.133  22.490
 5091W        W 9052   1.316   6.426  22.145
 5092W        W 9053   3.221   6.808  22.331
 5093W        W 9054   2.196   5.461  22.345
 5094W        W 9055   1.039   4.652  22.862
 5095W        W 9056   1.871   4.562  21.914
 5096W        W 9057   2.808   4.033  22.709
 5097W        W 9058   0.138   3.881  22.157
 5098W        W 9059   0.965   6.068  21.937
 5099W        W 9060   0.206   6.309  22.705
 5100W        W 9061   1.318   3.849  22.970
 5101W        W 9062   2.377   3.926  22.475
 5102W        W 9063   0.481   4.427  22.642
 5103W        W 9064   3.448   5.318  21.943
 5104W        W 9065   0.002   4.338  22.180
 5105W        W 9066   2.013   7.204  22.216
 5106W        W 9067   0.159   5.711  21.913
 5107W        W 9068   3.560   5.563  22.403
 5108W        W 9069   2.423   5.895  22.502
 5109W        W 9070   2.897   7.195  22.197
 5110W        W 9071   1.491   3.761  22.156
 5111W        W 9072   3.030   6.360  22.099
 5112W        W 9073   2.570   7.097  22.613
 5113W        W 9074   1.031   6.380  22.598
 5114W        W 9075   2.786   5.878  22.862
 5115W        W 9076   1.883   6.566  23.050
 5116W        W 9077   3.633   5.126  23.231
 5117W        W 9078   2.157   6.610  22.165
 5118W        W 9079   1.299   5.855  22.247
 5119W        W 9080   3.011   7.237  22.966
 5120W        W 9081   0.267   5.243  22.131
 5121W        W 9082   3.401   6.901  22.828
 5122W        W 9083   3.238   4.225  22.447
 5123W        W 9084   3.112   5.102  23.213
 5124W        W 9085   0.643   6.430  22.108
 5125W        W 9086   3.160   6.188  22.918
 5126W        W 9087   3.537   4.910  22.285
 5127W        W 9088   1.282   5.967  22.756
 5128W        W 9089   1.205   4.858  21.995
 5129W        W 9090   1.416   4.351  22.088
 5130W        W 9091   0.551   5.167  22.869
 5131W        W 9092   3.117   5.245  22.414
 5132W        W 9093   2.648   6.370  23.063
 5133W        W 9094   3.212   3.758  22.536
 5134W        W 9095   2.732   6.233  22.547
 5135W        W 9096   1.634   5.291  22.632
 5136W        W 9097   2.821   4.095  22.155
 5137W        W 9098   0.889   6.234  23.197
 5138W        W 9099   2.652   4.854  23.162
 5139W        W 9100   0.094   6.961  23.306
 5140W        W 9101   0.603   6.148  22.842
 5141W        W 9102   3.392   5.586  23.287
 5142W        W 9103   2.746   5.763  22.167
 5143W        W 9104   1.713   3.716  22.696
 5144W        W 9105   1.365   4.134  22.528
 5145W        W 9106   2.163   4.599  23.091
 5146W        W 9107   0.964   4.394  22.385
 5147W        W 9108   2.481   4.536  22.710
 5148W        W 9109   3.524   7.051  22.012
 5149W        W 9110   0.178   6.044  22.304
 5150W        W 9111   1.697   4.995  22.174
 5151W        W 9112   0.343   5.544  23.193
 5152W        W 9113   3.305   3.895  22.084
 5153W        W 9114   3.616   5.868  22.820
 5154W        W 9115   1.913   3.747  23.223
 5155W        W 9116   0.972   6.731  23.060
 5156W        W 9117   0.234   6.663  22.302
 5157W        W 9118   2.050   6.027  23.020
 5158W        W 9119   0.402   5.645  22.595
 5159W        W 9120   0.087   4.007  22.671
 5160W        W 9121   2.628   4.599  22.170
 5161W        W 9122   1.218   6.859  22.560
 5162W        W 9123   2.500   3.762  21.990
 5163W        W 9124   0.211   4.910  22.698
 5164W        W 9125   0.902   4.899  22.423
 5165W        W 9126   2.430   5.815  23.214
 5166W        W 9127   1.892   4.040  22.285
 5167W        W 9128   3.573   3.668  23.007
 5168W        W 9129   1.261   5.303  22.170
 5169W        W 9130   3.427   4.640  23.160
 5170W        W 9131   2.119   5.810  22.037
 5171W        W 9132   2.709   6.711  22.252
 5172W        W 9133   0.297   6.121  23.213
 5173W        W 9134   2.706   6.877  23.222
 5174W        W 9135   2.090   6.920  22.696
 5175W        W 9136   1.524   6.413  22.711
 5176W        W 9137   0.745   5.153  21.970
 5177W        W 9138   0.084  10.884   3.359
 5178W        W 9139   0.460   9.777   2.882
 5179W        W 9140   3.165   9.507   0.652
 5180W        W 9141   3.295  10.592   2.679
 5181W        W 9142   1.213  10.583   0.205
 5182W        W 9143   1.296   8.735   1.188
 5183W        W 9144   0.811   8.583   1.352
 5184W        W 9145   1.802   9.398   0.786
 5185W        W 9146   1.477  10.490   3.141
 5186W        W 9147   0.126   8.051   3.104
 5187W        W 9148   0.888   7.331   2.906
 5188W        W 9149   2.582   7.719   1.793
 5189W        W 9150   2.231   8.590   0.363
 5190W        W 9151   2.801   8.024   3.454
 5191W        W 9152   0.167   7.816   2.579
 5192W        W 9153   0.266  10.435   3.600
 5193W        W 9154   1.788   9.825   0.332
 5194W        W 9155   0.220   8.608   2.025
 5195W        W 9156   1.113   8.499   3.262
 5196W        W 9157   3.572   8.358   1.761
 5197W        W 9158   3.336   9.401   2.620
 5198W        W 9159   1.644   8.734   1.647
 5199W        W 9160   2.190  10.073   2.016
 5200W        W 9161   0.690   9.507   2.248
 5201W        W 9162   0.049   9.035   1.819
 5202W        W 9163   1.085   9.007   3.011
 5203W        W 9164   3.356   8.790   3.265
 5204W        W 9165   0.972  10.234   1.710
 5205W        W 9166   2.093   9.923   2.844
 5206W        W 9167   1.313   8.563   2.069
 5207W        W 9168   1.605   9.347   1.712
 5208W        W 9169   2.602  10.120   3.560
 5209W        W 9170   1.681   9.440   3.570
 5210W        W 9171   1.662   9.156   3.048
 5211W        W 9172   0.071   8.547   3.570
 5212W        W 9173   2.903  10.082   3.169
 5213W        W 9174   0.484   7.664   1.167
 5214W        W 9175   1.011   9.922   2.166
 5215W        W 9176   3.474   9.705   1.456
 5216W        W 9177   2.887   8.105   2.023
 5217W        W 9178   3.172   8.058   0.118
 5218W        W 9179   3.637   8.859   2.424
 5219W        W 9180   1.604  10.566   2.177
 5220W        W 9181   3.378  10.032   0.615
 5221W        W 9182   0.507  10.818   0.369
 5222W        W 9183   0.900  10.864   1.045
 5223W        W 9184   0.697   7.618   2.471
 5224W        W 9185   3.320   8.636   2.746
 5225W        W 9186   2.725   9.058   1.205
 5226W        W 9187   2.691   8.746   0.232
 5227W        W 9188   1.899   9.890   2.372
 5228W        W 9189   1.705   8.220   1.571
 5229W        W 9190   2.305  10.307   2.565
 5230W        W 9191   3.176   9.098   0.987
 5231W        W 9192   2.078   7.756   1.003
 5232W        W 9193   0.735  10.450   0.686
 5233W        W 9194   0.106   7.949   1.285
 5234W        W 9195   2.892   8.556   1.759
 5235W        W 9196   0.350  10.173   1.674
 5236W        W 9197   1.691  10.523   0.544
 5237W        W 9198   3.083   8.549   0.008
 5238W        W 9199   0.106  10.307   2.172
 5239W        W 9200   0.897   9.879   2.652
 5240W        W 9201   1.270   9.239   1.271
 5241W        W 9202   1.292   7.644   2.364
 5242W        W 9203   3.521   7.406   1.661
 5243W        W 9204   0.740   9.278   0.129
 5244W        W 9205   0.395   8.311   0.308
 5245W        W 9206   0.457  10.267   1.102
 5246W        W 9207   1.588   9.750   1.350
 5247W        W 9208   2.920  10.609   3.064
 5248W        W 9209   1.846   8.251   0.748
 5249W        W 9210   3.229  10.649   1.520
 5250W        W 9211   2.906   8.502   3.118
 5251W        W 9212   3.619  10.158   1.252
 5252W        W 9213   2.246   9.450   2.736
 5253W        W 9214   0.012   9.001   0.942
 5254W        W 9215   1.123   9.416   2.515
 5255W        W 9216   2.327   8.680   0.893
 5256W        W 9217   2.204   9.170   0.997
 5257W        W 9218   0.547   8.590   2.471
 5258W        W 9219   0.532   8.466   3.393
 5259W        W 9220   0.422   7.383   1.552
 5260W        W 9221   2.190   7.730   2.113
 5261W        W 9222   1.838   7.915   3.276
 5262W        W 9223   2.193   8.064   0.454
 5263W        W 9224   3.376  10.457   3.208
 5264W        W 9225   2.343   7.538   3.247
 5265W        W 9226   3.362   9.839   3.369
 5266W        W 9227   2.792   8.006   2.965
 5267W        W 9228   2.592   7.944   1.235
 5268W        W 9229   2.985   9.078   3.639
 5269W        W 9230   0.725  10.654   1.625
 5270W        W 9231   1.383   8.371   0.611
 5271W        W 9232   0.952   7.655   3.275
 5272W        W 9233   3.004   8.139   0.956
 5273W        W 9234   3.371   8.621   0.901
 5274W        W 9235   1.114  10.838   3.372
 5275W        W 9236   1.040   7.374   0.607
 5276W        W 9237   3.361   7.908   1.642
 5277W        W 9238   3.511  10.157   0.087
 5278W        W 9239   0.418   9.360   1.789
 5279W        W 9240   2.335   7.947   0.019
 5280W        W 9241   3.469  10.279   1.739
 5281W        W 9242   3.508   7.473   2.489
 5282W        W 9243   1.953   8.685   3.043
 5283W        W 9244   2.046  10.024   0.746
 5284W        W 9245   2.446   9.318   3.486
 5285W        W 9246   2.120   7.295   1.795
 5286W        W 9247   0.732   8.198   1.858
 5287W        W 9248   0.286   9.398   2.632
 5288W        W 9249   2.145  10.591   1.338
 5289W        W 9250   3.339   8.188   2.210
 5290W        W 9251   1.976  10.535   2.977
 5291W        W 9252   3.319   9.594   0.182
 5292W        W 9253   1.754   9.077   1.243
 5293W        W 9254   3.606   7.588   2.984
 5294W        W 9255   1.755   9.423   2.578
 5295W        W 9256   1.972   8.309   2.023
 5296W        W 9257   2.824   8.607   0.861
 5297W        W 9258   3.111   8.340   0.503
 5298W        W 9259   2.920  10.380   0.892
 5299W        W 9260   2.754   9.983   1.688
 5300W        W 9261   2.650   9.062   0.666
 5301W        W 9262   2.083   9.272   1.652
 5302W        W 9263   2.964   9.060   1.719
 5303W        W 9264   0.339   8.075   2.143
 5304W        W 9265   3.117   9.127   2.970
 5305W        W 9266   3.468  10.745   2.116
 5306W        W 9267   1.398  10.189   1.518
 5307W        W 9268   2.405  10.722   2.842
 5308W        W 9269   2.399   8.052   2.606
 5309W        W 9270   1.606  10.760   2.667
 5310W        W 9271   3.303   7.714   1.133
 5311W        W 9272   3.094   9.033   2.434
 5312W        W 9273   0.077   8.354   2.472
 5313W        W 9274   2.937   8.149   1.490
 5314W        W 9275   3.348   8.300   3.267
 5315W        W 9276   2.233   9.999   1.485
 5316W        W 9277   1.489  10.590   1.098
 5317W        W 9278   0.604   7.770   0.356
 5318W        W 9279   1.708   7.424   2.166
 5319W        W 9280   0.736  10.544   0.014
 5320W        W 9281   1.110   9.010   0.765
 5321W        W 9282   1.764   9.639   3.078
 5322W        W 9283   1.594   7.997   1.068
 5323W        W 9284   2.950   7.594   1.496
 5324W        W 9285   2.670  10.876   1.824
 5325W        W 9286   2.082  10.524   2.164
 5326W        W 9287   1.478   9.561   2.125
 5327W        W 9288   3.248  10.284   2.251
 5328W        W 9289   0.942   7.787   1.020
 5329W        W 9290   1.464  10.084   1.980
 5330W        W 9291   0.947   8.015   0.045
 5331W        W 9292   1.748   8.624   2.439
 5332W        W 9293   2.596   7.490   2.309
 5333W        W 9294   0.016   9.333   2.194
 5334W        W 9295   1.720   9.151   0.352
 5335W        W 9296   0.988   7.466   0.122
 5336W        W 9297   1.726   8.547   1.173
 5337W        W 9298   2.696   7.523   2.872
 5338W        W 9299   1.284   9.535   2.981
 5339W        W 9300   2.088   9.317   3.198
 5340W        W 9301   2.705   9.347   3.091
 5341W        W 9302   1.989   7.487   3.596
 5342W        W 9303   1.211   8.103   1.989
 5343W        W 9304   0.637   8.059   1.387
 5344W        W 9305   0.423  10.771   1.063
 5345W        W 9306   1.755  10.101   3.188
 5346W        W 9307   0.790   9.586   0.547
 5347W        W 9308   2.470   8.971   1.768
 5348W        W 9309   2.750   8.770   2.167
 5349W        W 9310   1.955   9.444   2.101
 5350W        W 9311   2.425   9.818   0.233
 5351W        W 9312   2.097   7.839   1.561
 5352W        W 9313   3.576   8.117   0.829
 5353W        W 9314   0.070  10.706   2.860
 5354W        W 9315   0.487   9.932   2.392
 5355W        W 9316   0.054  10.778   0.624
 5356W        W 9317   1.953   8.048   2.430
 5357W        W 9318   1.316  10.071   0.279
 5358W        W 9319   3.221  10.453   0.465
 5359W        W 9320   2.196   9.106   0.479
 5360W        W 9321   1.039   8.297   0.996
 5361W        W 9322   1.871   8.207   0.048
 5362W        W 9323   2.455   9.772   3.226
 5363W        W 9324   2.808   7.678   0.843
 5364W        W 9325   0.138   7.526   0.291
 5365W        W 9326   1.424   9.845   2.581
 5366W        W 9327   1.223   9.761   1.673
 5367W        W 9328   0.965   9.713   0.071
 5368W        W 9329   0.206   9.954   0.839
 5369W        W 9330   0.710   9.024   3.281
 5370W        W 9331   1.414   7.584   3.467
 5371W        W 9332   2.123   7.726   2.823
 5372W        W 9333   1.318   7.494   1.104
 5373W        W 9334   2.377   7.571   0.609
 5374W        W 9335   0.322   7.503   2.186
 5375W        W 9336   0.370   8.466   1.556
 5376W        W 9337   3.059   7.574   1.962
 5377W        W 9338   0.481   8.072   0.776
 5378W        W 9339   3.052   7.760   2.392
 5379W        W 9340   3.448   8.963   0.077
 5380W        W 9341   0.740   7.721   1.896
 5381W        W 9342   1.854   8.293   2.836
 5382W        W 9343   0.002   7.983   0.314
 5383W        W 9344   0.788   9.372   2.875
 5384W        W 9345   2.146   8.770   2.054
 5385W        W 9346   2.013  10.849   0.350
 5386W        W 9347   0.159   9.356   0.047
 5387W        W 9348   0.894   9.767   3.173
 5388W        W 9349   0.415   8.934   2.804
 5389W        W 9350   1.406   9.039   2.598
 5390W        W 9351   3.174   7.398   2.860
 5391W        W 9352   3.572   9.008   2.851
 5392W        W 9353   3.560   9.208   0.537
 5393W        W 9354   2.423   9.540   0.636
 5394W        W 9355   2.897  10.840   0.331
 5395W        W 9356   2.074   8.830   3.473
 5396W        W 9357   0.404   9.797   3.513
 5397W        W 9358   3.610   7.719   3.465
 5398W        W 9359   3.328   8.647   2.086
 5399W        W 9360   1.636  10.777   3.563
 5400W        W 9361   1.491   7.406   0.290
 5401W        W 9362   3.030  10.005   0.233
 5402W        W 9363   0.799   8.098   3.119
 5403W        W 9364   1.233  10.092   2.981
 5404W        W 9365   3.359   8.083   2.779
 5405W        W 9366   2.570  10.742   0.747
 5406W        W 9367   2.809   9.361   2.114
 5407W        W 9368   1.059   7.777   2.781
 5408W        W 9369   1.528   8.846   3.538
 5409W        W 9370   1.031  10.025   0.732
 5410W        W 9371   2.786   9.523   0.996
 5411W        W 9372   0.554   8.149   2.720
 5412W        W 9373   1.883  10.211   1.184
 5413W        W 9374   3.633   8.771   1.365
 5414W        W 9375   1.855   7.404   3.084
 5415W        W 9376   2.635  10.109   2.163
 5416W        W 9377   2.938  10.453   1.871
 5417W        W 9378   2.157  10.255   0.299
 5418W        W 9379   0.167  10.147   3.141
 5419W        W 9380   0.910   8.139   2.379
 5420W        W 9381   0.880   7.487   1.489
 5421W        W 9382   2.501   8.329   2.181
 5422W        W 9383   1.299   9.500   0.381
 5423W        W 9384   3.297   9.442   1.880
 5424W        W 9385   0.624  10.200   3.303
 5425W        W 9386   3.011  10.882   1.100
 5426W        W 9387   1.110   7.902   1.545
 5427W        W 9388   0.879   9.395   1.635
 5428W        W 9389   1.192  10.806   2.385
 5429W        W 9390   3.259  10.902   3.417
 5430W        W 9391   2.418   9.090   2.350
 5431W        W 9392   0.267   8.888   0.265
 5432W        W 9393   3.401  10.546   0.962
 5433W        W 9394   3.238   7.870   0.581
 5434W        W 9395   1.377   7.389   2.984
 5435W        W 9396   3.083  10.191   1.442
 5436W        W 9397   3.112   8.747   1.347
 5437W        W 9398   1.229   8.420   1.563
 5438W        W 9399   1.474   8.682   2.887
 5439W        W 9400   2.585   9.835   2.750
 5440W        W 9401   1.235   8.289   2.862
 5441W        W 9402   1.214  10.755   1.478
 5442W        W 9403   0.531  10.714   3.112
 5443W        W 9404   0.643  10.075   0.242
 5444W        W 9405   3.160   9.833   1.052
 5445W        W 9406   0.764   8.625   2.938
 5446W        W 9407   3.537   8.555   0.419
 5447W        W 9408   1.282   9.612   0.890
 5448W        W 9409   2.381   8.994   2.971
 5449W        W 9410   2.272   8.622   2.515
 5450W        W 9411   0.832   8.994   2.544
 5451W        W 9412   3.042  10.882   2.373
 5452W        W 9413   2.833   7.516   3.367
 5453W        W 9414   0.497   7.666   2.954
 5454W        W 9415   0.836   8.689   2.007
 5455W        W 9416   1.205   8.503   0.129
 5456W        W 9417   0.008  10.262   2.674
 5457W        W 9418   1.593   8.971   2.117
 5458W        W 9419   1.416   7.996   0.222
 5459W        W 9420   0.551   8.812   1.003
 5460W        W 9421   0.322  10.664   2.440
 5461W        W 9422   3.117   8.890   0.548
 5462W        W 9423   3.212   7.806   3.234
 5463W        W 9424   2.648  10.015   1.197
 5464W        W 9425   0.246   8.939   3.374
 5465W        W 9426   3.212   7.403   0.670
 5466W        W 9427   2.732   9.878   0.681
 5467W        W 9428   1.634   8.936   0.766
 5468W        W 9429   2.821   7.740   0.289
 5469W        W 9430   2.886   8.347   2.475
 5470W        W 9431   0.595   8.940   1.682
 5471W        W 9432   0.889   9.879   1.331
 5472W        W 9433   2.652   8.499   1.296
 5473W        W 9434   1.675   7.878   1.992
 5474W        W 9435   3.637   9.789   2.503
 5475W        W 9436   3.555   7.776   2.064
 5476W        W 9437   0.094  10.606   1.440
 5477W        W 9438   0.603   9.793   0.976
 5478W        W 9439   0.518   7.410   3.529
 5479W        W 9440   1.637  10.263   3.631
 5480W        W 9441   3.392   9.231   1.421
 5481W        W 9442   2.746   9.408   0.301
 5482W        W 9443   2.041  10.929   2.513
 5483W        W 9444   2.898   9.651   3.550
 5484W        W 9445   1.713   7.361   0.830
 5485W        W 9446   2.426   8.230   1.689
 5486W        W 9447   0.112   9.817   2.021
 5487W        W 9448   1.365   7.779   0.662
 5488W        W 9449   1.169   9.263   3.511
 5489W        W 9450   2.163   8.244   1.225
 5490W        W 9451   2.368   9.654   2.347
 5491W        W 9452   0.522  10.259   2.782
 5492W        W 9453   1.113  10.242   3.505
 5493W        W 9454   0.964   8.039   0.519
 5494W        W 9455   2.481   8.181   0.844
 5495W        W 9456   2.439  10.289   3.081
 5496W        W 9457   1.124   8.881   1.680
 5497W        W 9458   0.779  10.579   2.545
 5498W        W 9459   3.524  10.696   0.146
 5499W        W 9460   0.387   9.368   3.142
 5500W        W 9461   2.382   9.630   1.830
 5501W        W 9462   0.818   9.279   1.072
 5502W        W 9463   1.189  10.286   2.467
 5503W        W 9464   1.567   7.705   1.508
 5504W        W 9465   0.178   9.689   0.438
 5505W        W 9466   1.697   8.640   0.308
 5506W        W 9467   0.343   9.189   1.327
 5507W        W 9468   1.633   7.831   2.791
 5508W        W 9469   3.305   7.540   0.218
 5509W        W 9470   3.398   9.286   3.317
 5510W        W 9471   2.052  10.543   3.469
 5511W        W 9472   3.610   9.637   2.991
 5512W        W 9473   3.018  10.435   3.602
 5513W        W 9474   0.757  10.891   2.080
 5514W        W 9475   3.616   9.513   0.954
 5515W        W 9476   2.146   8.780   1.467
 5516W        W 9477   1.913   7.392   1.357
 5517W        W 9478   0.972  10.376   1.194
 5518W        W 9479   1.471   8.117   2.419
 5519W        W 9480   1.171   7.486   1.888
 5520W        W 9481   0.234  10.308   0.436
 5521W        W 9482   2.050   9.672   1.154
 5522W        W 9483   0.925  10.467   3.033
 5523W        W 9484   0.402   9.290   0.729
 5524W        W 9485   0.287   7.833   1.728
 5525W        W 9486   1.835   9.798   1.785
 5526W        W 9487   0.087   7.652   0.805
 5527W        W 9488   2.751   8.858   2.732
 5528W        W 9489   2.628   8.244   0.304
 5529W        W 9490   3.145   9.916   1.952
 5530W        W 9491   1.806  10.400   1.783
 5531W        W 9492   1.218  10.504   0.694
 5532W        W 9493   2.500   7.407   0.124
 5533W        W 9494   0.300  10.667   1.865
 5534W        W 9495   2.497   8.425   3.500
 5535W        W 9496   0.480   7.955   3.499
 5536W        W 9497   0.211   8.555   0.832
 5537W        W 9498   0.902   8.544   0.557
 5538W        W 9499   2.665   8.871   3.374
 5539W        W 9500   1.008   9.152   2.083
 5540W        W 9501   2.482   7.438   1.203
 5541W        W 9502   1.613  10.869   1.706
 5542W        W 9503   2.827  10.331   2.643
 5543W        W 9504   2.411  10.480   1.754
 5544W        W 9505   2.430   9.460   1.348
 5545W        W 9506   1.892   7.685   0.419
 5546W        W 9507   3.573   7.313   1.141
 5547W        W 9508   1.261   8.948   0.304
 5548W        W 9509   3.427   8.285   1.294
 5549W        W 9510   2.119   9.455   0.171
 5550W        W 9511   3.055   9.655   2.919
 5551W        W 9512   2.709  10.356   0.386
 5552W        W 9513   1.324   8.031   3.292
 5553W        W 9514   1.144   8.615   2.533
 5554W        W 9515   3.236  10.110   2.810
 5555W        W 9516   2.336   8.060   3.187
 5556W        W 9517   0.180   8.531   2.964
 5557W        W 9518   1.940   9.008   2.690
 5558W        W 9519   0.297   9.766   1.347
 5559W        W 9520   0.444   9.063   2.237
 5560W        W 9521   2.761   9.349   2.587
 5561W        W 9522   2.533  10.729   3.398
 5562W        W 9523   2.429   8.468   2.951
 5563W        W 9524   2.706  10.522   1.356
 5564W        W 9525   1.708  10.242   2.679
 5565W        W 9526   1.193  10.597   1.948
 5566W        W 9527   2.998   9.768   2.367
 5567W        W 9528   2.048   9.840   3.504
 5568W        W 9529   0.653   9.793   1.843
 5569W        W 9530   2.999   9.552   1.488
 5570W        W 9531   2.640  10.618   2.239
 5571W        W 9532   0.618  10.347   2.109
 5572W        W 9533   1.639   8.399   3.319
 5573W        W 9534   2.090  10.565   0.830
 5574W        W 9535   1.398   9.820   3.468
 5575W        W 9536   1.524  10.058   0.845
 5576W        W 9537   0.745   8.798   0.104
 5577W        W 9538   0.084  10.884   7.003
 5578W        W 9539   0.460   9.777   6.526
 5579W        W 9540   3.165   9.507   4.296
 5580W        W 9541   3.295  10.592   6.323
 5581W        W 9542   1.213  10.583   3.849
 5582W        W 9543   1.296   8.735   4.832
 5583W        W 9544   0.811   8.583   4.996
 5584W        W 9545   1.802   9.398   4.430
 5585W        W 9546   1.477  10.490   6.785
 5586W        W 9547   0.126   8.051   6.748
 5587W        W 9548   0.888   7.331   6.550
 5588W        W 9549   2.582   7.719   5.437
 5589W        W 9550   2.231   8.590   4.007
 5590W        W 9551   2.801   8.024   7.098
 5591W        W 9552   0.167   7.816   6.223
 5592W        W 9553   0.266  10.435   7.244
 5593W        W 9554   1.788   9.825   3.976
 5594W        W 9555   0.220   8.608   5.669
 5595W        W 9556   1.113   8.499   6.906
 5596W        W 9557   3.572   8.358   5.405
 5597W        W 9558   3.336   9.401   6.264
 5598W        W 9559   1.644   8.734   5.291
 5599W        W 9560   2.190  10.073   5.660
 5600W        W 9561   0.690   9.507   5.892
 5601W        W 9562   0.049   9.035   5.463
 5602W        W 9563   1.085   9.007   6.655
 5603W        W 9564   3.356   8.790   6.909
 5604W        W 9565   0.972  10.234   5.354
 5605W        W 9566   2.093   9.923   6.488
 5606W        W 9567   1.313   8.563   5.713
 5607W        W 9568   1.605   9.347   5.356
 5608W        W 9569   2.602  10.120   7.204
 5609W        W 9570   1.681   9.440   7.214
 5610W        W 9571   1.662   9.156   6.692
 5611W        W 9572   0.071   8.547   7.214
 5612W        W 9573   2.903  10.082   6.813
 5613W        W 9574   0.484   7.664   4.811
 5614W        W 9575   1.011   9.922   5.810
 5615W        W 9576   3.474   9.705   5.100
 5616W        W 9577   2.887   8.105   5.667
 5617W        W 9578   3.172   8.058   3.762
 5618W        W 9579   3.637   8.859   6.068
 5619W        W 9580   1.604  10.566   5.821
 5620W        W 9581   3.378  10.032   4.259
 5621W        W 9582   0.507  10.818   4.013
 5622W        W 9583   0.900  10.864   4.689
 5623W        W 9584   0.697   7.618   6.115
 5624W        W 9585   3.320   8.636   6.390
 5625W        W 9586   2.725   9.058   4.849
 5626W        W 9587   2.691   8.746   3.876
 5627W        W 9588   1.899   9.890   6.016
 5628W        W 9589   1.705   8.220   5.215
 5629W        W 9590   2.305  10.307   6.209
 5630W        W 9591   3.176   9.098   4.631
 5631W        W 9592   2.078   7.756   4.647
 5632W        W 9593   0.735  10.450   4.330
 5633W        W 9594   0.106   7.949   4.929
 5634W        W 9595   2.892   8.556   5.403
 5635W        W 9596   0.350  10.173   5.318
 5636W        W 9597   1.691  10.523   4.188
 5637W        W 9598   3.083   8.549   3.652
 5638W        W 9599   0.106  10.307   5.816
 5639W        W 9600   0.897   9.879   6.296
 5640W        W 9601   1.270   9.239   4.915
 5641W        W 9602   1.292   7.644   6.008
 5642W        W 9603   3.521   7.406   5.305
 5643W        W 9604   0.740   9.278   3.773
 5644W        W 9605   0.395   8.311   3.952
 5645W        W 9606   0.457  10.267   4.746
 5646W        W 9607   1.588   9.750   4.994
 5647W        W 9608   2.920  10.609   6.708
 5648W        W 9609   1.846   8.251   4.392
 5649W        W 9610   3.229  10.649   5.164
 5650W        W 9611   2.906   8.502   6.762
 5651W        W 9612   3.619  10.158   4.896
 5652W        W 9613   2.246   9.450   6.380
 5653W        W 9614   0.012   9.001   4.586
 5654W        W 9615   1.123   9.416   6.159
 5655W        W 9616   2.327   8.680   4.537
 5656W        W 9617   2.204   9.170   4.641
 5657W        W 9618   0.547   8.590   6.115
 5658W        W 9619   0.532   8.466   7.037
 5659W        W 9620   0.422   7.383   5.196
 5660W        W 9621   2.190   7.730   5.757
 5661W        W 9622   1.838   7.915   6.920
 5662W        W 9623   2.193   8.064   4.098
 5663W        W 9624   3.376  10.457   6.852
 5664W        W 9625   2.343   7.538   6.891
 5665W        W 9626   3.362   9.839   7.013
 5666W        W 9627   2.792   8.006   6.609
 5667W        W 9628   2.592   7.944   4.879
 5668W        W 9629   2.985   9.078   7.283
 5669W        W 9630   0.725  10.654   5.269
 5670W        W 9631   1.383   8.371   4.255
 5671W        W 9632   0.952   7.655   6.919
 5672W        W 9633   3.004   8.139   4.600
 5673W        W 9634   3.371   8.621   4.545
 5674W        W 9635   1.114  10.838   7.016
 5675W        W 9636   1.040   7.374   4.251
 5676W        W 9637   3.361   7.908   5.286
 5677W        W 9638   3.511  10.157   3.731
 5678W        W 9639   0.418   9.360   5.433
 5679W        W 9640   2.335   7.947   3.663
 5680W        W 9641   3.469  10.279   5.383
 5681W        W 9642   3.508   7.473   6.133
 5682W        W 9643   1.953   8.685   6.687
 5683W        W 9644   2.046  10.024   4.390
 5684W        W 9645   2.446   9.318   7.130
 5685W        W 9646   2.120   7.295   5.439
 5686W        W 9647   0.732   8.198   5.502
 5687W        W 9648   0.286   9.398   6.276
 5688W        W 9649   2.145  10.591   4.982
 5689W        W 9650   3.339   8.188   5.854
 5690W        W 9651   1.976  10.535   6.621
 5691W        W 9652   3.319   9.594   3.826
 5692W        W 9653   1.754   9.077   4.887
 5693W        W 9654   3.606   7.588   6.628
 5694W        W 9655   1.755   9.423   6.222
 5695W        W 9656   1.972   8.309   5.667
 5696W        W 9657   2.824   8.607   4.505
 5697W        W 9658   3.111   8.340   4.147
 5698W        W 9659   2.920  10.380   4.536
 5699W        W 9660   2.754   9.983   5.332
 5700W        W 9661   2.650   9.062   4.310
 5701W        W 9662   2.083   9.272   5.296
 5702W        W 9663   2.964   9.060   5.363
 5703W        W 9664   0.339   8.075   5.787
 5704W        W 9665   3.117   9.127   6.614
 5705W        W 9666   3.468  10.745   5.760
 5706W        W 9667   1.398  10.189   5.162
 5707W        W 9668   2.405  10.722   6.486
 5708W        W 9669   2.399   8.052   6.250
 5709W        W 9670   1.606  10.760   6.311
 5710W        W 9671   3.303   7.714   4.777
 5711W        W 9672   3.094   9.033   6.078
 5712W        W 9673   0.077   8.354   6.116
 5713W        W 9674   2.937   8.149   5.134
 5714W        W 9675   3.348   8.300   6.911
 5715W        W 9676   2.233   9.999   5.129
 5716W        W 9677   1.489  10.590   4.742
 5717W        W 9678   0.604   7.770   4.000
 5718W        W 9679   1.708   7.424   5.810
 5719W        W 9680   0.736  10.544   3.658
 5720W        W 9681   1.110   9.010   4.409
 5721W        W 9682   1.764   9.639   6.722
 5722W        W 9683   1.594   7.997   4.712
 5723W        W 9684   2.950   7.594   5.140
 5724W        W 9685   2.670  10.876   5.468
 5725W        W 9686   2.082  10.524   5.808
 5726W        W 9687   1.478   9.561   5.769
 5727W        W 9688   3.248  10.284   5.895
 5728W        W 9689   0.942   7.787   4.664
 5729W        W 9690   1.464  10.084   5.624
 5730W        W 9691   0.947   8.015   3.689
 5731W        W 9692   1.748   8.624   6.083
 5732W        W 9693   2.596   7.490   5.953
 5733W        W 9694   0.016   9.333   5.838
 5734W        W 9695   1.720   9.151   3.996
 5735W        W 9696   0.988   7.466   3.766
 5736W        W 9697   1.726   8.547   4.817
 5737W        W 9698   2.696   7.523   6.516
 5738W        W 9699   1.284   9.535   6.625
 5739W        W 9700   2.088   9.317   6.842
 5740W        W 9701   2.705   9.347   6.735
 5741W        W 9702   1.989   7.487   7.240
 5742W        W 9703   1.211   8.103   5.633
 5743W        W 9704   0.637   8.059   5.031
 5744W        W 9705   0.423  10.771   4.707
 5745W        W 9706   1.755  10.101   6.832
 5746W        W 9707   0.790   9.586   4.191
 5747W        W 9708   2.470   8.971   5.412
 5748W        W 9709   2.750   8.770   5.811
 5749W        W 9710   1.955   9.444   5.745
 5750W        W 9711   2.425   9.818   3.877
 5751W        W 9712   2.097   7.839   5.205
 5752W        W 9713   3.576   8.117   4.473
 5753W        W 9714   0.070  10.706   6.504
 5754W        W 9715   0.487   9.932   6.036
 5755W        W 9716   0.054  10.778   4.268
 5756W        W 9717   1.953   8.048   6.074
 5757W        W 9718   1.316  10.071   3.923
 5758W        W 9719   3.221  10.453   4.109
 5759W        W 9720   2.196   9.106   4.123
 5760W        W 9721   1.039   8.297   4.640
 5761W        W 9722   1.871   8.207   3.692
 5762W        W 9723   2.455   9.772   6.870
 5763W        W 9724   2.808   7.678   4.487
 5764W        W 9725   0.138   7.526   3.935
 5765W        W 9726   1.424   9.845   6.225
 5766W        W 9727   1.223   9.761   5.317
 5767W        W 9728   0.965   9.713   3.715
 5768W        W 9729   0.206   9.954   4.483
 5769W        W 9730   0.710   9.024   6.925
 5770W        W 9731   1.414   7.584   7.111
 5771W        W 9732   2.123   7.726   6.467
 5772W        W 9733   1.318   7.494   4.748
 5773W        W 9734   2.377   7.571   4.253
 5774W        W 9735   0.322   7.503   5.830
 5775W        W 9736   0.370   8.466   5.200
 5776W        W 9737   3.059   7.574   5.606
 5777W        W 9738   0.481   8.072   4.420
 5778W        W 9739   3.052   7.760   6.036
 5779W        W 9740   3.448   8.963   3.721
 5780W        W 9741   0.740   7.721   5.540
 5781W        W 9742   1.854   8.293   6.480
 5782W        W 9743   0.002   7.983   3.958
 5783W        W 9744   0.788   9.372   6.519
 5784W        W 9745   2.146   8.770   5.698
 5785W        W 9746   2.013  10.849   3.994
 5786W        W 9747   0.159   9.356   3.691
 5787W        W 9748   0.894   9.767   6.817
 5788W        W 9749   0.415   8.934   6.448
 5789W        W 9750   1.406   9.039   6.242
 5790W        W 9751   3.174   7.398   6.504
 5791W        W 9752   3.572   9.008   6.495
 5792W        W 9753   3.560   9.208   4.181
 5793W        W 9754   2.423   9.540   4.280
 5794W        W 9755   2.897  10.840   3.975
 5795W        W 9756   2.074   8.830   7.117
 5796W        W 9757   0.404   9.797   7.157
 5797W        W 9758   3.610   7.719   7.109
 5798W        W 9759   3.328   8.647   5.730
 5799W        W 9760   1.636  10.777   7.207
 5800W        W 9761   1.491   7.406   3.934
 5801W        W 9762   3.030  10.005   3.877
 5802W        W 9763   0.799   8.098   6.763
 5803W        W 9764   1.233  10.092   6.625
 5804W        W 9765   3.359   8.083   6.423
 5805W        W 9766   2.570  10.742   4.391
 5806W        W 9767   2.809   9.361   5.758
 5807W        W 9768   1.059   7.777   6.425
 5808W        W 9769   1.528   8.846   7.182
 5809W        W 9770   1.031  10.025   4.376
 5810W        W 9771   2.786   9.523   4.640
 5811W        W 9772   0.554   8.149   6.364
 5812W        W 9773   1.883  10.211   4.828
 5813W        W 9774   3.633   8.771   5.009
 5814W        W 9775   1.855   7.404   6.728
 5815W        W 9776   2.635  10.109   5.807
 5816W        W 9777   2.938  10.453   5.515
 5817W        W 9778   2.157  10.255   3.943
 5818W        W 9779   0.167  10.147   6.785
 5819W        W 9780   0.910   8.139   6.023
 5820W        W 9781   0.880   7.487   5.133
 5821W        W 9782   2.501   8.329   5.825
 5822W        W 9783   1.299   9.500   4.025
 5823W        W 9784   3.297   9.442   5.524
 5824W        W 9785   0.624  10.200   6.947
 5825W        W 9786   3.011  10.882   4.744
 5826W        W 9787   1.110   7.902   5.189
 5827W        W 9788   0.879   9.395   5.279
 5828W        W 9789   1.192  10.806   6.029
 5829W        W 9790   3.259  10.902   7.061
 5830W        W 9791   2.418   9.090   5.994
 5831W        W 9792   0.267   8.888   3.909
 5832W        W 9793   3.401  10.546   4.606
 5833W        W 9794   3.238   7.870   4.225
 5834W        W 9795   1.377   7.389   6.628
 5835W        W 9796   3.083  10.191   5.086
 5836W        W 9797   3.112   8.747   4.991
 5837W        W 9798   1.229   8.420   5.207
 5838W        W 9799   1.474   8.682   6.531
 5839W        W 9800   2.585   9.835   6.394
 5840W        W 9801   1.235   8.289   6.506
 5841W        W 9802   1.214  10.755   5.122
 5842W        W 9803   0.531  10.714   6.756
 5843W        W 9804   0.643  10.075   3.886
 5844W        W 9805   3.160   9.833   4.696
 5845W        W 9806   0.764   8.625   6.582
 5846W        W 9807   3.537   8.555   4.063
 5847W        W 9808   1.282   9.612   4.534
 5848W        W 9809   2.381   8.994   6.615
 5849W        W 9810   2.272   8.622   6.159
 5850W        W 9811   0.832   8.994   6.188
 5851W        W 9812   3.042  10.882   6.017
 5852W        W 9813   2.833   7.516   7.011
 5853W        W 9814   0.497   7.666   6.598
 5854W        W 9815   0.836   8.689   5.651
 5855W        W 9816   1.205   8.503   3.773
 5856W        W 9817   0.008  10.262   6.318
 5857W        W 9818   1.593   8.971   5.761
 5858W        W 9819   1.416   7.996   3.866
 5859W        W 9820   0.551   8.812   4.647
 5860W        W 9821   0.322  10.664   6.084
 5861W        W 9822   3.117   8.890   4.192
 5862W        W 9823   3.212   7.806   6.878
 5863W        W 9824   2.648  10.015   4.841
 5864W        W 9825   0.246   8.939   7.018
 5865W        W 9826   3.212   7.403   4.314
 5866W        W 9827   2.732   9.878   4.325
 5867W        W 9828   1.634   8.936   4.410
 5868W        W 9829   2.821   7.740   3.933
 5869W        W 9830   2.886   8.347   6.119
 5870W        W 9831   0.595   8.940   5.326
 5871W        W 9832   0.889   9.879   4.975
 5872W        W 9833   2.652   8.499   4.940
 5873W        W 9834   1.675   7.878   5.636
 5874W        W 9835   3.637   9.789   6.147
 5875W        W 9836   3.555   7.776   5.708
 5876W        W 9837   0.094  10.606   5.084
 5877W        W 9838   0.603   9.793   4.620
 5878W        W 9839   0.518   7.410   7.173
 5879W        W 9840   1.637  10.263   7.275
 5880W        W 9841   3.392   9.231   5.065
 5881W        W 9842   2.746   9.408   3.945
 5882W        W 9843   2.041  10.929   6.157
 5883W        W 9844   2.898   9.651   7.194
 5884W        W 9845   1.713   7.361   4.474
 5885W        W 9846   2.426   8.230   5.333
 5886W        W 9847   0.112   9.817   5.665
 5887W        W 9848   1.365   7.779   4.306
 5888W        W 9849   1.169   9.263   7.155
 5889W        W 9850   2.163   8.244   4.869
 5890W        W 9851   2.368   9.654   5.991
 5891W        W 9852   0.522  10.259   6.426
 5892W        W 9853   1.113  10.242   7.149
 5893W        W 9854   0.964   8.039   4.163
 5894W        W 9855   2.481   8.181   4.488
 5895W        W 9856   2.439  10.289   6.725
 5896W        W 9857   1.124   8.881   5.324
 5897W        W 9858   0.779  10.579   6.189
 5898W        W 9859   3.524  10.696   3.790
 5899W        W 9860   0.387   9.368   6.786
 5900W        W 9861   2.382   9.630   5.474
 5901W        W 9862   0.818   9.279   4.716
 5902W        W 9863   1.189  10.286   6.111
 5903W        W 9864   1.567   7.705   5.152
 5904W        W 9865   0.178   9.689   4.082
 5905W        W 9866   1.697   8.640   3.952
 5906W        W 9867   0.343   9.189   4.971
 5907W        W 9868   1.633   7.831   6.435
 5908W        W 9869   3.305   7.540   3.862
 5909W        W 9870   3.398   9.286   6.961
 5910W        W 9871   2.052  10.543   7.113
 5911W        W 9872   3.610   9.637   6.635
 5912W        W 9873   3.018  10.435   7.246
 5913W        W 9874   0.757  10.891   5.724
 5914W        W 9875   3.616   9.513   4.598
 5915W        W 9876   2.146   8.780   5.111
 5916W        W 9877   1.913   7.392   5.001
 5917W        W 9878   0.972  10.376   4.838
 5918W        W 9879   1.471   8.117   6.063
 5919W        W 9880   1.171   7.486   5.532
 5920W        W 9881   0.234  10.308   4.080
 5921W        W 9882   2.050   9.672   4.798
 5922W        W 9883   0.925  10.467   6.677
 5923W        W 9884   0.402   9.290   4.373
 5924W        W 9885   0.287   7.833   5.372
 5925W        W 9886   1.835   9.798   5.429
 5926W        W 9887   0.087   7.652   4.449
 5927W        W 9888   2.751   8.858   6.376
 5928W        W 9889   2.628   8.244   3.948
 5929W        W 9890   3.145   9.916   5.596
 5930W        W 9891   1.806  10.400   5.427
 5931W        W 9892   1.218  10.504   4.338
 5932W        W 9893   2.500   7.407   3.768
 5933W        W 9894   0.300  10.667   5.509
 5934W        W 9895   2.497   8.425   7.144
 5935W        W 9896   0.480   7.955   7.143
 5936W        W 9897   0.211   8.555   4.476
 5937W        W 9898   0.902   8.544   4.201
 5938W        W 9899   2.665   8.871   7.018
 5939W        W 9900   1.008   9.152   5.727
 5940W        W 9901   2.482   7.438   4.847
 5941W        W 9902   1.613  10.869   5.350
 5942W        W 9903   2.827  10.331   6.287
 5943W        W 9904   2.411  10.480   5.398
 5944W        W 9905   2.430   9.460   4.992
 5945W        W 9906   1.892   7.685   4.063
 5946W        W 9907   3.573   7.313   4.785
 5947W        W 9908   1.261   8.948   3.948
 5948W        W 9909   3.427   8.285   4.938
 5949W        W 9910   2.119   9.455   3.815
 5950W        W 9911   3.055   9.655   6.563
 5951W        W 9912   2.709  10.356   4.030
 5952W        W 9913   1.324   8.031   6.936
 5953W        W 9914   1.144   8.615   6.177
 5954W        W 9915   3.236  10.110   6.454
 5955W        W 9916   2.336   8.060   6.831
 5956W        W 9917   0.180   8.531   6.608
 5957W        W 9918   1.940   9.008   6.334
 5958W        W 9919   0.297   9.766   4.991
 5959W        W 9920   0.444   9.063   5.881
 5960W        W 9921   2.761   9.349   6.231
 5961W        W 9922   2.533  10.729   7.042
 5962W        W 9923   2.429   8.468   6.595
 5963W        W 9924   2.706  10.522   5.000
 5964W        W 9925   1.708  10.242   6.323
 5965W        W 9926   1.193  10.597   5.592
 5966W        W 9927   2.998   9.768   6.011
 5967W        W 9928   2.048   9.840   7.148
 5968W        W 9929   0.653   9.793   5.487
 5969W        W 9930   2.999   9.552   5.132
 5970W        W 9931   2.640  10.618   5.883
 5971W        W 9932   0.618  10.347   5.753
 5972W        W 9933   1.639   8.399   6.963
 5973W        W 9934   2.090  10.565   4.474
 5974W        W 9935   1.398   9.820   7.112
 5975W        W 9936   1.524  10.058   4.489
 5976W        W 9937   0.745   8.798   3.748
 5977W        W 9938   0.084  10.884  10.648
 5978W        W 9939   0.460   9.777  10.171
 5979W        W 9940   3.165   9.507   7.941
 5980W        W 9941   3.295  10.592   9.968
 5981W        W 9942   1.213  10.583   7.494
 5982W        W 9943   1.296   8.735   8.477
 5983W        W 9944   0.811   8.583   8.641
 5984W        W 9945   1.802   9.398   8.075
 5985W        W 9946   1.477  10.490  10.430
 5986W        W 9947   0.126   8.051  10.393
 5987W        W 9948   0.888   7.331  10.195
 5988W        W 9949   2.582   7.719   9.082
 5989W        W 9950   2.231   8.590   7.652
 5990W        W 9951   2.801   8.024  10.743
 5991W        W 9952   0.167   7.816   9.868
 5992W        W 9953   0.266  10.435  10.889
 5993W        W 9954   1.788   9.825   7.621
 5994W        W 9955   0.220   8.608   9.314
 5995W        W 9956   1.113   8.499  10.551
 5996W        W 9957   3.572   8.358   9.050
 5997W        W 9958   3.336   9.401   9.909
 5998W        W 9959   1.644   8.734   8.936
 5999W        W 9960   2.190  10.073   9.305
 6000W        W 9961   0.690   9.507   9.537
 6001W        W 9962   0.049   9.035   9.108
 6002W        W 9963   1.085   9.007  10.300
 6003W        W 9964   3.356   8.790  10.554
 6004W        W 9965   0.972  10.234   8.999
 6005W        W 9966   2.093   9.923  10.133
 6006W        W 9967   1.313   8.563   9.358
 6007W        W 9968   1.605   9.347   9.001
 6008W        W 9969   2.602  10.120  10.849
 6009W        W 9970   1.681   9.440  10.859
 6010W        W 9971   1.662   9.156  10.337
 6011W        W 9972   0.071   8.547  10.859
 6012W        W 9973   2.903  10.082  10.458
 6013W        W 9974   0.484   7.664   8.456
 6014W        W 9975   1.011   9.922   9.455
 6015W        W 9976   3.474   9.705   8.745
 6016W        W 9977   2.887   8.105   9.312
 6017W        W 9978   3.172   8.058   7.407
 6018W        W 9979   3.637   8.859   9.713
 6019W        W 9980   1.604  10.566   9.466
 6020W        W 9981   3.378  10.032   7.904
 6021W        W 9982   0.507  10.818   7.658
 6022W        W 9983   0.900  10.864   8.334
 6023W        W 9984   0.697   7.618   9.760
 6024W        W 9985   3.320   8.636  10.035
 6025W        W 9986   2.725   9.058   8.494
 6026W        W 9987   2.691   8.746   7.521
 6027W        W 9988   1.899   9.890   9.661
 6028W        W 9989   1.705   8.220   8.860
 6029W        W 9990   2.305  10.307   9.854
 6030W        W 9991   3.176   9.098   8.276
 6031W        W 9992   2.078   7.756   8.292
 6032W        W 9993   0.735  10.450   7.975
 6033W        W 9994   0.106   7.949   8.574
 6034W        W 9995   2.892   8.556   9.048
 6035W        W 9996   0.350  10.173   8.963
 6036W        W 9997   1.691  10.523   7.833
 6037W        W 9998   3.083   8.549   7.297
 6038W        W 9999   0.106  10.307   9.461
 6039W        W10000   0.897   9.879   9.941
 6040W        W10001   1.270   9.239   8.560
 6041W        W10002   1.292   7.644   9.653
 6042W        W10003   3.521   7.406   8.950
 6043W        W10004   0.740   9.278   7.418
 6044W        W10005   0.395   8.311   7.597
 6045W        W10006   0.457  10.267   8.391
 6046W        W10007   1.588   9.750   8.639
 6047W        W10008   2.920  10.609  10.353
 6048W        W10009   1.846   8.251   8.037
 6049W        W10010   3.229  10.649   8.809
 6050W        W10011   2.906   8.502  10.407
 6051W        W10012   3.619  10.158   8.541
 6052W        W10013   2.246   9.450  10.025
 6053W        W10014   0.012   9.001   8.231
 6054W        W10015   1.123   9.416   9.804
 6055W        W10016   2.327   8.680   8.182
 6056W        W10017   2.204   9.170   8.286
 6057W        W10018   0.547   8.590   9.760
 6058W        W10019   0.532   8.466  10.682
 6059W        W10020   0.422   7.383   8.841
 6060W        W10021   2.190   7.730   9.402
 6061W        W10022   1.838   7.915  10.565
 6062W        W10023   2.193   8.064   7.743
 6063W        W10024   3.376  10.457  10.497
 6064W        W10025   2.343   7.538  10.536
 6065W        W10026   3.362   9.839  10.658
 6066W        W10027   2.792   8.006  10.254
 6067W        W10028   2.592   7.944   8.524
 6068W        W10029   2.985   9.078  10.928
 6069W        W10030   0.725  10.654   8.914
 6070W        W10031   1.383   8.371   7.900
 6071W        W10032   0.952   7.655  10.564
 6072W        W10033   3.004   8.139   8.245
 6073W        W10034   3.371   8.621   8.190
 6074W        W10035   1.114  10.838  10.661
 6075W        W10036   1.040   7.374   7.896
 6076W        W10037   3.361   7.908   8.931
 6077W        W10038   3.511  10.157   7.376
 6078W        W10039   0.418   9.360   9.078
 6079W        W10040   2.335   7.947   7.308
 6080W        W10041   3.469  10.279   9.028
 6081W        W10042   3.508   7.473   9.778
 6082W        W10043   1.953   8.685  10.332
 6083W        W10044   2.046  10.024   8.035
 6084W        W10045   2.446   9.318  10.775
 6085W        W10046   2.120   7.295   9.084
 6086W        W10047   0.732   8.198   9.147
 6087W        W10048   0.286   9.398   9.921
 6088W        W10049   2.145  10.591   8.627
 6089W        W10050   3.339   8.188   9.499
 6090W        W10051   1.976  10.535  10.266
 6091W        W10052   3.319   9.594   7.471
 6092W        W10053   1.754   9.077   8.532
 6093W        W10054   3.606   7.588  10.273
 6094W        W10055   1.755   9.423   9.867
 6095W        W10056   1.972   8.309   9.312
 6096W        W10057   2.824   8.607   8.150
 6097W        W10058   3.111   8.340   7.792
 6098W        W10059   2.920  10.380   8.181
 6099W        W10060   2.754   9.983   8.977
 6100W        W10061   2.650   9.062   7.955
 6101W        W10062   2.083   9.272   8.941
 6102W        W10063   2.964   9.060   9.008
 6103W        W10064   0.339   8.075   9.432
 6104W        W10065   3.117   9.127  10.259
 6105W        W10066   3.468  10.745   9.405
 6106W        W10067   1.398  10.189   8.807
 6107W        W10068   2.405  10.722  10.131
 6108W        W10069   2.399   8.052   9.895
 6109W        W10070   1.606  10.760   9.956
 6110W        W10071   3.303   7.714   8.422
 6111W        W10072   3.094   9.033   9.723
 6112W        W10073   0.077   8.354   9.761
 6113W        W10074   2.937   8.149   8.779
 6114W        W10075   3.348   8.300  10.556
 6115W        W10076   2.233   9.999   8.774
 6116W        W10077   1.489  10.590   8.387
 6117W        W10078   0.604   7.770   7.645
 6118W        W10079   1.708   7.424   9.455
 6119W        W10080   0.736  10.544   7.303
 6120W        W10081   1.110   9.010   8.054
 6121W        W10082   1.764   9.639  10.367
 6122W        W10083   1.594   7.997   8.357
 6123W        W10084   2.950   7.594   8.785
 6124W        W10085   2.670  10.876   9.113
 6125W        W10086   2.082  10.524   9.453
 6126W        W10087   1.478   9.561   9.414
 6127W        W10088   3.248  10.284   9.540
 6128W        W10089   0.942   7.787   8.309
 6129W        W10090   1.464  10.084   9.269
 6130W        W10091   0.947   8.015   7.334
 6131W        W10092   1.748   8.624   9.728
 6132W        W10093   2.596   7.490   9.598
 6133W        W10094   0.016   9.333   9.483
 6134W        W10095   1.720   9.151   7.641
 6135W        W10096   0.988   7.466   7.411
 6136W        W10097   1.726   8.547   8.462
 6137W        W10098   2.696   7.523  10.161
 6138W        W10099   1.284   9.535  10.270
 6139W        W10100   2.088   9.317  10.487
 6140W        W10101   2.705   9.347  10.380
 6141W        W10102   1.989   7.487  10.885
 6142W        W10103   1.211   8.103   9.278
 6143W        W10104   0.637   8.059   8.676
 6144W        W10105   0.423  10.771   8.352
 6145W        W10106   1.755  10.101  10.477
 6146W        W10107   0.790   9.586   7.836
 6147W        W10108   2.470   8.971   9.057
 6148W        W10109   2.750   8.770   9.456
 6149W        W10110   1.955   9.444   9.390
 6150W        W10111   2.425   9.818   7.522
 6151W        W10112   2.097   7.839   8.850
 6152W        W10113   3.576   8.117   8.118
 6153W        W10114   0.070  10.706  10.149
 6154W        W10115   0.487   9.932   9.681
 6155W        W10116   0.054  10.778   7.913
 6156W        W10117   1.953   8.048   9.719
 6157W        W10118   1.316  10.071   7.568
 6158W        W10119   3.221  10.453   7.754
 6159W        W10120   2.196   9.106   7.768
 6160W        W10121   1.039   8.297   8.285
 6161W        W10122   1.871   8.207   7.337
 6162W        W10123   2.455   9.772  10.515
 6163W        W10124   2.808   7.678   8.132
 6164W        W10125   0.138   7.526   7.580
 6165W        W10126   1.424   9.845   9.870
 6166W        W10127   1.223   9.761   8.962
 6167W        W10128   0.965   9.713   7.360
 6168W        W10129   0.206   9.954   8.128
 6169W        W10130   0.710   9.024  10.570
 6170W        W10131   1.414   7.584  10.756
 6171W        W10132   2.123   7.726  10.112
 6172W        W10133   1.318   7.494   8.393
 6173W        W10134   2.377   7.571   7.898
 6174W        W10135   0.322   7.503   9.475
 6175W        W10136   0.370   8.466   8.845
 6176W        W10137   3.059   7.574   9.251
 6177W        W10138   0.481   8.072   8.065
 6178W        W10139   3.052   7.760   9.681
 6179W        W10140   3.448   8.963   7.366
 6180W        W10141   0.740   7.721   9.185
 6181W        W10142   1.854   8.293  10.125
 6182W        W10143   0.002   7.983   7.603
 6183W        W10144   0.788   9.372  10.164
 6184W        W10145   2.146   8.770   9.343
 6185W        W10146   2.013  10.849   7.639
 6186W        W10147   0.159   9.356   7.336
 6187W        W10148   0.894   9.767  10.462
 6188W        W10149   0.415   8.934  10.093
 6189W        W10150   1.406   9.039   9.887
 6190W        W10151   3.174   7.398  10.149
 6191W        W10152   3.572   9.008  10.140
 6192W        W10153   3.560   9.208   7.826
 6193W        W10154   2.423   9.540   7.925
 6194W        W10155   2.897  10.840   7.620
 6195W        W10156   2.074   8.830  10.762
 6196W        W10157   0.404   9.797  10.802
 6197W        W10158   3.610   7.719  10.754
 6198W        W10159   3.328   8.647   9.375
 6199W        W10160   1.636  10.777  10.852
 6200W        W10161   1.491   7.406   7.579
 6201W        W10162   3.030  10.005   7.522
 6202W        W10163   0.799   8.098  10.408
 6203W        W10164   1.233  10.092  10.270
 6204W        W10165   3.359   8.083  10.068
 6205W        W10166   2.570  10.742   8.036
 6206W        W10167   2.809   9.361   9.403
 6207W        W10168   1.059   7.777  10.070
 6208W        W10169   1.528   8.846  10.827
 6209W        W10170   1.031  10.025   8.021
 6210W        W10171   2.786   9.523   8.285
 6211W        W10172   0.554   8.149  10.009
 6212W        W10173   1.883  10.211   8.473
 6213W        W10174   3.633   8.771   8.654
 6214W        W10175   1.855   7.404  10.373
 6215W        W10176   2.635  10.109   9.452
 6216W        W10177   2.938  10.453   9.160
 6217W        W10178   2.157  10.255   7.588
 6218W        W10179   0.167  10.147  10.430
 6219W        W10180   0.910   8.139   9.668
 6220W        W10181   0.880   7.487   8.778
 6221W        W10182   2.501   8.329   9.470
 6222W        W10183   1.299   9.500   7.670
 6223W        W10184   3.297   9.442   9.169
 6224W        W10185   0.624  10.200  10.592
 6225W        W10186   3.011  10.882   8.389
 6226W        W10187   1.110   7.902   8.834
 6227W        W10188   0.879   9.395   8.924
 6228W        W10189   1.192  10.806   9.674
 6229W        W10190   3.259  10.902  10.706
 6230W        W10191   2.418   9.090   9.639
 6231W        W10192   0.267   8.888   7.554
 6232W        W10193   3.401  10.546   8.251
 6233W        W10194   3.238   7.870   7.870
 6234W        W10195   1.377   7.389  10.273
 6235W        W10196   3.083  10.191   8.731
 6236W        W10197   3.112   8.747   8.636
 6237W        W10198   1.229   8.420   8.852
 6238W        W10199   1.474   8.682  10.176
 6239W        W10200   2.585   9.835  10.039
 6240W        W10201   1.235   8.289  10.151
 6241W        W10202   1.214  10.755   8.767
 6242W        W10203   0.643  10.075   7.531
 6243W        W10204   3.160   9.833   8.341
 6244W        W10205   0.764   8.625  10.227
 6245W        W10206   3.537   8.555   7.708
 6246W        W10207   1.282   9.612   8.179
 6247W        W10208   2.381   8.994  10.260
 6248W        W10209   2.272   8.622   9.804
 6249W        W10210   0.832   8.994   9.833
 6250W        W10211   3.042  10.882   9.662
 6251W        W10212   2.833   7.516  10.656
 6252W        W10213   0.497   7.666  10.243
 6253W        W10214   0.836   8.689   9.296
 6254W        W10215   1.205   8.503   7.418
 6255W        W10216   0.008  10.262   9.963
 6256W        W10217   1.593   8.971   9.406
 6257W        W10218   1.416   7.996   7.511
 6258W        W10219   0.551   8.812   8.292
 6259W        W10220   0.322  10.664   9.729
 6260W        W10221   3.117   8.890   7.837
 6261W        W10222   3.212   7.806  10.523
 6262W        W10223   2.648  10.015   8.486
 6263W        W10224   0.246   8.939  10.663
 6264W        W10225   3.212   7.403   7.959
 6265W        W10226   2.732   9.878   7.970
 6266W        W10227   1.634   8.936   8.055
 6267W        W10228   2.821   7.740   7.578
 6268W        W10229   2.886   8.347   9.764
 6269W        W10230   0.595   8.940   8.971
 6270W        W10231   0.889   9.879   8.620
 6271W        W10232   2.652   8.499   8.585
 6272W        W10233   1.675   7.878   9.281
 6273W        W10234   3.637   9.789   9.792
 6274W        W10235   3.555   7.776   9.353
 6275W        W10236   0.094  10.606   8.729
 6276W        W10237   0.603   9.793   8.265
 6277W        W10238   0.518   7.410  10.818
 6278W        W10239   1.637  10.263  10.920
 6279W        W10240   3.392   9.231   8.710
 6280W        W10241   2.746   9.408   7.590
 6281W        W10242   2.041  10.929   9.802
 6282W        W10243   2.898   9.651  10.839
 6283W        W10244   1.713   7.361   8.119
 6284W        W10245   2.426   8.230   8.978
 6285W        W10246   0.112   9.817   9.310
 6286W        W10247   1.365   7.779   7.951
 6287W        W10248   1.169   9.263  10.800
 6288W        W10249   2.163   8.244   8.514
 6289W        W10250   2.368   9.654   9.636
 6290W        W10251   0.522  10.259  10.071
 6291W        W10252   1.113  10.242  10.794
 6292W        W10253   0.964   8.039   7.808
 6293W        W10254   2.481   8.181   8.133
 6294W        W10255   2.439  10.289  10.370
 6295W        W10256   1.124   8.881   8.969
 6296W        W10257   0.779  10.579   9.834
 6297W        W10258   3.524  10.696   7.435
 6298W        W10259   0.387   9.368  10.431
 6299W        W10260   2.382   9.630   9.119
 6300W        W10261   0.818   9.279   8.361
 6301W        W10262   1.189  10.286   9.756
 6302W        W10263   1.567   7.705   8.797
 6303W        W10264   0.178   9.689   7.727
 6304W        W10265   1.697   8.640   7.597
 6305W        W10266   0.343   9.189   8.616
 6306W        W10267   1.633   7.831  10.080
 6307W        W10268   3.305   7.540   7.507
 6308W        W10269   3.398   9.286  10.606
 6309W        W10270   2.052  10.543  10.758
 6310W        W10271   3.610   9.637  10.280
 6311W        W10272   3.018  10.435  10.891
 6312W        W10273   0.757  10.891   9.369
 6313W        W10274   3.616   9.513   8.243
 6314W        W10275   2.146   8.780   8.756
 6315W        W10276   1.913   7.392   8.646
 6316W        W10277   0.972  10.376   8.483
 6317W        W10278   1.471   8.117   9.708
 6318W        W10279   1.171   7.486   9.177
 6319W        W10280   0.234  10.308   7.725
 6320W        W10281   2.050   9.672   8.443
 6321W        W10282   0.925  10.467  10.322
 6322W        W10283   0.402   9.290   8.018
 6323W        W10284   0.287   7.833   9.017
 6324W        W10285   1.835   9.798   9.074
 6325W        W10286   0.087   7.652   8.094
 6326W        W10287   2.751   8.858  10.021
 6327W        W10288   2.628   8.244   7.593
 6328W        W10289   3.145   9.916   9.241
 6329W        W10290   1.806  10.400   9.072
 6330W        W10291   1.218  10.504   7.983
 6331W        W10292   2.500   7.407   7.413
 6332W        W10293   0.300  10.667   9.154
 6333W        W10294   2.497   8.425  10.789
 6334W        W10295   0.480   7.955  10.788
 6335W        W10296   0.211   8.555   8.121
 6336W        W10297   0.902   8.544   7.846
 6337W        W10298   2.665   8.871  10.663
 6338W        W10299   1.008   9.152   9.372
 6339W        W10300   2.482   7.438   8.492
 6340W        W10301   1.613  10.869   8.995
 6341W        W10302   2.827  10.331   9.932
 6342W        W10303   2.411  10.480   9.043
 6343W        W10304   2.430   9.460   8.637
 6344W        W10305   1.892   7.685   7.708
 6345W        W10306   3.573   7.313   8.430
 6346W        W10307   1.261   8.948   7.593
 6347W        W10308   3.427   8.285   8.583
 6348W        W10309   2.119   9.455   7.460
 6349W        W10310   3.055   9.655  10.208
 6350W        W10311   2.709  10.356   7.675
 6351W        W10312   1.324   8.031  10.581
 6352W        W10313   1.144   8.615   9.822
 6353W        W10314   3.236  10.110  10.099
 6354W        W10315   2.336   8.060  10.476
 6355W        W10316   0.180   8.531  10.253
 6356W        W10317   1.940   9.008   9.979
 6357W        W10318   0.297   9.766   8.636
 6358W        W10319   0.444   9.063   9.526
 6359W        W10320   2.761   9.349   9.876
 6360W        W10321   2.533  10.729  10.687
 6361W        W10322   2.429   8.468  10.240
 6362W        W10323   2.706  10.522   8.645
 6363W        W10324   1.708  10.242   9.968
 6364W        W10325   1.193  10.597   9.237
 6365W        W10326   2.998   9.768   9.656
 6366W        W10327   2.048   9.840  10.793
 6367W        W10328   0.653   9.793   9.132
 6368W        W10329   2.999   9.552   8.777
 6369W        W10330   2.640  10.618   9.528
 6370W        W10331   1.639   8.399  10.608
 6371W        W10332   2.090  10.565   8.119
 6372W        W10333   1.398   9.820  10.757
 6373W        W10334   1.524  10.058   8.134
 6374W        W10335   0.745   8.798   7.393
 6375W        W10336   0.084  10.884  14.292
 6376W        W10337   0.460   9.777  13.815
 6377W        W10338   3.165   9.507  11.585
 6378W        W10339   3.295  10.592  13.612
 6379W        W10340   1.213  10.583  11.138
 6380W        W10341   1.296   8.735  12.121
 6381W        W10342   0.811   8.583  12.285
 6382W        W10343   1.802   9.398  11.719
 6383W        W10344   1.477  10.490  14.074
 6384W        W10345   0.126   8.051  14.037
 6385W        W10346   0.888   7.331  13.839
 6386W        W10347   2.582   7.719  12.726
 6387W        W10348   2.231   8.590  11.296
 6388W        W10349   2.801   8.024  14.387
 6389W        W10350   0.167   7.816  13.512
 6390W        W10351   0.266  10.435  14.533
 6391W        W10352   1.788   9.825  11.265
 6392W        W10353   0.220   8.608  12.958
 6393W        W10354   1.113   8.499  14.195
 6394W        W10355   3.572   8.358  12.694
 6395W        W10356   3.336   9.401  13.553
 6396W        W10357   1.644   8.734  12.580
 6397W        W10358   2.190  10.073  12.949
 6398W        W10359   0.690   9.507  13.181
 6399W        W10360   0.049   9.035  12.752
 6400W        W10361   1.085   9.007  13.944
 6401W        W10362   3.356   8.790  14.198
 6402W        W10363   0.972  10.234  12.643
 6403W        W10364   2.093   9.923  13.777
 6404W        W10365   1.313   8.563  13.002
 6405W        W10366   1.605   9.347  12.645
 6406W        W10367   2.602  10.120  14.493
 6407W        W10368   1.681   9.440  14.503
 6408W        W10369   1.662   9.156  13.981
 6409W        W10370   0.071   8.547  14.503
 6410W        W10371   2.903  10.082  14.102
 6411W        W10372   0.484   7.664  12.100
 6412W        W10373   1.011   9.922  13.099
 6413W        W10374   3.474   9.705  12.389
 6414W        W10375   2.887   8.105  12.956
 6415W        W10376   3.172   8.058  11.051
 6416W        W10377   3.637   8.859  13.357
 6417W        W10378   1.604  10.566  13.110
 6418W        W10379   3.378  10.032  11.548
 6419W        W10380   0.507  10.818  11.302
 6420W        W10381   0.900  10.864  11.978
 6421W        W10382   0.697   7.618  13.404
 6422W        W10383   3.320   8.636  13.679
 6423W        W10384   2.725   9.058  12.138
 6424W        W10385   2.691   8.746  11.165
 6425W        W10386   1.899   9.890  13.305
 6426W        W10387   1.705   8.220  12.504
 6427W        W10388   2.305  10.307  13.498
 6428W        W10389   3.176   9.098  11.920
 6429W        W10390   2.078   7.756  11.936
 6430W        W10391   0.735  10.450  11.619
 6431W        W10392   0.106   7.949  12.218
 6432W        W10393   2.892   8.556  12.692
 6433W        W10394   0.350  10.173  12.607
 6434W        W10395   1.691  10.523  11.477
 6435W        W10396   3.083   8.549  10.941
 6436W        W10397   0.106  10.307  13.105
 6437W        W10398   0.897   9.879  13.585
 6438W        W10399   1.270   9.239  12.204
 6439W        W10400   1.292   7.644  13.297
 6440W        W10401   3.521   7.406  12.594
 6441W        W10402   0.740   9.278  11.062
 6442W        W10403   0.395   8.311  11.241
 6443W        W10404   0.457  10.267  12.035
 6444W        W10405   1.588   9.750  12.283
 6445W        W10406   2.920  10.609  13.997
 6446W        W10407   1.846   8.251  11.681
 6447W        W10408   3.229  10.649  12.453
 6448W        W10409   2.906   8.502  14.051
 6449W        W10410   3.619  10.158  12.185
 6450W        W10411   2.246   9.450  13.669
 6451W        W10412   0.012   9.001  11.875
 6452W        W10413   1.123   9.416  13.448
 6453W        W10414   2.327   8.680  11.826
 6454W        W10415   2.204   9.170  11.930
 6455W        W10416   0.547   8.590  13.404
 6456W        W10417   0.532   8.466  14.326
 6457W        W10418   0.422   7.383  12.485
 6458W        W10419   2.190   7.730  13.046
 6459W        W10420   1.838   7.915  14.209
 6460W        W10421   2.193   8.064  11.387
 6461W        W10422   3.376  10.457  14.141
 6462W        W10423   2.343   7.538  14.180
 6463W        W10424   3.362   9.839  14.302
 6464W        W10425   2.792   8.006  13.898
 6465W        W10426   2.592   7.944  12.168
 6466W        W10427   2.985   9.078  14.572
 6467W        W10428   0.725  10.654  12.558
 6468W        W10429   1.383   8.371  11.544
 6469W        W10430   0.952   7.655  14.208
 6470W        W10431   3.004   8.139  11.889
 6471W        W10432   3.371   8.621  11.834
 6472W        W10433   1.114  10.838  14.305
 6473W        W10434   1.040   7.374  11.540
 6474W        W10435   3.361   7.908  12.575
 6475W        W10436   3.511  10.157  11.020
 6476W        W10437   0.418   9.360  12.722
 6477W        W10438   2.335   7.947  10.952
 6478W        W10439   3.469  10.279  12.672
 6479W        W10440   3.508   7.473  13.422
 6480W        W10441   1.953   8.685  13.976
 6481W        W10442   2.046  10.024  11.679
 6482W        W10443   2.446   9.318  14.419
 6483W        W10444   2.120   7.295  12.728
 6484W        W10445   0.732   8.198  12.791
 6485W        W10446   0.286   9.398  13.565
 6486W        W10447   2.145  10.591  12.271
 6487W        W10448   3.339   8.188  13.143
 6488W        W10449   1.976  10.535  13.910
 6489W        W10450   3.319   9.594  11.115
 6490W        W10451   1.754   9.077  12.176
 6491W        W10452   3.606   7.588  13.917
 6492W        W10453   1.755   9.423  13.511
 6493W        W10454   1.972   8.309  12.956
 6494W        W10455   2.824   8.607  11.794
 6495W        W10456   3.111   8.340  11.436
 6496W        W10457   2.920  10.380  11.825
 6497W        W10458   2.754   9.983  12.621
 6498W        W10459   2.650   9.062  11.599
 6499W        W10460   2.083   9.272  12.585
 6500W        W10461   2.964   9.060  12.652
 6501W        W10462   0.339   8.075  13.076
 6502W        W10463   3.117   9.127  13.903
 6503W        W10464   3.468  10.745  13.049
 6504W        W10465   1.398  10.189  12.451
 6505W        W10466   2.405  10.722  13.775
 6506W        W10467   2.399   8.052  13.539
 6507W        W10468   1.606  10.760  13.600
 6508W        W10469   3.303   7.714  12.066
 6509W        W10470   3.094   9.033  13.367
 6510W        W10471   0.077   8.354  13.405
 6511W        W10472   2.937   8.149  12.423
 6512W        W10473   3.348   8.300  14.200
 6513W        W10474   2.233   9.999  12.418
 6514W        W10475   1.489  10.590  12.031
 6515W        W10476   0.604   7.770  11.289
 6516W        W10477   1.708   7.424  13.099
 6517W        W10478   0.736  10.544  10.947
 6518W        W10479   1.110   9.010  11.698
 6519W        W10480   1.764   9.639  14.011
 6520W        W10481   1.594   7.997  12.001
 6521W        W10482   2.950   7.594  12.429
 6522W        W10483   2.670  10.876  12.757
 6523W        W10484   2.082  10.524  13.097
 6524W        W10485   1.478   9.561  13.058
 6525W        W10486   3.248  10.284  13.184
 6526W        W10487   0.942   7.787  11.953
 6527W        W10488   1.464  10.084  12.913
 6528W        W10489   0.947   8.015  10.978
 6529W        W10490   1.748   8.624  13.372
 6530W        W10491   2.596   7.490  13.242
 6531W        W10492   0.016   9.333  13.127
 6532W        W10493   1.720   9.151  11.285
 6533W        W10494   0.988   7.466  11.055
 6534W        W10495   1.726   8.547  12.106
 6535W        W10496   2.696   7.523  13.805
 6536W        W10497   1.284   9.535  13.914
 6537W        W10498   2.088   9.317  14.131
 6538W        W10499   2.705   9.347  14.024
 6539W        W10500   1.989   7.487  14.529
 6540W        W10501   1.211   8.103  12.922
 6541W        W10502   0.637   8.059  12.320
 6542W        W10503   0.423  10.771  11.996
 6543W        W10504   1.755  10.101  14.121
 6544W        W10505   0.790   9.586  11.480
 6545W        W10506   2.470   8.971  12.701
 6546W        W10507   2.750   8.770  13.100
 6547W        W10508   1.955   9.444  13.034
 6548W        W10509   2.425   9.818  11.166
 6549W        W10510   2.097   7.839  12.494
 6550W        W10511   3.576   8.117  11.762
 6551W        W10512   0.070  10.706  13.793
 6552W        W10513   0.487   9.932  13.325
 6553W        W10514   0.054  10.778  11.557
 6554W        W10515   1.953   8.048  13.363
 6555W        W10516   1.316  10.071  11.212
 6556W        W10517   3.221  10.453  11.398
 6557W        W10518   2.196   9.106  11.412
 6558W        W10519   1.039   8.297  11.929
 6559W        W10520   1.871   8.207  10.981
 6560W        W10521   2.455   9.772  14.159
 6561W        W10522   2.808   7.678  11.776
 6562W        W10523   0.138   7.526  11.224
 6563W        W10524   1.424   9.845  13.514
 6564W        W10525   1.223   9.761  12.606
 6565W        W10526   0.965   9.713  11.004
 6566W        W10527   0.206   9.954  11.772
 6567W        W10528   0.710   9.024  14.214
 6568W        W10529   1.414   7.584  14.400
 6569W        W10530   2.123   7.726  13.756
 6570W        W10531   1.318   7.494  12.037
 6571W        W10532   2.377   7.571  11.542
 6572W        W10533   0.322   7.503  13.119
 6573W        W10534   0.370   8.466  12.489
 6574W        W10535   3.059   7.574  12.895
 6575W        W10536   0.481   8.072  11.709
 6576W        W10537   3.052   7.760  13.325
 6577W        W10538   3.448   8.963  11.010
 6578W        W10539   0.740   7.721  12.829
 6579W        W10540   1.854   8.293  13.769
 6580W        W10541   0.002   7.983  11.247
 6581W        W10542   0.788   9.372  13.808
 6582W        W10543   2.146   8.770  12.987
 6583W        W10544   2.013  10.849  11.283
 6584W        W10545   0.159   9.356  10.980
 6585W        W10546   0.894   9.767  14.106
 6586W        W10547   0.415   8.934  13.737
 6587W        W10548   1.406   9.039  13.531
 6588W        W10549   3.174   7.398  13.793
 6589W        W10550   3.572   9.008  13.784
 6590W        W10551   3.560   9.208  11.470
 6591W        W10552   2.423   9.540  11.569
 6592W        W10553   2.897  10.840  11.264
 6593W        W10554   2.074   8.830  14.406
 6594W        W10555   0.404   9.797  14.446
 6595W        W10556   3.610   7.719  14.398
 6596W        W10557   3.328   8.647  13.019
 6597W        W10558   1.636  10.777  14.496
 6598W        W10559   1.491   7.406  11.223
 6599W        W10560   3.030  10.005  11.166
 6600W        W10561   0.799   8.098  14.052
 6601W        W10562   1.233  10.092  13.914
 6602W        W10563   3.359   8.083  13.712
 6603W        W10564   2.570  10.742  11.680
 6604W        W10565   2.809   9.361  13.047
 6605W        W10566   1.059   7.777  13.714
 6606W        W10567   1.528   8.846  14.471
 6607W        W10568   1.031  10.025  11.665
 6608W        W10569   2.786   9.523  11.929
 6609W        W10570   0.554   8.149  13.653
 6610W        W10571   1.883  10.211  12.117
 6611W        W10572   3.633   8.771  12.298
 6612W        W10573   1.855   7.404  14.017
 6613W        W10574   2.635  10.109  13.096
 6614W        W10575   2.938  10.453  12.804
 6615W        W10576   2.157  10.255  11.232
 6616W        W10577   0.167  10.147  14.074
 6617W        W10578   0.910   8.139  13.312
 6618W        W10579   0.880   7.487  12.422
 6619W        W10580   2.501   8.329  13.114
 6620W        W10581   1.299   9.500  11.314
 6621W        W10582   3.297   9.442  12.813
 6622W        W10583   0.624  10.200  14.236
 6623W        W10584   3.011  10.882  12.033
 6624W        W10585   1.110   7.902  12.478
 6625W        W10586   0.879   9.395  12.568
 6626W        W10587   1.192  10.806  13.318
 6627W        W10588   3.259  10.902  14.350
 6628W        W10589   2.418   9.090  13.283
 6629W        W10590   0.267   8.888  11.198
 6630W        W10591   3.401  10.546  11.895
 6631W        W10592   3.238   7.870  11.514
 6632W        W10593   1.377   7.389  13.917
 6633W        W10594   3.083  10.191  12.375
 6634W        W10595   3.112   8.747  12.280
 6635W        W10596   1.229   8.420  12.496
 6636W        W10597   1.474   8.682  13.820
 6637W        W10598   2.585   9.835  13.683
 6638W        W10599   1.235   8.289  13.795
 6639W        W10600   1.214  10.755  12.411
 6640W        W10601   0.531  10.714  14.045
 6641W        W10602   0.643  10.075  11.175
 6642W        W10603   3.160   9.833  11.985
 6643W        W10604   0.764   8.625  13.871
 6644W        W10605   3.537   8.555  11.352
 6645W        W10606   1.282   9.612  11.823
 6646W        W10607   2.381   8.994  13.904
 6647W        W10608   2.272   8.622  13.448
 6648W        W10609   0.832   8.994  13.477
 6649W        W10610   3.042  10.882  13.306
 6650W        W10611   2.833   7.516  14.300
 6651W        W10612   0.497   7.666  13.887
 6652W        W10613   0.836   8.689  12.940
 6653W        W10614   1.205   8.503  11.062
 6654W        W10615   0.008  10.262  13.607
 6655W        W10616   1.593   8.971  13.050
 6656W        W10617   1.416   7.996  11.155
 6657W        W10618   0.551   8.812  11.936
 6658W        W10619   0.322  10.664  13.373
 6659W        W10620   3.117   8.890  11.481
 6660W        W10621   3.212   7.806  14.167
 6661W        W10622   2.648  10.015  12.130
 6662W        W10623   0.246   8.939  14.307
 6663W        W10624   3.212   7.403  11.603
 6664W        W10625   2.732   9.878  11.614
 6665W        W10626   1.634   8.936  11.699
 6666W        W10627   2.821   7.740  11.222
 6667W        W10628   2.886   8.347  13.408
 6668W        W10629   0.595   8.940  12.615
 6669W        W10630   0.889   9.879  12.264
 6670W        W10631   2.652   8.499  12.229
 6671W        W10632   1.675   7.878  12.925
 6672W        W10633   3.637   9.789  13.436
 6673W        W10634   3.555   7.776  12.997
 6674W        W10635   0.094  10.606  12.373
 6675W        W10636   0.603   9.793  11.909
 6676W        W10637   0.518   7.410  14.462
 6677W        W10638   1.637  10.263  14.564
 6678W        W10639   3.392   9.231  12.354
 6679W        W10640   2.746   9.408  11.234
 6680W        W10641   2.041  10.929  13.446
 6681W        W10642   2.898   9.651  14.483
 6682W        W10643   1.713   7.361  11.763
 6683W        W10644   2.426   8.230  12.622
 6684W        W10645   0.112   9.817  12.954
 6685W        W10646   1.365   7.779  11.595
 6686W        W10647   1.169   9.263  14.444
 6687W        W10648   2.163   8.244  12.158
 6688W        W10649   2.368   9.654  13.280
 6689W        W10650   0.522  10.259  13.715
 6690W        W10651   1.113  10.242  14.438
 6691W        W10652   0.964   8.039  11.452
 6692W        W10653   2.481   8.181  11.777
 6693W        W10654   2.439  10.289  14.014
 6694W        W10655   1.124   8.881  12.613
 6695W        W10656   0.779  10.579  13.478
 6696W        W10657   3.524  10.696  11.079
 6697W        W10658   0.387   9.368  14.075
 6698W        W10659   2.382   9.630  12.763
 6699W        W10660   0.818   9.279  12.005
 6700W        W10661   1.189  10.286  13.400
 6701W        W10662   1.567   7.705  12.441
 6702W        W10663   0.178   9.689  11.371
 6703W        W10664   1.697   8.640  11.241
 6704W        W10665   0.343   9.189  12.260
 6705W        W10666   1.633   7.831  13.724
 6706W        W10667   3.305   7.540  11.151
 6707W        W10668   3.398   9.286  14.250
 6708W        W10669   2.052  10.543  14.402
 6709W        W10670   3.610   9.637  13.924
 6710W        W10671   3.018  10.435  14.535
 6711W        W10672   0.757  10.891  13.013
 6712W        W10673   3.616   9.513  11.887
 6713W        W10674   2.146   8.780  12.400
 6714W        W10675   1.913   7.392  12.290
 6715W        W10676   0.972  10.376  12.127
 6716W        W10677   1.471   8.117  13.352
 6717W        W10678   1.171   7.486  12.821
 6718W        W10679   0.234  10.308  11.369
 6719W        W10680   2.050   9.672  12.087
 6720W        W10681   0.925  10.467  13.966
 6721W        W10682   0.402   9.290  11.662
 6722W        W10683   0.287   7.833  12.661
 6723W        W10684   1.835   9.798  12.718
 6724W        W10685   0.087   7.652  11.738
 6725W        W10686   2.751   8.858  13.665
 6726W        W10687   2.628   8.244  11.237
 6727W        W10688   3.145   9.916  12.885
 6728W        W10689   1.806  10.400  12.716
 6729W        W10690   1.218  10.504  11.627
 6730W        W10691   2.500   7.407  11.057
 6731W        W10692   0.300  10.667  12.798
 6732W        W10693   2.497   8.425  14.433
 6733W        W10694   0.480   7.955  14.432
 6734W        W10695   0.211   8.555  11.765
 6735W        W10696   0.902   8.544  11.490
 6736W        W10697   2.665   8.871  14.307
 6737W        W10698   1.008   9.152  13.016
 6738W        W10699   2.482   7.438  12.136
 6739W        W10700   1.613  10.869  12.639
 6740W        W10701   2.827  10.331  13.576
 6741W        W10702   2.411  10.480  12.687
 6742W        W10703   2.430   9.460  12.281
 6743W        W10704   1.892   7.685  11.352
 6744W        W10705   3.573   7.313  12.074
 6745W        W10706   1.261   8.948  11.237
 6746W        W10707   3.427   8.285  12.227
 6747W        W10708   2.119   9.455  11.104
 6748W        W10709   3.055   9.655  13.852
 6749W        W10710   2.709  10.356  11.319
 6750W        W10711   1.324   8.031  14.225
 6751W        W10712   1.144   8.615  13.466
 6752W        W10713   3.236  10.110  13.743
 6753W        W10714   2.336   8.060  14.120
 6754W        W10715   0.180   8.531  13.897
 6755W        W10716   1.940   9.008  13.623
 6756W        W10717   0.297   9.766  12.280
 6757W        W10718   0.444   9.063  13.170
 6758W        W10719   2.761   9.349  13.520
 6759W        W10720   2.533  10.729  14.331
 6760W        W10721   2.429   8.468  13.884
 6761W        W10722   2.706  10.522  12.289
 6762W        W10723   1.708  10.242  13.612
 6763W        W10724   1.193  10.597  12.881
 6764W        W10725   2.998   9.768  13.300
 6765W        W10726   2.048   9.840  14.437
 6766W        W10727   0.653   9.793  12.776
 6767W        W10728   2.999   9.552  12.421
 6768W        W10729   2.640  10.618  13.172
 6769W        W10730   0.618  10.347  13.042
 6770W        W10731   1.639   8.399  14.252
 6771W        W10732   2.090  10.565  11.763
 6772W        W10733   1.398   9.820  14.401
 6773W        W10734   1.524  10.058  11.778
 6774W        W10735   0.745   8.798  11.037
 6775W        W10736   0.084  10.884  17.936
 6776W        W10737   0.460   9.777  17.459
 6777W        W10738   3.165   9.507  15.229
 6778W        W10739   3.295  10.592  17.256
 6779W        W10740   1.213  10.583  14.782
 6780W        W10741   1.296   8.735  15.765
 6781W        W10742   0.811   8.583  15.929
 6782W        W10743   1.802   9.398  15.363
 6783W        W10744   1.477  10.490  17.718
 6784W        W10745   0.126   8.051  17.681
 6785W        W10746   0.888   7.331  17.483
 6786W        W10747   2.582   7.719  16.370
 6787W        W10748   2.231   8.590  14.940
 6788W        W10749   2.801   8.024  18.031
 6789W        W10750   0.167   7.816  17.156
 6790W        W10751   0.266  10.435  18.177
 6791W        W10752   1.788   9.825  14.909
 6792W        W10753   0.220   8.608  16.602
 6793W        W10754   1.113   8.499  17.839
 6794W        W10755   3.572   8.358  16.338
 6795W        W10756   3.336   9.401  17.197
 6796W        W10757   1.644   8.734  16.224
 6797W        W10758   2.190  10.073  16.593
 6798W        W10759   0.690   9.507  16.825
 6799W        W10760   0.049   9.035  16.396
 6800W        W10761   1.085   9.007  17.588
 6801W        W10762   3.356   8.790  17.842
 6802W        W10763   0.972  10.234  16.287
 6803W        W10764   2.093   9.923  17.421
 6804W        W10765   1.313   8.563  16.646
 6805W        W10766   1.605   9.347  16.289
 6806W        W10767   2.602  10.120  18.137
 6807W        W10768   1.681   9.440  18.147
 6808W        W10769   1.662   9.156  17.625
 6809W        W10770   0.071   8.547  18.147
 6810W        W10771   2.903  10.082  17.746
 6811W        W10772   0.484   7.664  15.744
 6812W        W10773   1.011   9.922  16.743
 6813W        W10774   3.474   9.705  16.033
 6814W        W10775   2.887   8.105  16.600
 6815W        W10776   3.172   8.058  14.695
 6816W        W10777   3.637   8.859  17.001
 6817W        W10778   1.604  10.566  16.754
 6818W        W10779   3.378  10.032  15.192
 6819W        W10780   0.507  10.818  14.946
 6820W        W10781   0.900  10.864  15.622
 6821W        W10782   0.697   7.618  17.048
 6822W        W10783   3.320   8.636  17.323
 6823W        W10784   2.725   9.058  15.782
 6824W        W10785   2.691   8.746  14.809
 6825W        W10786   1.899   9.890  16.949
 6826W        W10787   1.705   8.220  16.148
 6827W        W10788   2.305  10.307  17.142
 6828W        W10789   3.176   9.098  15.564
 6829W        W10790   2.078   7.756  15.580
 6830W        W10791   0.735  10.450  15.263
 6831W        W10792   0.106   7.949  15.862
 6832W        W10793   2.892   8.556  16.336
 6833W        W10794   0.350  10.173  16.251
 6834W        W10795   1.691  10.523  15.121
 6835W        W10796   3.083   8.549  14.585
 6836W        W10797   0.106  10.307  16.749
 6837W        W10798   0.897   9.879  17.229
 6838W        W10799   1.270   9.239  15.848
 6839W        W10800   1.292   7.644  16.941
 6840W        W10801   3.521   7.406  16.238
 6841W        W10802   0.740   9.278  14.706
 6842W        W10803   0.395   8.311  14.885
 6843W        W10804   0.457  10.267  15.679
 6844W        W10805   1.588   9.750  15.927
 6845W        W10806   2.920  10.609  17.641
 6846W        W10807   1.846   8.251  15.325
 6847W        W10808   3.229  10.649  16.097
 6848W        W10809   2.906   8.502  17.695
 6849W        W10810   3.619  10.158  15.829
 6850W        W10811   2.246   9.450  17.313
 6851W        W10812   0.012   9.001  15.519
 6852W        W10813   1.123   9.416  17.092
 6853W        W10814   2.327   8.680  15.470
 6854W        W10815   2.204   9.170  15.574
 6855W        W10816   0.547   8.590  17.048
 6856W        W10817   0.532   8.466  17.970
 6857W        W10818   0.422   7.383  16.129
 6858W        W10819   2.190   7.730  16.690
 6859W        W10820   1.838   7.915  17.853
 6860W        W10821   2.193   8.064  15.031
 6861W        W10822   3.376  10.457  17.785
 6862W        W10823   2.343   7.538  17.824
 6863W        W10824   3.362   9.839  17.946
 6864W        W10825   2.792   8.006  17.542
 6865W        W10826   2.592   7.944  15.812
 6866W        W10827   2.985   9.078  18.216
 6867W        W10828   0.725  10.654  16.202
 6868W        W10829   1.383   8.371  15.188
 6869W        W10830   0.952   7.655  17.852
 6870W        W10831   3.004   8.139  15.533
 6871W        W10832   3.371   8.621  15.478
 6872W        W10833   1.114  10.838  17.949
 6873W        W10834   1.040   7.374  15.184
 6874W        W10835   3.361   7.908  16.219
 6875W        W10836   3.511  10.157  14.664
 6876W        W10837   0.418   9.360  16.366
 6877W        W10838   2.335   7.947  14.596
 6878W        W10839   3.469  10.279  16.316
 6879W        W10840   3.508   7.473  17.066
 6880W        W10841   1.953   8.685  17.620
 6881W        W10842   2.046  10.024  15.323
 6882W        W10843   2.446   9.318  18.063
 6883W        W10844   2.120   7.295  16.372
 6884W        W10845   0.732   8.198  16.435
 6885W        W10846   0.286   9.398  17.209
 6886W        W10847   2.145  10.591  15.915
 6887W        W10848   3.339   8.188  16.787
 6888W        W10849   1.976  10.535  17.554
 6889W        W10850   3.319   9.594  14.759
 6890W        W10851   1.754   9.077  15.820
 6891W        W10852   3.606   7.588  17.561
 6892W        W10853   1.755   9.423  17.155
 6893W        W10854   1.972   8.309  16.600
 6894W        W10855   2.824   8.607  15.438
 6895W        W10856   3.111   8.340  15.080
 6896W        W10857   2.920  10.380  15.469
 6897W        W10858   2.754   9.983  16.265
 6898W        W10859   2.650   9.062  15.243
 6899W        W10860   2.083   9.272  16.229
 6900W        W10861   2.964   9.060  16.296
 6901W        W10862   0.339   8.075  16.720
 6902W        W10863   3.117   9.127  17.547
 6903W        W10864   3.468  10.745  16.693
 6904W        W10865   1.398  10.189  16.095
 6905W        W10866   2.405  10.722  17.419
 6906W        W10867   2.399   8.052  17.183
 6907W        W10868   1.606  10.760  17.244
 6908W        W10869   3.303   7.714  15.710
 6909W        W10870   3.094   9.033  17.011
 6910W        W10871   0.077   8.354  17.049
 6911W        W10872   2.937   8.149  16.067
 6912W        W10873   3.348   8.300  17.844
 6913W        W10874   2.233   9.999  16.062
 6914W        W10875   1.489  10.590  15.675
 6915W        W10876   0.604   7.770  14.933
 6916W        W10877   1.708   7.424  16.743
 6917W        W10878   0.736  10.544  14.591
 6918W        W10879   1.110   9.010  15.342
 6919W        W10880   1.764   9.639  17.655
 6920W        W10881   1.594   7.997  15.645
 6921W        W10882   2.950   7.594  16.073
 6922W        W10883   2.670  10.876  16.401
 6923W        W10884   2.082  10.524  16.741
 6924W        W10885   1.478   9.561  16.702
 6925W        W10886   3.248  10.284  16.828
 6926W        W10887   0.942   7.787  15.597
 6927W        W10888   1.464  10.084  16.557
 6928W        W10889   0.947   8.015  14.622
 6929W        W10890   1.748   8.624  17.016
 6930W        W10891   2.596   7.490  16.886
 6931W        W10892   0.016   9.333  16.771
 6932W        W10893   1.720   9.151  14.929
 6933W        W10894   0.988   7.466  14.699
 6934W        W10895   1.726   8.547  15.750
 6935W        W10896   2.696   7.523  17.449
 6936W        W10897   1.284   9.535  17.558
 6937W        W10898   2.088   9.317  17.775
 6938W        W10899   2.705   9.347  17.668
 6939W        W10900   1.989   7.487  18.173
 6940W        W10901   1.211   8.103  16.566
 6941W        W10902   0.637   8.059  15.964
 6942W        W10903   0.423  10.771  15.640
 6943W        W10904   1.755  10.101  17.765
 6944W        W10905   0.790   9.586  15.124
 6945W        W10906   2.470   8.971  16.345
 6946W        W10907   2.750   8.770  16.744
 6947W        W10908   1.955   9.444  16.678
 6948W        W10909   2.425   9.818  14.810
 6949W        W10910   2.097   7.839  16.138
 6950W        W10911   3.576   8.117  15.406
 6951W        W10912   0.070  10.706  17.437
 6952W        W10913   0.487   9.932  16.969
 6953W        W10914   0.054  10.778  15.201
 6954W        W10915   1.953   8.048  17.007
 6955W        W10916   1.316  10.071  14.856
 6956W        W10917   3.221  10.453  15.042
 6957W        W10918   2.196   9.106  15.056
 6958W        W10919   1.039   8.297  15.573
 6959W        W10920   1.871   8.207  14.625
 6960W        W10921   2.455   9.772  17.803
 6961W        W10922   2.808   7.678  15.420
 6962W        W10923   0.138   7.526  14.868
 6963W        W10924   1.424   9.845  17.158
 6964W        W10925   1.223   9.761  16.250
 6965W        W10926   0.965   9.713  14.648
 6966W        W10927   0.206   9.954  15.416
 6967W        W10928   0.710   9.024  17.858
 6968W        W10929   1.414   7.584  18.044
 6969W        W10930   2.123   7.726  17.400
 6970W        W10931   1.318   7.494  15.681
 6971W        W10932   2.377   7.571  15.186
 6972W        W10933   0.322   7.503  16.763
 6973W        W10934   0.370   8.466  16.133
 6974W        W10935   3.059   7.574  16.539
 6975W        W10936   0.481   8.072  15.353
 6976W        W10937   3.052   7.760  16.969
 6977W        W10938   3.448   8.963  14.654
 6978W        W10939   0.740   7.721  16.473
 6979W        W10940   1.854   8.293  17.413
 6980W        W10941   0.002   7.983  14.891
 6981W        W10942   0.788   9.372  17.452
 6982W        W10943   2.146   8.770  16.631
 6983W        W10944   2.013  10.849  14.927
 6984W        W10945   0.159   9.356  14.624
 6985W        W10946   0.894   9.767  17.750
 6986W        W10947   0.415   8.934  17.381
 6987W        W10948   1.406   9.039  17.175
 6988W        W10949   3.174   7.398  17.437
 6989W        W10950   3.572   9.008  17.428
 6990W        W10951   3.560   9.208  15.114
 6991W        W10952   2.423   9.540  15.213
 6992W        W10953   2.897  10.840  14.908
 6993W        W10954   2.074   8.830  18.050
 6994W        W10955   0.404   9.797  18.090
 6995W        W10956   3.610   7.719  18.042
 6996W        W10957   3.328   8.647  16.663
 6997W        W10958   1.636  10.777  18.140
 6998W        W10959   1.491   7.406  14.867
 6999W        W10960   3.030  10.005  14.810
 7000W        W10961   0.799   8.098  17.696
 7001W        W10962   1.233  10.092  17.558
 7002W        W10963   3.359   8.083  17.356
 7003W        W10964   2.570  10.742  15.324
 7004W        W10965   2.809   9.361  16.691
 7005W        W10966   1.059   7.777  17.358
 7006W        W10967   1.528   8.846  18.115
 7007W        W10968   1.031  10.025  15.309
 7008W        W10969   2.786   9.523  15.573
 7009W        W10970   0.554   8.149  17.297
 7010W        W10971   1.883  10.211  15.761
 7011W        W10972   3.633   8.771  15.942
 7012W        W10973   1.855   7.404  17.661
 7013W        W10974   2.635  10.109  16.740
 7014W        W10975   2.938  10.453  16.448
 7015W        W10976   2.157  10.255  14.876
 7016W        W10977   0.167  10.147  17.718
 7017W        W10978   0.910   8.139  16.956
 7018W        W10979   0.880   7.487  16.066
 7019W        W10980   2.501   8.329  16.758
 7020W        W10981   1.299   9.500  14.958
 7021W        W10982   3.297   9.442  16.457
 7022W        W10983   0.624  10.200  17.880
 7023W        W10984   3.011  10.882  15.677
 7024W        W10985   1.110   7.902  16.122
 7025W        W10986   0.879   9.395  16.212
 7026W        W10987   1.192  10.806  16.962
 7027W        W10988   3.259  10.902  17.994
 7028W        W10989   2.418   9.090  16.927
 7029W        W10990   0.267   8.888  14.842
 7030W        W10991   3.401  10.546  15.539
 7031W        W10992   3.238   7.870  15.158
 7032W        W10993   1.377   7.389  17.561
 7033W        W10994   3.083  10.191  16.019
 7034W        W10995   3.112   8.747  15.924
 7035W        W10996   1.229   8.420  16.140
 7036W        W10997   1.474   8.682  17.464
 7037W        W10998   2.585   9.835  17.327
 7038W        W10999   1.235   8.289  17.439
 7039W        W11000   1.214  10.755  16.055
 7040W        W11001   0.531  10.714  17.689
 7041W        W11002   0.643  10.075  14.819
 7042W        W11003   3.160   9.833  15.629
 7043W        W11004   0.764   8.625  17.515
 7044W        W11005   3.537   8.555  14.996
 7045W        W11006   1.282   9.612  15.467
 7046W        W11007   2.381   8.994  17.548
 7047W        W11008   2.272   8.622  17.092
 7048W        W11009   0.832   8.994  17.121
 7049W        W11010   3.042  10.882  16.950
 7050W        W11011   2.833   7.516  17.944
 7051W        W11012   0.497   7.666  17.531
 7052W        W11013   0.836   8.689  16.584
 7053W        W11014   1.205   8.503  14.706
 7054W        W11015   0.008  10.262  17.251
 7055W        W11016   1.593   8.971  16.694
 7056W        W11017   1.416   7.996  14.799
 7057W        W11018   0.551   8.812  15.580
 7058W        W11019   0.322  10.664  17.017
 7059W        W11020   3.117   8.890  15.125
 7060W        W11021   3.212   7.806  17.811
 7061W        W11022   2.648  10.015  15.774
 7062W        W11023   0.246   8.939  17.951
 7063W        W11024   3.212   7.403  15.247
 7064W        W11025   2.732   9.878  15.258
 7065W        W11026   1.634   8.936  15.343
 7066W        W11027   2.821   7.740  14.866
 7067W        W11028   2.886   8.347  17.052
 7068W        W11029   0.595   8.940  16.259
 7069W        W11030   0.889   9.879  15.908
 7070W        W11031   2.652   8.499  15.873
 7071W        W11032   1.675   7.878  16.569
 7072W        W11033   3.637   9.789  17.080
 7073W        W11034   3.555   7.776  16.641
 7074W        W11035   0.094  10.606  16.017
 7075W        W11036   0.603   9.793  15.553
 7076W        W11037   0.518   7.410  18.106
 7077W        W11038   1.637  10.263  18.208
 7078W        W11039   3.392   9.231  15.998
 7079W        W11040   2.746   9.408  14.878
 7080W        W11041   2.041  10.929  17.090
 7081W        W11042   2.898   9.651  18.127
 7082W        W11043   1.713   7.361  15.407
 7083W        W11044   2.426   8.230  16.266
 7084W        W11045   0.112   9.817  16.598
 7085W        W11046   1.365   7.779  15.239
 7086W        W11047   1.169   9.263  18.088
 7087W        W11048   2.163   8.244  15.802
 7088W        W11049   2.368   9.654  16.924
 7089W        W11050   0.522  10.259  17.359
 7090W        W11051   1.113  10.242  18.082
 7091W        W11052   0.964   8.039  15.096
 7092W        W11053   2.481   8.181  15.421
 7093W        W11054   2.439  10.289  17.658
 7094W        W11055   1.124   8.881  16.257
 7095W        W11056   0.779  10.579  17.122
 7096W        W11057   3.524  10.696  14.723
 7097W        W11058   0.387   9.368  17.719
 7098W        W11059   2.382   9.630  16.407
 7099W        W11060   0.818   9.279  15.649
 7100W        W11061   1.189  10.286  17.044
 7101W        W11062   1.567   7.705  16.085
 7102W        W11063   0.178   9.689  15.015
 7103W        W11064   1.697   8.640  14.885
 7104W        W11065   0.343   9.189  15.904
 7105W        W11066   1.633   7.831  17.368
 7106W        W11067   3.305   7.540  14.795
 7107W        W11068   3.398   9.286  17.894
 7108W        W11069   2.052  10.543  18.046
 7109W        W11070   3.610   9.637  17.568
 7110W        W11071   3.018  10.435  18.179
 7111W        W11072   0.757  10.891  16.657
 7112W        W11073   3.616   9.513  15.531
 7113W        W11074   2.146   8.780  16.044
 7114W        W11075   1.913   7.392  15.934
 7115W        W11076   0.972  10.376  15.771
 7116W        W11077   1.471   8.117  16.996
 7117W        W11078   1.171   7.486  16.465
 7118W        W11079   0.234  10.308  15.013
 7119W        W11080   2.050   9.672  15.731
 7120W        W11081   0.925  10.467  17.610
 7121W        W11082   0.402   9.290  15.306
 7122W        W11083   0.287   7.833  16.305
 7123W        W11084   1.835   9.798  16.362
 7124W        W11085   0.087   7.652  15.382
 7125W        W11086   2.751   8.858  17.309
 7126W        W11087   2.628   8.244  14.881
 7127W        W11088   3.145   9.916  16.529
 7128W        W11089   1.806  10.400  16.360
 7129W        W11090   1.218  10.504  15.271
 7130W        W11091   2.500   7.407  14.701
 7131W        W11092   0.300  10.667  16.442
 7132W        W11093   2.497   8.425  18.077
 7133W        W11094   0.480   7.955  18.076
 7134W        W11095   0.211   8.555  15.409
 7135W        W11096   0.902   8.544  15.134
 7136W        W11097   2.665   8.871  17.951
 7137W        W11098   1.008   9.152  16.660
 7138W        W11099   2.482   7.438  15.780
 7139W        W11100   1.613  10.869  16.283
 7140W        W11101   2.827  10.331  17.220
 7141W        W11102   2.411  10.480  16.331
 7142W        W11103   2.430   9.460  15.925
 7143W        W11104   1.892   7.685  14.996
 7144W        W11105   3.573   7.313  15.718
 7145W        W11106   1.261   8.948  14.881
 7146W        W11107   3.427   8.285  15.871
 7147W        W11108   2.119   9.455  14.748
 7148W        W11109   3.055   9.655  17.496
 7149W        W11110   2.709  10.356  14.963
 7150W        W11111   1.324   8.031  17.869
 7151W        W11112   1.144   8.615  17.110
 7152W        W11113   3.236  10.110  17.387
 7153W        W11114   2.336   8.060  17.764
 7154W        W11115   0.180   8.531  17.541
 7155W        W11116   1.940   9.008  17.267
 7156W        W11117   0.297   9.766  15.924
 7157W        W11118   0.444   9.063  16.814
 7158W        W11119   2.761   9.349  17.164
 7159W        W11120   2.533  10.729  17.975
 7160W        W11121   2.429   8.468  17.528
 7161W        W11122   2.706  10.522  15.933
 7162W        W11123   1.708  10.242  17.256
 7163W        W11124   1.193  10.597  16.525
 7164W        W11125   2.998   9.768  16.944
 7165W        W11126   2.048   9.840  18.081
 7166W        W11127   0.653   9.793  16.420
 7167W        W11128   2.999   9.552  16.065
 7168W        W11129   2.640  10.618  16.816
 7169W        W11130   0.618  10.347  16.686
 7170W        W11131   1.639   8.399  17.896
 7171W        W11132   2.090  10.565  15.407
 7172W        W11133   1.398   9.820  18.045
 7173W        W11134   1.524  10.058  15.422
 7174W        W11135   0.745   8.798  14.681
 7175W        W11136   0.084  10.884  21.580
 7176W        W11137   0.460   9.777  21.103
 7177W        W11138   3.165   9.507  18.873
 7178W        W11139   3.295  10.592  20.900
 7179W        W11140   1.213  10.583  18.426
 7180W        W11141   1.296   8.735  19.409
 7181W        W11142   0.811   8.583  19.573
 7182W        W11143   1.802   9.398  19.007
 7183W        W11144   1.477  10.490  21.362
 7184W        W11145   0.126   8.051  21.325
 7185W        W11146   0.888   7.331  21.127
 7186W        W11147   2.582   7.719  20.014
 7187W        W11148   2.231   8.590  18.584
 7188W        W11149   2.801   8.024  21.675
 7189W        W11150   0.167   7.816  20.800
 7190W        W11151   0.266  10.435  21.821
 7191W        W11152   1.788   9.825  18.553
 7192W        W11153   0.220   8.608  20.246
 7193W        W11154   1.113   8.499  21.483
 7194W        W11155   3.572   8.358  19.982
 7195W        W11156   3.336   9.401  20.841
 7196W        W11157   1.644   8.734  19.868
 7197W        W11158   2.190  10.073  20.237
 7198W        W11159   0.690   9.507  20.469
 7199W        W11160   0.049   9.035  20.040
 7200W        W11161   1.085   9.007  21.232
 7201W        W11162   3.356   8.790  21.486
 7202W        W11163   0.972  10.234  19.931
 7203W        W11164   2.093   9.923  21.065
 7204W        W11165   1.313   8.563  20.290
 7205W        W11166   1.605   9.347  19.933
 7206W        W11167   2.602  10.120  21.781
 7207W        W11168   1.681   9.440  21.791
 7208W        W11169   1.662   9.156  21.269
 7209W        W11170   0.071   8.547  21.791
 7210W        W11171   2.903  10.082  21.390
 7211W        W11172   0.484   7.664  19.388
 7212W        W11173   1.011   9.922  20.387
 7213W        W11174   3.474   9.705  19.677
 7214W        W11175   2.887   8.105  20.244
 7215W        W11176   3.172   8.058  18.339
 7216W        W11177   3.637   8.859  20.645
 7217W        W11178   1.604  10.566  20.398
 7218W        W11179   3.378  10.032  18.836
 7219W        W11180   0.507  10.818  18.590
 7220W        W11181   0.900  10.864  19.266
 7221W        W11182   0.697   7.618  20.692
 7222W        W11183   3.320   8.636  20.967
 7223W        W11184   2.725   9.058  19.426
 7224W        W11185   2.691   8.746  18.453
 7225W        W11186   1.899   9.890  20.593
 7226W        W11187   1.705   8.220  19.792
 7227W        W11188   2.305  10.307  20.786
 7228W        W11189   3.176   9.098  19.208
 7229W        W11190   2.078   7.756  19.224
 7230W        W11191   0.735  10.450  18.907
 7231W        W11192   0.106   7.949  19.506
 7232W        W11193   2.892   8.556  19.980
 7233W        W11194   0.350  10.173  19.895
 7234W        W11195   1.691  10.523  18.765
 7235W        W11196   3.083   8.549  18.229
 7236W        W11197   0.106  10.307  20.393
 7237W        W11198   0.897   9.879  20.873
 7238W        W11199   1.270   9.239  19.492
 7239W        W11200   1.292   7.644  20.585
 7240W        W11201   3.521   7.406  19.882
 7241W        W11202   0.740   9.278  18.350
 7242W        W11203   0.395   8.311  18.529
 7243W        W11204   0.457  10.267  19.323
 7244W        W11205   1.588   9.750  19.571
 7245W        W11206   2.920  10.609  21.285
 7246W        W11207   1.846   8.251  18.969
 7247W        W11208   3.229  10.649  19.741
 7248W        W11209   2.906   8.502  21.339
 7249W        W11210   3.619  10.158  19.473
 7250W        W11211   2.246   9.450  20.957
 7251W        W11212   0.012   9.001  19.163
 7252W        W11213   1.123   9.416  20.736
 7253W        W11214   2.327   8.680  19.114
 7254W        W11215   2.204   9.170  19.218
 7255W        W11216   0.547   8.590  20.692
 7256W        W11217   0.532   8.466  21.614
 7257W        W11218   0.422   7.383  19.773
 7258W        W11219   2.190   7.730  20.334
 7259W        W11220   1.838   7.915  21.497
 7260W        W11221   2.193   8.064  18.675
 7261W        W11222   3.376  10.457  21.429
 7262W        W11223   2.343   7.538  21.468
 7263W        W11224   3.362   9.839  21.590
 7264W        W11225   2.792   8.006  21.186
 7265W        W11226   2.592   7.944  19.456
 7266W        W11227   2.985   9.078  21.860
 7267W        W11228   0.725  10.654  19.846
 7268W        W11229   1.383   8.371  18.832
 7269W        W11230   0.952   7.655  21.496
 7270W        W11231   3.004   8.139  19.177
 7271W        W11232   3.371   8.621  19.122
 7272W        W11233   1.114  10.838  21.593
 7273W        W11234   1.040   7.374  18.828
 7274W        W11235   3.361   7.908  19.863
 7275W        W11236   3.511  10.157  18.308
 7276W        W11237   0.418   9.360  20.010
 7277W        W11238   2.335   7.947  18.240
 7278W        W11239   3.469  10.279  19.960
 7279W        W11240   3.508   7.473  20.710
 7280W        W11241   1.953   8.685  21.264
 7281W        W11242   2.046  10.024  18.967
 7282W        W11243   2.446   9.318  21.707
 7283W        W11244   2.120   7.295  20.016
 7284W        W11245   0.732   8.198  20.079
 7285W        W11246   0.286   9.398  20.853
 7286W        W11247   2.145  10.591  19.559
 7287W        W11248   3.339   8.188  20.431
 7288W        W11249   1.976  10.535  21.198
 7289W        W11250   3.319   9.594  18.403
 7290W        W11251   1.754   9.077  19.464
 7291W        W11252   3.606   7.588  21.205
 7292W        W11253   1.755   9.423  20.799
 7293W        W11254   1.972   8.309  20.244
 7294W        W11255   2.824   8.607  19.082
 7295W        W11256   3.111   8.340  18.724
 7296W        W11257   2.920  10.380  19.113
 7297W        W11258   2.754   9.983  19.909
 7298W        W11259   2.650   9.062  18.887
 7299W        W11260   2.083   9.272  19.873
 7300W        W11261   2.964   9.060  19.940
 7301W        W11262   0.339   8.075  20.364
 7302W        W11263   3.117   9.127  21.191
 7303W        W11264   3.468  10.745  20.337
 7304W        W11265   1.398  10.189  19.739
 7305W        W11266   2.405  10.722  21.063
 7306W        W11267   2.399   8.052  20.827
 7307W        W11268   1.606  10.760  20.888
 7308W        W11269   3.303   7.714  19.354
 7309W        W11270   3.094   9.033  20.655
 7310W        W11271   0.077   8.354  20.693
 7311W        W11272   2.937   8.149  19.711
 7312W        W11273   3.348   8.300  21.488
 7313W        W11274   2.233   9.999  19.706
 7314W        W11275   1.489  10.590  19.319
 7315W        W11276   0.604   7.770  18.577
 7316W        W11277   1.708   7.424  20.387
 7317W        W11278   0.736  10.544  18.235
 7318W        W11279   1.110   9.010  18.986
 7319W        W11280   1.764   9.639  21.299
 7320W        W11281   1.594   7.997  19.289
 7321W        W11282   2.950   7.594  19.717
 7322W        W11283   2.670  10.876  20.045
 7323W        W11284   2.082  10.524  20.385
 7324W        W11285   1.478   9.561  20.346
 7325W        W11286   3.248  10.284  20.472
 7326W        W11287   0.942   7.787  19.241
 7327W        W11288   1.464  10.084  20.201
 7328W        W11289   0.947   8.015  18.266
 7329W        W11290   1.748   8.624  20.660
 7330W        W11291   2.596   7.490  20.530
 7331W        W11292   0.016   9.333  20.415
 7332W        W11293   1.720   9.151  18.573
 7333W        W11294   0.988   7.466  18.343
 7334W        W11295   1.726   8.547  19.394
 7335W        W11296   2.696   7.523  21.093
 7336W        W11297   1.284   9.535  21.202
 7337W        W11298   2.088   9.317  21.419
 7338W        W11299   2.705   9.347  21.312
 7339W        W11300   1.989   7.487  21.817
 7340W        W11301   1.211   8.103  20.210
 7341W        W11302   0.637   8.059  19.608
 7342W        W11303   0.423  10.771  19.284
 7343W        W11304   1.755  10.101  21.409
 7344W        W11305   0.790   9.586  18.768
 7345W        W11306   2.470   8.971  19.989
 7346W        W11307   2.750   8.770  20.388
 7347W        W11308   1.955   9.444  20.322
 7348W        W11309   2.425   9.818  18.454
 7349W        W11310   2.097   7.839  19.782
 7350W        W11311   3.576   8.117  19.050
 7351W        W11312   0.070  10.706  21.081
 7352W        W11313   0.487   9.932  20.613
 7353W        W11314   0.054  10.778  18.845
 7354W        W11315   1.953   8.048  20.651
 7355W        W11316   1.316  10.071  18.500
 7356W        W11317   3.221  10.453  18.686
 7357W        W11318   2.196   9.106  18.700
 7358W        W11319   1.039   8.297  19.217
 7359W        W11320   1.871   8.207  18.269
 7360W        W11321   2.455   9.772  21.447
 7361W        W11322   2.808   7.678  19.064
 7362W        W11323   0.138   7.526  18.512
 7363W        W11324   1.424   9.845  20.802
 7364W        W11325   1.223   9.761  19.894
 7365W        W11326   0.965   9.713  18.292
 7366W        W11327   0.206   9.954  19.060
 7367W        W11328   0.710   9.024  21.502
 7368W        W11329   1.414   7.584  21.688
 7369W        W11330   2.123   7.726  21.044
 7370W        W11331   1.318   7.494  19.325
 7371W        W11332   2.377   7.571  18.830
 7372W        W11333   0.322   7.503  20.407
 7373W        W11334   0.370   8.466  19.777
 7374W        W11335   3.059   7.574  20.183
 7375W        W11336   0.481   8.072  18.997
 7376W        W11337   3.052   7.760  20.613
 7377W        W11338   3.448   8.963  18.298
 7378W        W11339   0.740   7.721  20.117
 7379W        W11340   1.854   8.293  21.057
 7380W        W11341   0.002   7.983  18.535
 7381W        W11342   0.788   9.372  21.096
 7382W        W11343   2.146   8.770  20.275
 7383W        W11344   2.013  10.849  18.571
 7384W        W11345   0.159   9.356  18.268
 7385W        W11346   0.894   9.767  21.394
 7386W        W11347   0.415   8.934  21.025
 7387W        W11348   1.406   9.039  20.819
 7388W        W11349   3.174   7.398  21.081
 7389W        W11350   3.572   9.008  21.072
 7390W        W11351   3.560   9.208  18.758
 7391W        W11352   2.423   9.540  18.857
 7392W        W11353   2.897  10.840  18.552
 7393W        W11354   2.074   8.830  21.694
 7394W        W11355   0.404   9.797  21.734
 7395W        W11356   3.610   7.719  21.686
 7396W        W11357   3.328   8.647  20.307
 7397W        W11358   1.636  10.777  21.784
 7398W        W11359   1.491   7.406  18.511
 7399W        W11360   3.030  10.005  18.454
 7400W        W11361   0.799   8.098  21.340
 7401W        W11362   1.233  10.092  21.202
 7402W        W11363   3.359   8.083  21.000
 7403W        W11364   2.570  10.742  18.968
 7404W        W11365   2.809   9.361  20.335
 7405W        W11366   1.059   7.777  21.002
 7406W        W11367   1.031  10.025  18.953
 7407W        W11368   2.786   9.523  19.217
 7408W        W11369   0.554   8.149  20.941
 7409W        W11370   1.883  10.211  19.405
 7410W        W11371   3.633   8.771  19.586
 7411W        W11372   1.855   7.404  21.305
 7412W        W11373   2.635  10.109  20.384
 7413W        W11374   2.938  10.453  20.092
 7414W        W11375   2.157  10.255  18.520
 7415W        W11376   0.167  10.147  21.362
 7416W        W11377   0.910   8.139  20.600
 7417W        W11378   0.880   7.487  19.710
 7418W        W11379   2.501   8.329  20.402
 7419W        W11380   1.299   9.500  18.602
 7420W        W11381   3.297   9.442  20.101
 7421W        W11382   0.624  10.200  21.524
 7422W        W11383   3.011  10.882  19.321
 7423W        W11384   1.110   7.902  19.766
 7424W        W11385   0.879   9.395  19.856
 7425W        W11386   1.192  10.806  20.606
 7426W        W11387   3.259  10.902  21.638
 7427W        W11388   2.418   9.090  20.571
 7428W        W11389   0.267   8.888  18.486
 7429W        W11390   3.401  10.546  19.183
 7430W        W11391   3.238   7.870  18.802
 7431W        W11392   1.377   7.389  21.205
 7432W        W11393   3.083  10.191  19.663
 7433W        W11394   3.112   8.747  19.568
 7434W        W11395   1.229   8.420  19.784
 7435W        W11396   1.474   8.682  21.108
 7436W        W11397   2.585   9.835  20.971
 7437W        W11398   1.235   8.289  21.083
 7438W        W11399   1.214  10.755  19.699
 7439W        W11400   0.531  10.714  21.333
 7440W        W11401   0.643  10.075  18.463
 7441W        W11402   3.160   9.833  19.273
 7442W        W11403   0.764   8.625  21.159
 7443W        W11404   3.537   8.555  18.640
 7444W        W11405   1.282   9.612  19.111
 7445W        W11406   2.381   8.994  21.192
 7446W        W11407   2.272   8.622  20.736
 7447W        W11408   0.832   8.994  20.765
 7448W        W11409   3.042  10.882  20.594
 7449W        W11410   2.833   7.516  21.588
 7450W        W11411   0.497   7.666  21.175
 7451W        W11412   0.836   8.689  20.228
 7452W        W11413   1.205   8.503  18.350
 7453W        W11414   0.008  10.262  20.895
 7454W        W11415   1.593   8.971  20.338
 7455W        W11416   1.416   7.996  18.443
 7456W        W11417   0.551   8.812  19.224
 7457W        W11418   0.322  10.664  20.661
 7458W        W11419   3.117   8.890  18.769
 7459W        W11420   3.212   7.806  21.455
 7460W        W11421   2.648  10.015  19.418
 7461W        W11422   0.246   8.939  21.595
 7462W        W11423   3.212   7.403  18.891
 7463W        W11424   2.732   9.878  18.902
 7464W        W11425   1.634   8.936  18.987
 7465W        W11426   2.821   7.740  18.510
 7466W        W11427   2.886   8.347  20.696
 7467W        W11428   0.595   8.940  19.903
 7468W        W11429   0.889   9.879  19.552
 7469W        W11430   2.652   8.499  19.517
 7470W        W11431   1.675   7.878  20.213
 7471W        W11432   3.637   9.789  20.724
 7472W        W11433   3.555   7.776  20.285
 7473W        W11434   0.094  10.606  19.661
 7474W        W11435   0.603   9.793  19.197
 7475W        W11436   0.518   7.410  21.750
 7476W        W11437   1.637  10.263  21.852
 7477W        W11438   3.392   9.231  19.642
 7478W        W11439   2.746   9.408  18.522
 7479W        W11440   2.041  10.929  20.734
 7480W        W11441   2.898   9.651  21.771
 7481W        W11442   1.713   7.361  19.051
 7482W        W11443   2.426   8.230  19.910
 7483W        W11444   0.112   9.817  20.242
 7484W        W11445   1.365   7.779  18.883
 7485W        W11446   1.169   9.263  21.732
 7486W        W11447   2.163   8.244  19.446
 7487W        W11448   2.368   9.654  20.568
 7488W        W11449   0.522  10.259  21.003
 7489W        W11450   1.113  10.242  21.726
 7490W        W11451   0.964   8.039  18.740
 7491W        W11452   2.481   8.181  19.065
 7492W        W11453   2.439  10.289  21.302
 7493W        W11454   1.124   8.881  19.901
 7494W        W11455   0.779  10.579  20.766
 7495W        W11456   3.524  10.696  18.367
 7496W        W11457   0.387   9.368  21.363
 7497W        W11458   2.382   9.630  20.051
 7498W        W11459   0.818   9.279  19.293
 7499W        W11460   1.189  10.286  20.688
 7500W        W11461   1.567   7.705  19.729
 7501W        W11462   0.178   9.689  18.659
 7502W        W11463   1.697   8.640  18.529
 7503W        W11464   0.343   9.189  19.548
 7504W        W11465   1.633   7.831  21.012
 7505W        W11466   3.305   7.540  18.439
 7506W        W11467   3.398   9.286  21.538
 7507W        W11468   2.052  10.543  21.690
 7508W        W11469   3.610   9.637  21.212
 7509W        W11470   3.018  10.435  21.823
 7510W        W11471   0.757  10.891  20.301
 7511W        W11472   3.616   9.513  19.175
 7512W        W11473   2.146   8.780  19.688
 7513W        W11474   1.913   7.392  19.578
 7514W        W11475   0.972  10.376  19.415
 7515W        W11476   1.471   8.117  20.640
 7516W        W11477   1.171   7.486  20.109
 7517W        W11478   0.234  10.308  18.657
 7518W        W11479   2.050   9.672  19.375
 7519W        W11480   0.925  10.467  21.254
 7520W        W11481   0.402   9.290  18.950
 7521W        W11482   0.287   7.833  19.949
 7522W        W11483   1.835   9.798  20.006
 7523W        W11484   0.087   7.652  19.026
 7524W        W11485   2.751   8.858  20.953
 7525W        W11486   2.628   8.244  18.525
 7526W        W11487   3.145   9.916  20.173
 7527W        W11488   1.806  10.400  20.004
 7528W        W11489   1.218  10.504  18.915
 7529W        W11490   2.500   7.407  18.345
 7530W        W11491   0.300  10.667  20.086
 7531W        W11492   2.497   8.425  21.721
 7532W        W11493   0.480   7.955  21.720
 7533W        W11494   0.211   8.555  19.053
 7534W        W11495   0.902   8.544  18.778
 7535W        W11496   2.665   8.871  21.595
 7536W        W11497   1.008   9.152  20.304
 7537W        W11498   2.482   7.438  19.424
 7538W        W11499   1.613  10.869  19.927
 7539W        W11500   2.827  10.331  20.864
 7540W        W11501   2.411  10.480  19.975
 7541W        W11502   2.430   9.460  19.569
 7542W        W11503   1.892   7.685  18.640
 7543W        W11504   3.573   7.313  19.362
 7544W        W11505   1.261   8.948  18.525
 7545W        W11506   3.427   8.285  19.515
 7546W        W11507   2.119   9.455  18.392
 7547W        W11508   3.055   9.655  21.140
 7548W        W11509   2.709  10.356  18.607
 7549W        W11510   1.324   8.031  21.513
 7550W        W11511   1.144   8.615  20.754
 7551W        W11512   3.236  10.110  21.031
 7552W        W11513   2.336   8.060  21.408
 7553W        W11514   0.180   8.531  21.185
 7554W        W11515   1.940   9.008  20.911
 7555W        W11516   0.297   9.766  19.568
 7556W        W11517   0.444   9.063  20.458
 7557W        W11518   2.761   9.349  20.808
 7558W        W11519   2.533  10.729  21.619
 7559W        W11520   2.429   8.468  21.172
 7560W        W11521   2.706  10.522  19.577
 7561W        W11522   1.708  10.242  20.900
 7562W        W11523   1.193  10.597  20.169
 7563W        W11524   2.998   9.768  20.588
 7564W        W11525   2.048   9.840  21.725
 7565W        W11526   0.653   9.793  20.064
 7566W        W11527   2.999   9.552  19.709
 7567W        W11528   2.640  10.618  20.460
 7568W        W11529   0.618  10.347  20.330
 7569W        W11530   1.639   8.399  21.540
 7570W        W11531   2.090  10.565  19.051
 7571W        W11532   1.398   9.820  21.689
 7572W        W11533   1.524  10.058  19.066
 7573W        W11534   0.745   8.798  18.325
 7574W        W11535   3.165   9.507  22.518
 7575W        W11536   1.213  10.583  22.071
 7576W        W11537   1.296   8.735  23.054
 7577W        W11538   0.811   8.583  23.218
 7578W        W11539   1.802   9.398  22.652
 7579W        W11540   2.231   8.590  22.229
 7580W        W11541   1.788   9.825  22.198
 7581W        W11542   0.484   7.664  23.033
 7582W        W11543   3.172   8.058  21.984
 7583W        W11544   3.378  10.032  22.481
 7584W        W11545   0.507  10.818  22.235
 7585W        W11546   0.900  10.864  22.911
 7586W        W11547   2.725   9.058  23.071
 7587W        W11548   2.691   8.746  22.098
 7588W        W11549   3.176   9.098  22.853
 7589W        W11550   2.078   7.756  22.869
 7590W        W11551   0.735  10.450  22.552
 7591W        W11552   1.691  10.523  22.410
 7592W        W11553   3.083   8.549  21.874
 7593W        W11554   1.270   9.239  23.137
 7594W        W11555   0.740   9.278  21.995
 7595W        W11556   0.395   8.311  22.174
 7596W        W11557   0.457  10.267  22.968
 7597W        W11558   1.588   9.750  23.216
 7598W        W11559   1.846   8.251  22.614
 7599W        W11560   0.012   9.001  22.808
 7600W        W11561   2.327   8.680  22.759
 7601W        W11562   2.204   9.170  22.863
 7602W        W11563   2.193   8.064  22.320
 7603W        W11564   2.592   7.944  23.101
 7604W        W11565   3.004   8.139  22.822
 7605W        W11566   3.371   8.621  22.767
 7606W        W11567   1.040   7.374  22.473
 7607W        W11568   3.511  10.157  21.953
 7608W        W11569   2.335   7.947  21.885
 7609W        W11570   2.046  10.024  22.612
 7610W        W11571   2.145  10.591  23.204
 7611W        W11572   3.319   9.594  22.048
 7612W        W11573   1.754   9.077  23.109
 7613W        W11574   2.824   8.607  22.727
 7614W        W11575   3.111   8.340  22.369
 7615W        W11576   2.920  10.380  22.758
 7616W        W11577   2.650   9.062  22.532
 7617W        W11578   3.303   7.714  22.999
 7618W        W11579   1.489  10.590  22.964
 7619W        W11580   0.604   7.770  22.222
 7620W        W11581   0.736  10.544  21.880
 7621W        W11582   1.110   9.010  22.631
 7622W        W11583   1.594   7.997  22.934
 7623W        W11584   0.942   7.787  22.886
 7624W        W11585   0.947   8.015  21.911
 7625W        W11586   1.720   9.151  22.218
 7626W        W11587   0.988   7.466  21.988
 7627W        W11588   1.726   8.547  23.039
 7628W        W11589   0.637   8.059  23.253
 7629W        W11590   0.423  10.771  22.929
 7630W        W11591   0.790   9.586  22.413
 7631W        W11592   2.425   9.818  22.099
 7632W        W11593   3.576   8.117  22.695
 7633W        W11594   0.054  10.778  22.490
 7634W        W11595   1.316  10.071  22.145
 7635W        W11596   3.221  10.453  22.331
 7636W        W11597   2.196   9.106  22.345
 7637W        W11598   1.039   8.297  22.862
 7638W        W11599   1.871   8.207  21.914
 7639W        W11600   2.808   7.678  22.709
 7640W        W11601   0.138   7.526  22.157
 7641W        W11602   0.965   9.713  21.937
 7642W        W11603   0.206   9.954  22.705
 7643W        W11604   1.318   7.494  22.970
 7644W        W11605   2.377   7.571  22.475
 7645W        W11606   0.481   8.072  22.642
 7646W        W11607   3.448   8.963  21.943
 7647W        W11608   0.002   7.983  22.180
 7648W        W11609   2.013  10.849  22.216
 7649W        W11610   0.159   9.356  21.913
 7650W        W11611   3.560   9.208  22.403
 7651W        W11612   2.423   9.540  22.502
 7652W        W11613   2.897  10.840  22.197
 7653W        W11614   1.491   7.406  22.156
 7654W        W11615   3.030  10.005  22.099
 7655W        W11616   2.570  10.742  22.613
 7656W        W11617   1.031  10.025  22.598
 7657W        W11618   2.786   9.523  22.862
 7658W        W11619   1.883  10.211  23.050
 7659W        W11620   3.633   8.771  23.231
 7660W        W11621   2.157  10.255  22.165
 7661W        W11622   1.299   9.500  22.247
 7662W        W11623   3.011  10.882  22.966
 7663W        W11624   0.267   8.888  22.131
 7664W        W11625   3.401  10.546  22.828
 7665W        W11626   3.238   7.870  22.447
 7666W        W11627   3.112   8.747  23.213
 7667W        W11628   0.643  10.075  22.108
 7668W        W11629   3.160   9.833  22.918
 7669W        W11630   3.537   8.555  22.285
 7670W        W11631   1.282   9.612  22.756
 7671W        W11632   0.551   8.812  22.869
 7672W        W11633   3.117   8.890  22.414
 7673W        W11634   2.648  10.015  23.063
 7674W        W11635   3.212   7.403  22.536
 7675W        W11636   2.732   9.878  22.547
 7676W        W11637   1.634   8.936  22.632
 7677W        W11638   2.821   7.740  22.155
 7678W        W11639   0.889   9.879  23.197
 7679W        W11640   2.652   8.499  23.162
 7680W        W11641   0.094  10.606  23.306
 7681W        W11642   0.603   9.793  22.842
 7682W        W11643   3.392   9.231  23.287
 7683W        W11644   2.746   9.408  22.167
 7684W        W11645   1.713   7.361  22.696
 7685W        W11646   1.365   7.779  22.528
 7686W        W11647   2.163   8.244  23.091
 7687W        W11648   2.481   8.181  22.710
 7688W        W11649   3.524  10.696  22.012
 7689W        W11650   0.178   9.689  22.304
 7690W        W11651   0.343   9.189  23.193
 7691W        W11652   3.305   7.540  22.084
 7692W        W11653   3.616   9.513  22.820
 7693W        W11654   1.913   7.392  23.223
 7694W        W11655   0.972  10.376  23.060
 7695W        W11656   0.234  10.308  22.302
 7696W        W11657   2.050   9.672  23.020
 7697W        W11658   0.402   9.290  22.595
 7698W        W11659   0.087   7.652  22.671
 7699W        W11660   2.628   8.244  22.170
 7700W        W11661   1.218  10.504  22.560
 7701W        W11662   2.500   7.407  21.990
 7702W        W11663   0.211   8.555  22.698
 7703W        W11664   0.902   8.544  22.423
 7704W        W11665   2.430   9.460  23.214
 7705W        W11666   1.892   7.685  22.285
 7706W        W11667   3.573   7.313  23.007
 7707W        W11668   1.261   8.948  22.170
 7708W        W11669   3.427   8.285  23.160
 7709W        W11670   2.119   9.455  22.037
 7710W        W11671   2.709  10.356  22.252
 7711W        W11672   0.297   9.766  23.213
 7712W        W11673   2.706  10.522  23.222
 7713W        W11674   2.090  10.565  22.696
 7714W        W11675   1.524  10.058  22.711
 7715W        W11676   0.745   8.798  21.970
 7716W        W11677   0.084  14.528   3.359
 7717W        W11678   0.460  13.421   2.882
 7718W        W11679   3.165  13.151   0.652
 7719W        W11680   3.295  14.236   2.679
 7720W        W11681   1.213  14.227   0.205
 7721W        W11682   1.296  12.379   1.188
 7722W        W11683   0.811  12.227   1.352
 7723W        W11684   1.802  13.042   0.786
 7724W        W11685   1.477  14.134   3.141
 7725W        W11686   0.126  11.695   3.104
 7726W        W11687   0.888  10.975   2.906
 7727W        W11688   2.582  11.363   1.793
 7728W        W11689   2.231  12.234   0.363
 7729W        W11690   2.801  11.668   3.454
 7730W        W11691   0.167  11.460   2.579
 7731W        W11692   1.788  13.469   0.332
 7732W        W11693   0.220  12.252   2.025
 7733W        W11694   1.113  12.143   3.262
 7734W        W11695   3.572  12.002   1.761
 7735W        W11696   3.336  13.045   2.620
 7736W        W11697   1.644  12.378   1.647
 7737W        W11698   2.190  13.717   2.016
 7738W        W11699   0.690  13.151   2.248
 7739W        W11700   0.049  12.679   1.819
 7740W        W11701   1.085  12.651   3.011
 7741W        W11702   3.356  12.434   3.265
 7742W        W11703   0.972  13.878   1.710
 7743W        W11704   2.093  13.567   2.844
 7744W        W11705   1.313  12.207   2.069
 7745W        W11706   1.605  12.991   1.712
 7746W        W11707   2.602  13.764   3.560
 7747W        W11708   1.681  13.084   3.570
 7748W        W11709   1.662  12.800   3.048
 7749W        W11710   0.071  12.191   3.570
 7750W        W11711   2.903  13.726   3.169
 7751W        W11712   0.484  11.308   1.167
 7752W        W11713   1.011  13.566   2.166
 7753W        W11714   3.474  13.349   1.456
 7754W        W11715   2.887  11.749   2.023
 7755W        W11716   3.172  11.702   0.118
 7756W        W11717   3.637  12.503   2.424
 7757W        W11718   1.604  14.210   2.177
 7758W        W11719   3.378  13.676   0.615
 7759W        W11720   0.507  14.462   0.369
 7760W        W11721   0.900  14.508   1.045
 7761W        W11722   0.697  11.262   2.471
 7762W        W11723   3.320  12.280   2.746
 7763W        W11724   2.725  12.702   1.205
 7764W        W11725   2.691  12.390   0.232
 7765W        W11726   1.899  13.534   2.372
 7766W        W11727   1.705  11.864   1.571
 7767W        W11728   2.305  13.951   2.565
 7768W        W11729   3.176  12.742   0.987
 7769W        W11730   2.078  11.400   1.003
 7770W        W11731   0.735  14.094   0.686
 7771W        W11732   0.106  11.593   1.285
 7772W        W11733   2.892  12.200   1.759
 7773W        W11734   0.350  13.817   1.674
 7774W        W11735   1.691  14.167   0.544
 7775W        W11736   3.083  12.193   0.008
 7776W        W11737   0.106  13.951   2.172
 7777W        W11738   0.897  13.523   2.652
 7778W        W11739   1.270  12.883   1.271
 7779W        W11740   1.292  11.288   2.364
 7780W        W11741   3.521  11.050   1.661
 7781W        W11742   0.740  12.922   0.129
 7782W        W11743   0.395  11.955   0.308
 7783W        W11744   0.457  13.911   1.102
 7784W        W11745   1.588  13.394   1.350
 7785W        W11746   2.920  14.253   3.064
 7786W        W11747   1.846  11.895   0.748
 7787W        W11748   3.229  14.293   1.520
 7788W        W11749   2.906  12.146   3.118
 7789W        W11750   3.619  13.802   1.252
 7790W        W11751   2.246  13.094   2.736
 7791W        W11752   0.012  12.645   0.942
 7792W        W11753   1.123  13.060   2.515
 7793W        W11754   2.327  12.324   0.893
 7794W        W11755   2.204  12.814   0.997
 7795W        W11756   0.547  12.234   2.471
 7796W        W11757   0.532  12.110   3.393
 7797W        W11758   0.422  11.027   1.552
 7798W        W11759   2.190  11.374   2.113
 7799W        W11760   1.838  11.559   3.276
 7800W        W11761   2.193  11.708   0.454
 7801W        W11762   3.376  14.101   3.208
 7802W        W11763   2.343  11.182   3.247
 7803W        W11764   3.362  13.483   3.369
 7804W        W11765   2.792  11.650   2.965
 7805W        W11766   2.592  11.588   1.235
 7806W        W11767   2.985  12.722   3.639
 7807W        W11768   0.725  14.298   1.625
 7808W        W11769   1.383  12.015   0.611
 7809W        W11770   0.952  11.299   3.275
 7810W        W11771   3.004  11.783   0.956
 7811W        W11772   3.371  12.265   0.901
 7812W        W11773   1.114  14.482   3.372
 7813W        W11774   1.040  11.018   0.607
 7814W        W11775   3.361  11.552   1.642
 7815W        W11776   3.511  13.801   0.087
 7816W        W11777   0.418  13.004   1.789
 7817W        W11778   2.335  11.591   0.019
 7818W        W11779   3.469  13.923   1.739
 7819W        W11780   3.508  11.117   2.489
 7820W        W11781   1.953  12.329   3.043
 7821W        W11782   2.046  13.668   0.746
 7822W        W11783   2.446  12.962   3.486
 7823W        W11784   2.120  10.939   1.795
 7824W        W11785   0.732  11.842   1.858
 7825W        W11786   0.286  13.042   2.632
 7826W        W11787   2.145  14.235   1.338
 7827W        W11788   3.339  11.832   2.210
 7828W        W11789   1.976  14.179   2.977
 7829W        W11790   3.319  13.238   0.182
 7830W        W11791   1.754  12.721   1.243
 7831W        W11792   3.606  11.232   2.984
 7832W        W11793   1.755  13.067   2.578
 7833W        W11794   1.972  11.953   2.023
 7834W        W11795   2.824  12.251   0.861
 7835W        W11796   3.111  11.984   0.503
 7836W        W11797   2.920  14.024   0.892
 7837W        W11798   2.754  13.627   1.688
 7838W        W11799   2.650  12.706   0.666
 7839W        W11800   2.083  12.916   1.652
 7840W        W11801   2.964  12.704   1.719
 7841W        W11802   0.339  11.719   2.143
 7842W        W11803   3.117  12.771   2.970
 7843W        W11804   3.468  14.389   2.116
 7844W        W11805   1.398  13.833   1.518
 7845W        W11806   2.405  14.366   2.842
 7846W        W11807   2.399  11.696   2.606
 7847W        W11808   1.606  14.404   2.667
 7848W        W11809   3.303  11.358   1.133
 7849W        W11810   3.094  12.677   2.434
 7850W        W11811   0.077  11.998   2.472
 7851W        W11812   2.937  11.793   1.490
 7852W        W11813   3.348  11.944   3.267
 7853W        W11814   2.233  13.643   1.485
 7854W        W11815   1.489  14.234   1.098
 7855W        W11816   0.604  11.414   0.356
 7856W        W11817   1.708  11.068   2.166
 7857W        W11818   0.736  14.188   0.014
 7858W        W11819   1.110  12.654   0.765
 7859W        W11820   1.764  13.283   3.078
 7860W        W11821   1.594  11.641   1.068
 7861W        W11822   2.950  11.238   1.496
 7862W        W11823   2.670  14.520   1.824
 7863W        W11824   2.082  14.168   2.164
 7864W        W11825   1.478  13.205   2.125
 7865W        W11826   3.248  13.928   2.251
 7866W        W11827   0.942  11.431   1.020
 7867W        W11828   1.464  13.728   1.980
 7868W        W11829   0.947  11.659   0.045
 7869W        W11830   1.748  12.268   2.439
 7870W        W11831   2.596  11.134   2.309
 7871W        W11832   0.016  12.977   2.194
 7872W        W11833   1.720  12.795   0.352
 7873W        W11834   0.988  11.110   0.122
 7874W        W11835   1.726  12.191   1.173
 7875W        W11836   2.696  11.167   2.872
 7876W        W11837   1.284  13.179   2.981
 7877W        W11838   2.088  12.961   3.198
 7878W        W11839   2.705  12.991   3.091
 7879W        W11840   1.989  11.131   3.596
 7880W        W11841   1.211  11.747   1.989
 7881W        W11842   0.637  11.703   1.387
 7882W        W11843   0.423  14.415   1.063
 7883W        W11844   1.755  13.745   3.188
 7884W        W11845   0.790  13.230   0.547
 7885W        W11846   2.470  12.615   1.768
 7886W        W11847   2.750  12.414   2.167
 7887W        W11848   1.955  13.088   2.101
 7888W        W11849   2.425  13.462   0.233
 7889W        W11850   2.097  11.483   1.561
 7890W        W11851   3.576  11.761   0.829
 7891W        W11852   0.487  13.576   2.392
 7892W        W11853   0.054  14.422   0.624
 7893W        W11854   1.953  11.692   2.430
 7894W        W11855   1.316  13.715   0.279
 7895W        W11856   3.221  14.097   0.465
 7896W        W11857   2.196  12.750   0.479
 7897W        W11858   1.039  11.941   0.996
 7898W        W11859   1.871  11.851   0.048
 7899W        W11860   2.455  13.416   3.226
 7900W        W11861   2.808  11.322   0.843
 7901W        W11862   0.138  11.170   0.291
 7902W        W11863   1.424  13.489   2.581
 7903W        W11864   1.223  13.405   1.673
 7904W        W11865   0.965  13.357   0.071
 7905W        W11866   0.206  13.598   0.839
 7906W        W11867   0.710  12.668   3.281
 7907W        W11868   1.414  11.228   3.467
 7908W        W11869   2.123  11.370   2.823
 7909W        W11870   1.318  11.138   1.104
 7910W        W11871   2.377  11.215   0.609
 7911W        W11872   0.322  11.147   2.186
 7912W        W11873   0.370  12.110   1.556
 7913W        W11874   3.059  11.218   1.962
 7914W        W11875   0.481  11.716   0.776
 7915W        W11876   3.052  11.404   2.392
 7916W        W11877   3.448  12.607   0.077
 7917W        W11878   0.740  11.365   1.896
 7918W        W11879   1.854  11.937   2.836
 7919W        W11880   0.002  11.627   0.314
 7920W        W11881   0.788  13.016   2.875
 7921W        W11882   2.146  12.414   2.054
 7922W        W11883   2.013  14.493   0.350
 7923W        W11884   0.159  13.000   0.047
 7924W        W11885   0.894  13.411   3.173
 7925W        W11886   0.415  12.578   2.804
 7926W        W11887   1.406  12.683   2.598
 7927W        W11888   3.174  11.042   2.860
 7928W        W11889   3.572  12.652   2.851
 7929W        W11890   3.560  12.852   0.537
 7930W        W11891   2.423  13.184   0.636
 7931W        W11892   2.897  14.484   0.331
 7932W        W11893   2.074  12.474   3.473
 7933W        W11894   0.404  13.441   3.513
 7934W        W11895   3.610  11.363   3.465
 7935W        W11896   3.328  12.291   2.086
 7936W        W11897   1.636  14.421   3.563
 7937W        W11898   1.491  11.050   0.290
 7938W        W11899   3.030  13.649   0.233
 7939W        W11900   0.799  11.742   3.119
 7940W        W11901   1.233  13.736   2.981
 7941W        W11902   3.359  11.727   2.779
 7942W        W11903   2.570  14.386   0.747
 7943W        W11904   2.809  13.005   2.114
 7944W        W11905   1.059  11.421   2.781
 7945W        W11906   1.528  12.490   3.538
 7946W        W11907   1.031  13.669   0.732
 7947W        W11908   2.786  13.167   0.996
 7948W        W11909   0.554  11.793   2.720
 7949W        W11910   1.883  13.855   1.184
 7950W        W11911   3.633  12.415   1.365
 7951W        W11912   1.855  11.048   3.084
 7952W        W11913   2.635  13.753   2.163
 7953W        W11914   2.938  14.097   1.871
 7954W        W11915   2.157  13.899   0.299
 7955W        W11916   0.910  11.783   2.379
 7956W        W11917   0.880  11.131   1.489
 7957W        W11918   2.501  11.973   2.181
 7958W        W11919   1.299  13.144   0.381
 7959W        W11920   3.297  13.086   1.880
 7960W        W11921   0.624  13.844   3.303
 7961W        W11922   3.011  14.526   1.100
 7962W        W11923   1.110  11.546   1.545
 7963W        W11924   0.879  13.039   1.635
 7964W        W11925   1.192  14.450   2.385
 7965W        W11926   3.259  14.546   3.417
 7966W        W11927   2.418  12.734   2.350
 7967W        W11928   0.267  12.532   0.265
 7968W        W11929   3.401  14.190   0.962
 7969W        W11930   3.238  11.514   0.581
 7970W        W11931   1.377  11.033   2.984
 7971W        W11932   3.083  13.835   1.442
 7972W        W11933   3.112  12.391   1.347
 7973W        W11934   1.229  12.064   1.563
 7974W        W11935   1.474  12.326   2.887
 7975W        W11936   2.585  13.479   2.750
 7976W        W11937   1.235  11.933   2.862
 7977W        W11938   1.214  14.399   1.478
 7978W        W11939   0.531  14.358   3.112
 7979W        W11940   0.643  13.719   0.242
 7980W        W11941   3.160  13.477   1.052
 7981W        W11942   0.764  12.269   2.938
 7982W        W11943   3.537  12.199   0.419
 7983W        W11944   1.282  13.256   0.890
 7984W        W11945   2.381  12.638   2.971
 7985W        W11946   2.272  12.266   2.515
 7986W        W11947   0.832  12.638   2.544
 7987W        W11948   3.042  14.526   2.373
 7988W        W11949   2.833  11.160   3.367
 7989W        W11950   0.497  11.310   2.954
 7990W        W11951   0.836  12.333   2.007
 7991W        W11952   1.205  12.147   0.129
 7992W        W11953   0.008  13.906   2.674
 7993W        W11954   1.593  12.615   2.117
 7994W        W11955   1.416  11.640   0.222
 7995W        W11956   0.551  12.456   1.003
 7996W        W11957   0.322  14.308   2.440
 7997W        W11958   3.117  12.534   0.548
 7998W        W11959   3.212  11.450   3.234
 7999W        W11960   2.648  13.659   1.197
 8000W        W11961   0.246  12.583   3.374
 8001W        W11962   3.212  11.047   0.670
 8002W        W11963   2.732  13.522   0.681
 8003W        W11964   1.634  12.580   0.766
 8004W        W11965   2.821  11.384   0.289
 8005W        W11966   2.886  11.991   2.475
 8006W        W11967   0.595  12.584   1.682
 8007W        W11968   0.889  13.523   1.331
 8008W        W11969   2.652  12.143   1.296
 8009W        W11970   1.675  11.522   1.992
 8010W        W11971   3.637  13.433   2.503
 8011W        W11972   3.555  11.420   2.064
 8012W        W11973   0.094  14.250   1.440
 8013W        W11974   0.603  13.437   0.976
 8014W        W11975   0.518  11.054   3.529
 8015W        W11976   1.637  13.907   3.631
 8016W        W11977   3.392  12.875   1.421
 8017W        W11978   2.746  13.052   0.301
 8018W        W11979   2.041  14.573   2.513
 8019W        W11980   2.898  13.295   3.550
 8020W        W11981   1.713  11.005   0.830
 8021W        W11982   2.426  11.874   1.689
 8022W        W11983   0.112  13.461   2.021
 8023W        W11984   1.365  11.423   0.662
 8024W        W11985   1.169  12.907   3.511
 8025W        W11986   2.163  11.888   1.225
 8026W        W11987   2.368  13.298   2.347
 8027W        W11988   0.522  13.903   2.782
 8028W        W11989   1.113  13.886   3.505
 8029W        W11990   0.964  11.683   0.519
 8030W        W11991   2.481  11.825   0.844
 8031W        W11992   2.439  13.933   3.081
 8032W        W11993   1.124  12.525   1.680
 8033W        W11994   0.779  14.223   2.545
 8034W        W11995   3.524  14.340   0.146
 8035W        W11996   0.387  13.012   3.142
 8036W        W11997   2.382  13.274   1.830
 8037W        W11998   0.818  12.923   1.072
 8038W        W11999   1.189  13.930   2.467
 8039W        W12000   1.567  11.349   1.508
 8040W        W12001   0.178  13.333   0.438
 8041W        W12002   1.697  12.284   0.308
 8042W        W12003   0.343  12.833   1.327
 8043W        W12004   1.633  11.475   2.791
 8044W        W12005   3.305  11.184   0.218
 8045W        W12006   3.398  12.930   3.317
 8046W        W12007   2.052  14.187   3.469
 8047W        W12008   3.610  13.281   2.991
 8048W        W12009   3.018  14.079   3.602
 8049W        W12010   0.757  14.535   2.080
 8050W        W12011   3.616  13.157   0.954
 8051W        W12012   2.146  12.424   1.467
 8052W        W12013   1.913  11.036   1.357
 8053W        W12014   0.972  14.020   1.194
 8054W        W12015   1.471  11.761   2.419
 8055W        W12016   1.171  11.130   1.888
 8056W        W12017   0.234  13.952   0.436
 8057W        W12018   2.050  13.316   1.154
 8058W        W12019   0.925  14.111   3.033
 8059W        W12020   0.402  12.934   0.729
 8060W        W12021   0.287  11.477   1.728
 8061W        W12022   1.835  13.442   1.785
 8062W        W12023   0.087  11.296   0.805
 8063W        W12024   2.751  12.502   2.732
 8064W        W12025   2.628  11.888   0.304
 8065W        W12026   3.145  13.560   1.952
 8066W        W12027   1.806  14.044   1.783
 8067W        W12028   1.218  14.148   0.694
 8068W        W12029   2.500  11.051   0.124
 8069W        W12030   0.300  14.311   1.865
 8070W        W12031   2.497  12.069   3.500
 8071W        W12032   0.480  11.599   3.499
 8072W        W12033   0.211  12.199   0.832
 8073W        W12034   0.902  12.188   0.557
 8074W        W12035   2.665  12.515   3.374
 8075W        W12036   1.008  12.796   2.083
 8076W        W12037   2.482  11.082   1.203
 8077W        W12038   1.613  14.513   1.706
 8078W        W12039   2.827  13.975   2.643
 8079W        W12040   2.411  14.124   1.754
 8080W        W12041   2.430  13.104   1.348
 8081W        W12042   1.892  11.329   0.419
 8082W        W12043   3.573  10.957   1.141
 8083W        W12044   1.261  12.592   0.304
 8084W        W12045   3.427  11.929   1.294
 8085W        W12046   2.119  13.099   0.171
 8086W        W12047   3.055  13.299   2.919
 8087W        W12048   2.709  14.000   0.386
 8088W        W12049   1.324  11.675   3.292
 8089W        W12050   1.144  12.259   2.533
 8090W        W12051   3.236  13.754   2.810
 8091W        W12052   2.336  11.704   3.187
 8092W        W12053   0.180  12.175   2.964
 8093W        W12054   1.940  12.652   2.690
 8094W        W12055   0.297  13.410   1.347
 8095W        W12056   0.444  12.707   2.237
 8096W        W12057   2.761  12.993   2.587
 8097W        W12058   2.533  14.373   3.398
 8098W        W12059   2.429  12.112   2.951
 8099W        W12060   2.706  14.166   1.356
 8100W        W12061   1.708  13.886   2.679
 8101W        W12062   1.193  14.241   1.948
 8102W        W12063   2.998  13.412   2.367
 8103W        W12064   2.048  13.484   3.504
 8104W        W12065   0.653  13.437   1.843
 8105W        W12066   2.999  13.196   1.488
 8106W        W12067   2.640  14.262   2.239
 8107W        W12068   0.618  13.991   2.109
 8108W        W12069   1.639  12.043   3.319
 8109W        W12070   2.090  14.209   0.830
 8110W        W12071   1.398  13.464   3.468
 8111W        W12072   1.524  13.702   0.845
 8112W        W12073   0.745  12.442   0.104
 8113W        W12074   0.084  14.528   7.003
 8114W        W12075   0.460  13.421   6.526
 8115W        W12076   3.165  13.151   4.296
 8116W        W12077   3.295  14.236   6.323
 8117W        W12078   1.213  14.227   3.849
 8118W        W12079   1.296  12.379   4.832
 8119W        W12080   0.811  12.227   4.996
 8120W        W12081   1.802  13.042   4.430
 8121W        W12082   1.477  14.134   6.785
 8122W        W12083   0.126  11.695   6.748
 8123W        W12084   0.888  10.975   6.550
 8124W        W12085   2.582  11.363   5.437
 8125W        W12086   2.231  12.234   4.007
 8126W        W12087   2.801  11.668   7.098
 8127W        W12088   0.167  11.460   6.223
 8128W        W12089   0.266  14.079   7.244
 8129W        W12090   1.788  13.469   3.976
 8130W        W12091   0.220  12.252   5.669
 8131W        W12092   1.113  12.143   6.906
 8132W        W12093   3.572  12.002   5.405
 8133W        W12094   3.336  13.045   6.264
 8134W        W12095   1.644  12.378   5.291
 8135W        W12096   2.190  13.717   5.660
 8136W        W12097   0.690  13.151   5.892
 8137W        W12098   0.049  12.679   5.463
 8138W        W12099   1.085  12.651   6.655
 8139W        W12100   3.356  12.434   6.909
 8140W        W12101   0.972  13.878   5.354
 8141W        W12102   2.093  13.567   6.488
 8142W        W12103   1.313  12.207   5.713
 8143W        W12104   1.605  12.991   5.356
 8144W        W12105   2.602  13.764   7.204
 8145W        W12106   1.681  13.084   7.214
 8146W        W12107   1.662  12.800   6.692
 8147W        W12108   0.071  12.191   7.214
 8148W        W12109   2.903  13.726   6.813
 8149W        W12110   0.484  11.308   4.811
 8150W        W12111   1.011  13.566   5.810
 8151W        W12112   3.474  13.349   5.100
 8152W        W12113   2.887  11.749   5.667
 8153W        W12114   3.172  11.702   3.762
 8154W        W12115   3.637  12.503   6.068
 8155W        W12116   1.604  14.210   5.821
 8156W        W12117   3.378  13.676   4.259
 8157W        W12118   0.507  14.462   4.013
 8158W        W12119   0.900  14.508   4.689
 8159W        W12120   0.697  11.262   6.115
 8160W        W12121   3.320  12.280   6.390
 8161W        W12122   2.725  12.702   4.849
 8162W        W12123   2.691  12.390   3.876
 8163W        W12124   1.899  13.534   6.016
 8164W        W12125   1.705  11.864   5.215
 8165W        W12126   2.305  13.951   6.209
 8166W        W12127   3.176  12.742   4.631
 8167W        W12128   2.078  11.400   4.647
 8168W        W12129   0.735  14.094   4.330
 8169W        W12130   0.106  11.593   4.929
 8170W        W12131   2.892  12.200   5.403
 8171W        W12132   0.350  13.817   5.318
 8172W        W12133   1.691  14.167   4.188
 8173W        W12134   3.083  12.193   3.652
 8174W        W12135   0.106  13.951   5.816
 8175W        W12136   0.897  13.523   6.296
 8176W        W12137   1.270  12.883   4.915
 8177W        W12138   1.292  11.288   6.008
 8178W        W12139   3.521  11.050   5.305
 8179W        W12140   0.740  12.922   3.773
 8180W        W12141   0.395  11.955   3.952
 8181W        W12142   0.457  13.911   4.746
 8182W        W12143   1.588  13.394   4.994
 8183W        W12144   2.920  14.253   6.708
 8184W        W12145   1.846  11.895   4.392
 8185W        W12146   3.229  14.293   5.164
 8186W        W12147   2.906  12.146   6.762
 8187W        W12148   3.619  13.802   4.896
 8188W        W12149   2.246  13.094   6.380
 8189W        W12150   0.012  12.645   4.586
 8190W        W12151   1.123  13.060   6.159
 8191W        W12152   2.327  12.324   4.537
 8192W        W12153   2.204  12.814   4.641
 8193W        W12154   0.547  12.234   6.115
 8194W        W12155   0.532  12.110   7.037
 8195W        W12156   0.422  11.027   5.196
 8196W        W12157   2.190  11.374   5.757
 8197W        W12158   1.838  11.559   6.920
 8198W        W12159   2.193  11.708   4.098
 8199W        W12160   3.376  14.101   6.852
 8200W        W12161   2.343  11.182   6.891
 8201W        W12162   3.362  13.483   7.013
 8202W        W12163   2.792  11.650   6.609
 8203W        W12164   2.592  11.588   4.879
 8204W        W12165   2.985  12.722   7.283
 8205W        W12166   0.725  14.298   5.269
 8206W        W12167   1.383  12.015   4.255
 8207W        W12168   0.952  11.299   6.919
 8208W        W12169   3.004  11.783   4.600
 8209W        W12170   3.371  12.265   4.545
 8210W        W12171   1.114  14.482   7.016
 8211W        W12172   1.040  11.018   4.251
 8212W        W12173   3.361  11.552   5.286
 8213W        W12174   3.511  13.801   3.731
 8214W        W12175   0.418  13.004   5.433
 8215W        W12176   2.335  11.591   3.663
 8216W        W12177   3.469  13.923   5.383
 8217W        W12178   3.508  11.117   6.133
 8218W        W12179   1.953  12.329   6.687
 8219W        W12180   2.046  13.668   4.390
 8220W        W12181   2.446  12.962   7.130
 8221W        W12182   2.120  10.939   5.439
 8222W        W12183   0.732  11.842   5.502
 8223W        W12184   0.286  13.042   6.276
 8224W        W12185   2.145  14.235   4.982
 8225W        W12186   3.339  11.832   5.854
 8226W        W12187   1.976  14.179   6.621
 8227W        W12188   3.319  13.238   3.826
 8228W        W12189   1.754  12.721   4.887
 8229W        W12190   3.606  11.232   6.628
 8230W        W12191   1.755  13.067   6.222
 8231W        W12192   1.972  11.953   5.667
 8232W        W12193   2.824  12.251   4.505
 8233W        W12194   3.111  11.984   4.147
 8234W        W12195   2.920  14.024   4.536
 8235W        W12196   2.754  13.627   5.332
 8236W        W12197   2.650  12.706   4.310
 8237W        W12198   2.083  12.916   5.296
 8238W        W12199   2.964  12.704   5.363
 8239W        W12200   0.339  11.719   5.787
 8240W        W12201   3.117  12.771   6.614
 8241W        W12202   3.468  14.389   5.760
 8242W        W12203   1.398  13.833   5.162
 8243W        W12204   2.405  14.366   6.486
 8244W        W12205   2.399  11.696   6.250
 8245W        W12206   1.606  14.404   6.311
 8246W        W12207   3.303  11.358   4.777
 8247W        W12208   3.094  12.677   6.078
 8248W        W12209   0.077  11.998   6.116
 8249W        W12210   2.937  11.793   5.134
 8250W        W12211   3.348  11.944   6.911
 8251W        W12212   2.233  13.643   5.129
 8252W        W12213   1.489  14.234   4.742
 8253W        W12214   0.604  11.414   4.000
 8254W        W12215   1.708  11.068   5.810
 8255W        W12216   0.736  14.188   3.658
 8256W        W12217   1.110  12.654   4.409
 8257W        W12218   1.764  13.283   6.722
 8258W        W12219   1.594  11.641   4.712
 8259W        W12220   2.950  11.238   5.140
 8260W        W12221   2.670  14.520   5.468
 8261W        W12222   2.082  14.168   5.808
 8262W        W12223   1.478  13.205   5.769
 8263W        W12224   3.248  13.928   5.895
 8264W        W12225   0.942  11.431   4.664
 8265W        W12226   1.464  13.728   5.624
 8266W        W12227   0.947  11.659   3.689
 8267W        W12228   1.748  12.268   6.083
 8268W        W12229   2.596  11.134   5.953
 8269W        W12230   0.016  12.977   5.838
 8270W        W12231   1.720  12.795   3.996
 8271W        W12232   0.988  11.110   3.766
 8272W        W12233   1.726  12.191   4.817
 8273W        W12234   2.696  11.167   6.516
 8274W        W12235   1.284  13.179   6.625
 8275W        W12236   2.088  12.961   6.842
 8276W        W12237   2.705  12.991   6.735
 8277W        W12238   1.989  11.131   7.240
 8278W        W12239   1.211  11.747   5.633
 8279W        W12240   0.637  11.703   5.031
 8280W        W12241   0.423  14.415   4.707
 8281W        W12242   1.755  13.745   6.832
 8282W        W12243   0.790  13.230   4.191
 8283W        W12244   2.470  12.615   5.412
 8284W        W12245   2.750  12.414   5.811
 8285W        W12246   1.955  13.088   5.745
 8286W        W12247   2.425  13.462   3.877
 8287W        W12248   2.097  11.483   5.205
 8288W        W12249   3.576  11.761   4.473
 8289W        W12250   0.070  14.350   6.504
 8290W        W12251   0.487  13.576   6.036
 8291W        W12252   0.054  14.422   4.268
 8292W        W12253   1.953  11.692   6.074
 8293W        W12254   1.316  13.715   3.923
 8294W        W12255   3.221  14.097   4.109
 8295W        W12256   2.196  12.750   4.123
 8296W        W12257   1.039  11.941   4.640
 8297W        W12258   1.871  11.851   3.692
 8298W        W12259   2.455  13.416   6.870
 8299W        W12260   2.808  11.322   4.487
 8300W        W12261   0.138  11.170   3.935
 8301W        W12262   1.424  13.489   6.225
 8302W        W12263   1.223  13.405   5.317
 8303W        W12264   0.965  13.357   3.715
 8304W        W12265   0.206  13.598   4.483
 8305W        W12266   0.710  12.668   6.925
 8306W        W12267   1.414  11.228   7.111
 8307W        W12268   2.123  11.370   6.467
 8308W        W12269   1.318  11.138   4.748
 8309W        W12270   2.377  11.215   4.253
 8310W        W12271   0.322  11.147   5.830
 8311W        W12272   0.370  12.110   5.200
 8312W        W12273   3.059  11.218   5.606
 8313W        W12274   0.481  11.716   4.420
 8314W        W12275   3.052  11.404   6.036
 8315W        W12276   3.448  12.607   3.721
 8316W        W12277   0.740  11.365   5.540
 8317W        W12278   1.854  11.937   6.480
 8318W        W12279   0.002  11.627   3.958
 8319W        W12280   0.788  13.016   6.519
 8320W        W12281   2.146  12.414   5.698
 8321W        W12282   2.013  14.493   3.994
 8322W        W12283   0.159  13.000   3.691
 8323W        W12284   0.894  13.411   6.817
 8324W        W12285   0.415  12.578   6.448
 8325W        W12286   1.406  12.683   6.242
 8326W        W12287   3.174  11.042   6.504
 8327W        W12288   3.572  12.652   6.495
 8328W        W12289   3.560  12.852   4.181
 8329W        W12290   2.423  13.184   4.280
 8330W        W12291   2.897  14.484   3.975
 8331W        W12292   2.074  12.474   7.117
 8332W        W12293   0.404  13.441   7.157
 8333W        W12294   3.610  11.363   7.109
 8334W        W12295   3.328  12.291   5.730
 8335W        W12296   1.636  14.421   7.207
 8336W        W12297   1.491  11.050   3.934
 8337W        W12298   3.030  13.649   3.877
 8338W        W12299   0.799  11.742   6.763
 8339W        W12300   1.233  13.736   6.625
 8340W        W12301   3.359  11.727   6.423
 8341W        W12302   2.570  14.386   4.391
 8342W        W12303   2.809  13.005   5.758
 8343W        W12304   1.059  11.421   6.425
 8344W        W12305   1.528  12.490   7.182
 8345W        W12306   1.031  13.669   4.376
 8346W        W12307   2.786  13.167   4.640
 8347W        W12308   0.554  11.793   6.364
 8348W        W12309   1.883  13.855   4.828
 8349W        W12310   3.633  12.415   5.009
 8350W        W12311   1.855  11.048   6.728
 8351W        W12312   2.635  13.753   5.807
 8352W        W12313   2.938  14.097   5.515
 8353W        W12314   2.157  13.899   3.943
 8354W        W12315   0.167  13.791   6.785
 8355W        W12316   0.910  11.783   6.023
 8356W        W12317   0.880  11.131   5.133
 8357W        W12318   2.501  11.973   5.825
 8358W        W12319   1.299  13.144   4.025
 8359W        W12320   3.297  13.086   5.524
 8360W        W12321   0.624  13.844   6.947
 8361W        W12322   3.011  14.526   4.744
 8362W        W12323   1.110  11.546   5.189
 8363W        W12324   0.879  13.039   5.279
 8364W        W12325   1.192  14.450   6.029
 8365W        W12326   3.259  14.546   7.061
 8366W        W12327   2.418  12.734   5.994
 8367W        W12328   0.267  12.532   3.909
 8368W        W12329   3.401  14.190   4.606
 8369W        W12330   3.238  11.514   4.225
 8370W        W12331   1.377  11.033   6.628
 8371W        W12332   3.083  13.835   5.086
 8372W        W12333   3.112  12.391   4.991
 8373W        W12334   1.229  12.064   5.207
 8374W        W12335   1.474  12.326   6.531
 8375W        W12336   2.585  13.479   6.394
 8376W        W12337   1.235  11.933   6.506
 8377W        W12338   1.214  14.399   5.122
 8378W        W12339   0.531  14.358   6.756
 8379W        W12340   0.643  13.719   3.886
 8380W        W12341   3.160  13.477   4.696
 8381W        W12342   0.764  12.269   6.582
 8382W        W12343   3.537  12.199   4.063
 8383W        W12344   1.282  13.256   4.534
 8384W        W12345   2.381  12.638   6.615
 8385W        W12346   2.272  12.266   6.159
 8386W        W12347   0.832  12.638   6.188
 8387W        W12348   3.042  14.526   6.017
 8388W        W12349   2.833  11.160   7.011
 8389W        W12350   0.497  11.310   6.598
 8390W        W12351   0.836  12.333   5.651
 8391W        W12352   1.205  12.147   3.773
 8392W        W12353   0.008  13.906   6.318
 8393W        W12354   1.593  12.615   5.761
 8394W        W12355   1.416  11.640   3.866
 8395W        W12356   0.551  12.456   4.647
 8396W        W12357   0.322  14.308   6.084
 8397W        W12358   3.117  12.534   4.192
 8398W        W12359   3.212  11.450   6.878
 8399W        W12360   2.648  13.659   4.841
 8400W        W12361   0.246  12.583   7.018
 8401W        W12362   3.212  11.047   4.314
 8402W        W12363   2.732  13.522   4.325
 8403W        W12364   1.634  12.580   4.410
 8404W        W12365   2.821  11.384   3.933
 8405W        W12366   2.886  11.991   6.119
 8406W        W12367   0.595  12.584   5.326
 8407W        W12368   0.889  13.523   4.975
 8408W        W12369   2.652  12.143   4.940
 8409W        W12370   1.675  11.522   5.636
 8410W        W12371   3.637  13.433   6.147
 8411W        W12372   3.555  11.420   5.708
 8412W        W12373   0.094  14.250   5.084
 8413W        W12374   0.603  13.437   4.620
 8414W        W12375   0.518  11.054   7.173
 8415W        W12376   1.637  13.907   7.275
 8416W        W12377   3.392  12.875   5.065
 8417W        W12378   2.746  13.052   3.945
 8418W        W12379   2.041  14.573   6.157
 8419W        W12380   2.898  13.295   7.194
 8420W        W12381   1.713  11.005   4.474
 8421W        W12382   2.426  11.874   5.333
 8422W        W12383   0.112  13.461   5.665
 8423W        W12384   1.365  11.423   4.306
 8424W        W12385   1.169  12.907   7.155
 8425W        W12386   2.163  11.888   4.869
 8426W        W12387   2.368  13.298   5.991
 8427W        W12388   0.522  13.903   6.426
 8428W        W12389   1.113  13.886   7.149
 8429W        W12390   0.964  11.683   4.163
 8430W        W12391   2.481  11.825   4.488
 8431W        W12392   2.439  13.933   6.725
 8432W        W12393   1.124  12.525   5.324
 8433W        W12394   0.779  14.223   6.189
 8434W        W12395   3.524  14.340   3.790
 8435W        W12396   0.387  13.012   6.786
 8436W        W12397   2.382  13.274   5.474
 8437W        W12398   0.818  12.923   4.716
 8438W        W12399   1.189  13.930   6.111
 8439W        W12400   1.567  11.349   5.152
 8440W        W12401   0.178  13.333   4.082
 8441W        W12402   1.697  12.284   3.952
 8442W        W12403   0.343  12.833   4.971
 8443W        W12404   1.633  11.475   6.435
 8444W        W12405   3.305  11.184   3.862
 8445W        W12406   3.398  12.930   6.961
 8446W        W12407   2.052  14.187   7.113
 8447W        W12408   3.610  13.281   6.635
 8448W        W12409   3.018  14.079   7.246
 8449W        W12410   0.757  14.535   5.724
 8450W        W12411   3.616  13.157   4.598
 8451W        W12412   2.146  12.424   5.111
 8452W        W12413   1.913  11.036   5.001
 8453W        W12414   0.972  14.020   4.838
 8454W        W12415   1.471  11.761   6.063
 8455W        W12416   1.171  11.130   5.532
 8456W        W12417   0.234  13.952   4.080
 8457W        W12418   2.050  13.316   4.798
 8458W        W12419   0.925  14.111   6.677
 8459W        W12420   0.402  12.934   4.373
 8460W        W12421   0.287  11.477   5.372
 8461W        W12422   1.835  13.442   5.429
 8462W        W12423   0.087  11.296   4.449
 8463W        W12424   2.751  12.502   6.376
 8464W        W12425   2.628  11.888   3.948
 8465W        W12426   3.145  13.560   5.596
 8466W        W12427   1.806  14.044   5.427
 8467W        W12428   1.218  14.148   4.338
 8468W        W12429   2.500  11.051   3.768
 8469W        W12430   0.300  14.311   5.509
 8470W        W12431   2.497  12.069   7.144
 8471W        W12432   0.480  11.599   7.143
 8472W        W12433   0.211  12.199   4.476
 8473W        W12434   0.902  12.188   4.201
 8474W        W12435   2.665  12.515   7.018
 8475W        W12436   1.008  12.796   5.727
 8476W        W12437   2.482  11.082   4.847
 8477W        W12438   1.613  14.513   5.350
 8478W        W12439   2.827  13.975   6.287
 8479W        W12440   2.411  14.124   5.398
 8480W        W12441   2.430  13.104   4.992
 8481W        W12442   1.892  11.329   4.063
 8482W        W12443   3.573  10.957   4.785
 8483W        W12444   1.261  12.592   3.948
 8484W        W12445   3.427  11.929   4.938
 8485W        W12446   2.119  13.099   3.815
 8486W        W12447   3.055  13.299   6.563
 8487W        W12448   2.709  14.000   4.030
 8488W        W12449   1.324  11.675   6.936
 8489W        W12450   1.144  12.259   6.177
 8490W        W12451   3.236  13.754   6.454
 8491W        W12452   2.336  11.704   6.831
 8492W        W12453   0.180  12.175   6.608
 8493W        W12454   1.940  12.652   6.334
 8494W        W12455   0.297  13.410   4.991
 8495W        W12456   0.444  12.707   5.881
 8496W        W12457   2.761  12.993   6.231
 8497W        W12458   2.533  14.373   7.042
 8498W        W12459   2.429  12.112   6.595
 8499W        W12460   2.706  14.166   5.000
 8500W        W12461   1.708  13.886   6.323
 8501W        W12462   1.193  14.241   5.592
 8502W        W12463   2.998  13.412   6.011
 8503W        W12464   2.048  13.484   7.148
 8504W        W12465   0.653  13.437   5.487
 8505W        W12466   2.999  13.196   5.132
 8506W        W12467   2.640  14.262   5.883
 8507W        W12468   0.618  13.991   5.753
 8508W        W12469   1.639  12.043   6.963
 8509W        W12470   2.090  14.209   4.474
 8510W        W12471   1.398  13.464   7.112
 8511W        W12472   1.524  13.702   4.489
 8512W        W12473   0.745  12.442   3.748
 8513W        W12474   0.084  14.528  10.648
 8514W        W12475   0.460  13.421  10.171
 8515W        W12476   3.165  13.151   7.941
 8516W        W12477   3.295  14.236   9.968
 8517W        W12478   1.213  14.227   7.494
 8518W        W12479   1.296  12.379   8.477
 8519W        W12480   0.811  12.227   8.641
 8520W        W12481   1.802  13.042   8.075
 8521W        W12482   1.477  14.134  10.430
 8522W        W12483   0.126  11.695  10.393
 8523W        W12484   0.888  10.975  10.195
 8524W        W12485   2.582  11.363   9.082
 8525W        W12486   2.231  12.234   7.652
 8526W        W12487   2.801  11.668  10.743
 8527W        W12488   0.167  11.460   9.868
 8528W        W12489   0.266  14.079  10.889
 8529W        W12490   1.788  13.469   7.621
 8530W        W12491   0.220  12.252   9.314
 8531W        W12492   1.113  12.143  10.551
 8532W        W12493   3.572  12.002   9.050
 8533W        W12494   3.336  13.045   9.909
 8534W        W12495   1.644  12.378   8.936
 8535W        W12496   2.190  13.717   9.305
 8536W        W12497   0.690  13.151   9.537
 8537W        W12498   0.049  12.679   9.108
 8538W        W12499   1.085  12.651  10.300
 8539W        W12500   3.356  12.434  10.554
 8540W        W12501   0.972  13.878   8.999
 8541W        W12502   2.093  13.567  10.133
 8542W        W12503   1.313  12.207   9.358
 8543W        W12504   1.605  12.991   9.001
 8544W        W12505   2.602  13.764  10.849
 8545W        W12506   1.681  13.084  10.859
 8546W        W12507   1.662  12.800  10.337
 8547W        W12508   0.071  12.191  10.859
 8548W        W12509   2.903  13.726  10.458
 8549W        W12510   0.484  11.308   8.456
 8550W        W12511   1.011  13.566   9.455
 8551W        W12512   3.474  13.349   8.745
 8552W        W12513   2.887  11.749   9.312
 8553W        W12514   3.172  11.702   7.407
 8554W        W12515   3.637  12.503   9.713
 8555W        W12516   1.604  14.210   9.466
 8556W        W12517   3.378  13.676   7.904
 8557W        W12518   0.507  14.462   7.658
 8558W        W12519   0.900  14.508   8.334
 8559W        W12520   3.320  12.280  10.035
 8560W        W12521   2.725  12.702   8.494
 8561W        W12522   2.691  12.390   7.521
 8562W        W12523   1.899  13.534   9.661
 8563W        W12524   1.705  11.864   8.860
 8564W        W12525   2.305  13.951   9.854
 8565W        W12526   3.176  12.742   8.276
 8566W        W12527   2.078  11.400   8.292
 8567W        W12528   0.735  14.094   7.975
 8568W        W12529   0.106  11.593   8.574
 8569W        W12530   2.892  12.200   9.048
 8570W        W12531   0.350  13.817   8.963
 8571W        W12532   1.691  14.167   7.833
 8572W        W12533   3.083  12.193   7.297
 8573W        W12534   0.106  13.951   9.461
 8574W        W12535   0.897  13.523   9.941
 8575W        W12536   1.270  12.883   8.560
 8576W        W12537   1.292  11.288   9.653
 8577W        W12538   3.521  11.050   8.950
 8578W        W12539   0.740  12.922   7.418
 8579W        W12540   0.395  11.955   7.597
 8580W        W12541   0.457  13.911   8.391
 8581W        W12542   1.588  13.394   8.639
 8582W        W12543   2.920  14.253  10.353
 8583W        W12544   1.846  11.895   8.037
 8584W        W12545   3.229  14.293   8.809
 8585W        W12546   2.906  12.146  10.407
 8586W        W12547   2.246  13.094  10.025
 8587W        W12548   0.012  12.645   8.231
 8588W        W12549   1.123  13.060   9.804
 8589W        W12550   2.327  12.324   8.182
 8590W        W12551   2.204  12.814   8.286
 8591W        W12552   0.547  12.234   9.760
 8592W        W12553   0.532  12.110  10.682
 8593W        W12554   0.422  11.027   8.841
 8594W        W12555   2.190  11.374   9.402
 8595W        W12556   1.838  11.559  10.565
 8596W        W12557   2.193  11.708   7.743
 8597W        W12558   3.376  14.101  10.497
 8598W        W12559   2.343  11.182  10.536
 8599W        W12560   3.362  13.483  10.658
 8600W        W12561   2.792  11.650  10.254
 8601W        W12562   2.592  11.588   8.524
 8602W        W12563   2.985  12.722  10.928
 8603W        W12564   0.725  14.298   8.914
 8604W        W12565   1.383  12.015   7.900
 8605W        W12566   0.952  11.299  10.564
 8606W        W12567   3.004  11.783   8.245
 8607W        W12568   3.371  12.265   8.190
 8608W        W12569   1.114  14.482  10.661
 8609W        W12570   1.040  11.018   7.896
 8610W        W12571   3.361  11.552   8.931
 8611W        W12572   3.511  13.801   7.376
 8612W        W12573   0.418  13.004   9.078
 8613W        W12574   2.335  11.591   7.308
 8614W        W12575   3.469  13.923   9.028
 8615W        W12576   3.508  11.117   9.778
 8616W        W12577   1.953  12.329  10.332
 8617W        W12578   2.046  13.668   8.035
 8618W        W12579   2.446  12.962  10.775
 8619W        W12580   2.120  10.939   9.084
 8620W        W12581   0.732  11.842   9.147
 8621W        W12582   0.286  13.042   9.921
 8622W        W12583   2.145  14.235   8.627
 8623W        W12584   3.339  11.832   9.499
 8624W        W12585   1.976  14.179  10.266
 8625W        W12586   3.319  13.238   7.471
 8626W        W12587   1.754  12.721   8.532
 8627W        W12588   3.606  11.232  10.273
 8628W        W12589   1.755  13.067   9.867
 8629W        W12590   1.972  11.953   9.312
 8630W        W12591   2.824  12.251   8.150
 8631W        W12592   3.111  11.984   7.792
 8632W        W12593   2.920  14.024   8.181
 8633W        W12594   2.754  13.627   8.977
 8634W        W12595   2.650  12.706   7.955
 8635W        W12596   2.083  12.916   8.941
 8636W        W12597   2.964  12.704   9.008
 8637W        W12598   3.117  12.771  10.259
 8638W        W12599   3.468  14.389   9.405
 8639W        W12600   1.398  13.833   8.807
 8640W        W12601   2.405  14.366  10.131
 8641W        W12602   2.399  11.696   9.895
 8642W        W12603   1.606  14.404   9.956
 8643W        W12604   3.303  11.358   8.422
 8644W        W12605   3.094  12.677   9.723
 8645W        W12606   0.077  11.998   9.761
 8646W        W12607   2.937  11.793   8.779
 8647W        W12608   3.348  11.944  10.556
 8648W        W12609   2.233  13.643   8.774
 8649W        W12610   1.489  14.234   8.387
 8650W        W12611   0.604  11.414   7.645
 8651W        W12612   1.708  11.068   9.455
 8652W        W12613   0.736  14.188   7.303
 8653W        W12614   1.110  12.654   8.054
 8654W        W12615   1.764  13.283  10.367
 8655W        W12616   1.594  11.641   8.357
 8656W        W12617   2.950  11.238   8.785
 8657W        W12618   2.670  14.520   9.113
 8658W        W12619   2.082  14.168   9.453
 8659W        W12620   1.478  13.205   9.414
 8660W        W12621   3.248  13.928   9.540
 8661W        W12622   0.942  11.431   8.309
 8662W        W12623   1.464  13.728   9.269
 8663W        W12624   0.947  11.659   7.334
 8664W        W12625   1.748  12.268   9.728
 8665W        W12626   2.596  11.134   9.598
 8666W        W12627   0.016  12.977   9.483
 8667W        W12628   1.720  12.795   7.641
 8668W        W12629   0.988  11.110   7.411
 8669W        W12630   1.726  12.191   8.462
 8670W        W12631   2.696  11.167  10.161
 8671W        W12632   1.284  13.179  10.270
 8672W        W12633   2.088  12.961  10.487
 8673W        W12634   2.705  12.991  10.380
 8674W        W12635   1.989  11.131  10.885
 8675W        W12636   1.211  11.747   9.278
 8676W        W12637   0.637  11.703   8.676
 8677W        W12638   0.423  14.415   8.352
 8678W        W12639   1.755  13.745  10.477
 8679W        W12640   0.790  13.230   7.836
 8680W        W12641   2.470  12.615   9.057
 8681W        W12642   2.750  12.414   9.456
 8682W        W12643   1.955  13.088   9.390
 8683W        W12644   2.425  13.462   7.522
 8684W        W12645   2.097  11.483   8.850
 8685W        W12646   3.576  11.761   8.118
 8686W        W12647   0.070  14.350  10.149
 8687W        W12648   0.487  13.576   9.681
 8688W        W12649   0.054  14.422   7.913
 8689W        W12650   1.953  11.692   9.719
 8690W        W12651   1.316  13.715   7.568
 8691W        W12652   3.221  14.097   7.754
 8692W        W12653   2.196  12.750   7.768
 8693W        W12654   1.039  11.941   8.285
 8694W        W12655   1.871  11.851   7.337
 8695W        W12656   2.455  13.416  10.515
 8696W        W12657   2.808  11.322   8.132
 8697W        W12658   0.138  11.170   7.580
 8698W        W12659   1.424  13.489   9.870
 8699W        W12660   1.223  13.405   8.962
 8700W        W12661   0.965  13.357   7.360
 8701W        W12662   0.206  13.598   8.128
 8702W        W12663   0.710  12.668  10.570
 8703W        W12664   1.414  11.228  10.756
 8704W        W12665   2.123  11.370  10.112
 8705W        W12666   1.318  11.138   8.393
 8706W        W12667   2.377  11.215   7.898
 8707W        W12668   0.322  11.147   9.475
 8708W        W12669   0.370  12.110   8.845
 8709W        W12670   3.059  11.218   9.251
 8710W        W12671   0.481  11.716   8.065
 8711W        W12672   3.052  11.404   9.681
 8712W        W12673   3.448  12.607   7.366
 8713W        W12674   0.740  11.365   9.185
 8714W        W12675   1.854  11.937  10.125
 8715W        W12676   0.002  11.627   7.603
 8716W        W12677   0.788  13.016  10.164
 8717W        W12678   2.146  12.414   9.343
 8718W        W12679   2.013  14.493   7.639
 8719W        W12680   0.159  13.000   7.336
 8720W        W12681   0.894  13.411  10.462
 8721W        W12682   0.415  12.578  10.093
 8722W        W12683   1.406  12.683   9.887
 8723W        W12684   3.174  11.042  10.149
 8724W        W12685   3.572  12.652  10.140
 8725W        W12686   3.560  12.852   7.826
 8726W        W12687   2.423  13.184   7.925
 8727W        W12688   2.897  14.484   7.620
 8728W        W12689   2.074  12.474  10.762
 8729W        W12690   0.404  13.441  10.802
 8730W        W12691   3.610  11.363  10.754
 8731W        W12692   3.328  12.291   9.375
 8732W        W12693   1.636  14.421  10.852
 8733W        W12694   1.491  11.050   7.579
 8734W        W12695   3.030  13.649   7.522
 8735W        W12696   0.799  11.742  10.408
 8736W        W12697   1.233  13.736  10.270
 8737W        W12698   3.359  11.727  10.068
 8738W        W12699   2.570  14.386   8.036
 8739W        W12700   2.809  13.005   9.403
 8740W        W12701   1.059  11.421  10.070
 8741W        W12702   1.528  12.490  10.827
 8742W        W12703   1.031  13.669   8.021
 8743W        W12704   2.786  13.167   8.285
 8744W        W12705   0.554  11.793  10.009
 8745W        W12706   1.883  13.855   8.473
 8746W        W12707   3.633  12.415   8.654
 8747W        W12708   1.855  11.048  10.373
 8748W        W12709   2.635  13.753   9.452
 8749W        W12710   2.938  14.097   9.160
 8750W        W12711   2.157  13.899   7.588
 8751W        W12712   0.167  13.791  10.430
 8752W        W12713   0.910  11.783   9.668
 8753W        W12714   0.880  11.131   8.778
 8754W        W12715   2.501  11.973   9.470
 8755W        W12716   1.299  13.144   7.670
 8756W        W12717   3.297  13.086   9.169
 8757W        W12718   0.624  13.844  10.592
 8758W        W12719   3.011  14.526   8.389
 8759W        W12720   1.110  11.546   8.834
 8760W        W12721   0.879  13.039   8.924
 8761W        W12722   1.192  14.450   9.674
 8762W        W12723   3.259  14.546  10.706
 8763W        W12724   2.418  12.734   9.639
 8764W        W12725   0.267  12.532   7.554
 8765W        W12726   3.401  14.190   8.251
 8766W        W12727   3.238  11.514   7.870
 8767W        W12728   1.377  11.033  10.273
 8768W        W12729   3.083  13.835   8.731
 8769W        W12730   3.112  12.391   8.636
 8770W        W12731   1.229  12.064   8.852
 8771W        W12732   1.474  12.326  10.176
 8772W        W12733   2.585  13.479  10.039
 8773W        W12734   1.235  11.933  10.151
 8774W        W12735   1.214  14.399   8.767
 8775W        W12736   0.531  14.358  10.401
 8776W        W12737   0.643  13.719   7.531
 8777W        W12738   3.160  13.477   8.341
 8778W        W12739   0.764  12.269  10.227
 8779W        W12740   3.537  12.199   7.708
 8780W        W12741   1.282  13.256   8.179
 8781W        W12742   2.381  12.638  10.260
 8782W        W12743   2.272  12.266   9.804
 8783W        W12744   0.832  12.638   9.833
 8784W        W12745   3.042  14.526   9.662
 8785W        W12746   2.833  11.160  10.656
 8786W        W12747   0.497  11.310  10.243
 8787W        W12748   0.836  12.333   9.296
 8788W        W12749   1.205  12.147   7.418
 8789W        W12750   0.008  13.906   9.963
 8790W        W12751   1.593  12.615   9.406
 8791W        W12752   1.416  11.640   7.511
 8792W        W12753   0.551  12.456   8.292
 8793W        W12754   0.322  14.308   9.729
 8794W        W12755   3.117  12.534   7.837
 8795W        W12756   3.212  11.450  10.523
 8796W        W12757   2.648  13.659   8.486
 8797W        W12758   0.246  12.583  10.663
 8798W        W12759   3.212  11.047   7.959
 8799W        W12760   2.732  13.522   7.970
 8800W        W12761   1.634  12.580   8.055
 8801W        W12762   2.821  11.384   7.578
 8802W        W12763   2.886  11.991   9.764
 8803W        W12764   0.595  12.584   8.971
 8804W        W12765   0.889  13.523   8.620
 8805W        W12766   2.652  12.143   8.585
 8806W        W12767   1.675  11.522   9.281
 8807W        W12768   3.637  13.433   9.792
 8808W        W12769   3.555  11.420   9.353
 8809W        W12770   0.094  14.250   8.729
 8810W        W12771   0.603  13.437   8.265
 8811W        W12772   0.518  11.054  10.818
 8812W        W12773   1.637  13.907  10.920
 8813W        W12774   3.392  12.875   8.710
 8814W        W12775   2.746  13.052   7.590
 8815W        W12776   2.041  14.573   9.802
 8816W        W12777   2.898  13.295  10.839
 8817W        W12778   1.713  11.005   8.119
 8818W        W12779   2.426  11.874   8.978
 8819W        W12780   0.112  13.461   9.310
 8820W        W12781   1.365  11.423   7.951
 8821W        W12782   1.169  12.907  10.800
 8822W        W12783   2.163  11.888   8.514
 8823W        W12784   2.368  13.298   9.636
 8824W        W12785   0.522  13.903  10.071
 8825W        W12786   1.113  13.886  10.794
 8826W        W12787   0.964  11.683   7.808
 8827W        W12788   2.481  11.825   8.133
 8828W        W12789   2.439  13.933  10.370
 8829W        W12790   1.124  12.525   8.969
 8830W        W12791   0.779  14.223   9.834
 8831W        W12792   3.524  14.340   7.435
 8832W        W12793   0.387  13.012  10.431
 8833W        W12794   2.382  13.274   9.119
 8834W        W12795   0.818  12.923   8.361
 8835W        W12796   1.189  13.930   9.756
 8836W        W12797   1.567  11.349   8.797
 8837W        W12798   0.178  13.333   7.727
 8838W        W12799   1.697  12.284   7.597
 8839W        W12800   0.343  12.833   8.616
 8840W        W12801   1.633  11.475  10.080
 8841W        W12802   3.305  11.184   7.507
 8842W        W12803   3.398  12.930  10.606
 8843W        W12804   2.052  14.187  10.758
 8844W        W12805   3.610  13.281  10.280
 8845W        W12806   3.018  14.079  10.891
 8846W        W12807   0.757  14.535   9.369
 8847W        W12808   3.616  13.157   8.243
 8848W        W12809   2.146  12.424   8.756
 8849W        W12810   1.913  11.036   8.646
 8850W        W12811   0.972  14.020   8.483
 8851W        W12812   1.471  11.761   9.708
 8852W        W12813   1.171  11.130   9.177
 8853W        W12814   0.234  13.952   7.725
 8854W        W12815   2.050  13.316   8.443
 8855W        W12816   0.925  14.111  10.322
 8856W        W12817   0.402  12.934   8.018
 8857W        W12818   0.287  11.477   9.017
 8858W        W12819   1.835  13.442   9.074
 8859W        W12820   0.087  11.296   8.094
 8860W        W12821   2.751  12.502  10.021
 8861W        W12822   2.628  11.888   7.593
 8862W        W12823   3.145  13.560   9.241
 8863W        W12824   1.806  14.044   9.072
 8864W        W12825   1.218  14.148   7.983
 8865W        W12826   2.500  11.051   7.413
 8866W        W12827   0.300  14.311   9.154
 8867W        W12828   2.497  12.069  10.789
 8868W        W12829   0.480  11.599  10.788
 8869W        W12830   0.211  12.199   8.121
 8870W        W12831   0.902  12.188   7.846
 8871W        W12832   2.665  12.515  10.663
 8872W        W12833   1.008  12.796   9.372
 8873W        W12834   2.482  11.082   8.492
 8874W        W12835   1.613  14.513   8.995
 8875W        W12836   2.827  13.975   9.932
 8876W        W12837   2.411  14.124   9.043
 8877W        W12838   2.430  13.104   8.637
 8878W        W12839   1.892  11.329   7.708
 8879W        W12840   3.573  10.957   8.430
 8880W        W12841   1.261  12.592   7.593
 8881W        W12842   3.427  11.929   8.583
 8882W        W12843   2.119  13.099   7.460
 8883W        W12844   3.055  13.299  10.208
 8884W        W12845   2.709  14.000   7.675
 8885W        W12846   1.324  11.675  10.581
 8886W        W12847   1.144  12.259   9.822
 8887W        W12848   3.236  13.754  10.099
 8888W        W12849   2.336  11.704  10.476
 8889W        W12850   0.180  12.175  10.253
 8890W        W12851   1.940  12.652   9.979
 8891W        W12852   0.297  13.410   8.636
 8892W        W12853   0.444  12.707   9.526
 8893W        W12854   2.761  12.993   9.876
 8894W        W12855   2.533  14.373  10.687
 8895W        W12856   2.429  12.112  10.240
 8896W        W12857   2.706  14.166   8.645
 8897W        W12858   1.708  13.886   9.968
 8898W        W12859   1.193  14.241   9.237
 8899W        W12860   2.998  13.412   9.656
 8900W        W12861   2.048  13.484  10.793
 8901W        W12862   0.653  13.437   9.132
 8902W        W12863   2.999  13.196   8.777
 8903W        W12864   2.640  14.262   9.528
 8904W        W12865   0.618  13.991   9.398
 8905W        W12866   1.639  12.043  10.608
 8906W        W12867   2.090  14.209   8.119
 8907W        W12868   1.398  13.464  10.757
 8908W        W12869   1.524  13.702   8.134
 8909W        W12870   0.745  12.442   7.393
 8910W        W12871   0.084  14.528  14.292
 8911W        W12872   0.460  13.421  13.815
 8912W        W12873   3.165  13.151  11.585
 8913W        W12874   3.295  14.236  13.612
 8914W        W12875   1.213  14.227  11.138
 8915W        W12876   1.296  12.379  12.121
 8916W        W12877   0.811  12.227  12.285
 8917W        W12878   1.802  13.042  11.719
 8918W        W12879   1.477  14.134  14.074
 8919W        W12880   0.126  11.695  14.037
 8920W        W12881   0.888  10.975  13.839
 8921W        W12882   2.582  11.363  12.726
 8922W        W12883   2.231  12.234  11.296
 8923W        W12884   2.801  11.668  14.387
 8924W        W12885   0.167  11.460  13.512
 8925W        W12886   0.266  14.079  14.533
 8926W        W12887   1.788  13.469  11.265
 8927W        W12888   0.220  12.252  12.958
 8928W        W12889   1.113  12.143  14.195
 8929W        W12890   3.572  12.002  12.694
 8930W        W12891   3.336  13.045  13.553
 8931W        W12892   1.644  12.378  12.580
 8932W        W12893   2.190  13.717  12.949
 8933W        W12894   0.690  13.151  13.181
 8934W        W12895   0.049  12.679  12.752
 8935W        W12896   1.085  12.651  13.944
 8936W        W12897   3.356  12.434  14.198
 8937W        W12898   0.972  13.878  12.643
 8938W        W12899   2.093  13.567  13.777
 8939W        W12900   1.313  12.207  13.002
 8940W        W12901   1.605  12.991  12.645
 8941W        W12902   2.602  13.764  14.493
 8942W        W12903   1.681  13.084  14.503
 8943W        W12904   1.662  12.800  13.981
 8944W        W12905   0.071  12.191  14.503
 8945W        W12906   2.903  13.726  14.102
 8946W        W12907   0.484  11.308  12.100
 8947W        W12908   1.011  13.566  13.099
 8948W        W12909   3.474  13.349  12.389
 8949W        W12910   2.887  11.749  12.956
 8950W        W12911   3.172  11.702  11.051
 8951W        W12912   3.637  12.503  13.357
 8952W        W12913   1.604  14.210  13.110
 8953W        W12914   3.378  13.676  11.548
 8954W        W12915   0.507  14.462  11.302
 8955W        W12916   0.900  14.508  11.978
 8956W        W12917   0.697  11.262  13.404
 8957W        W12918   3.320  12.280  13.679
 8958W        W12919   2.725  12.702  12.138
 8959W        W12920   2.691  12.390  11.165
 8960W        W12921   1.899  13.534  13.305
 8961W        W12922   1.705  11.864  12.504
 8962W        W12923   2.305  13.951  13.498
 8963W        W12924   3.176  12.742  11.920
 8964W        W12925   2.078  11.400  11.936
 8965W        W12926   0.735  14.094  11.619
 8966W        W12927   0.106  11.593  12.218
 8967W        W12928   2.892  12.200  12.692
 8968W        W12929   0.350  13.817  12.607
 8969W        W12930   1.691  14.167  11.477
 8970W        W12931   3.083  12.193  10.941
 8971W        W12932   0.106  13.951  13.105
 8972W        W12933   0.897  13.523  13.585
 8973W        W12934   1.270  12.883  12.204
 8974W        W12935   1.292  11.288  13.297
 8975W        W12936   3.521  11.050  12.594
 8976W        W12937   0.740  12.922  11.062
 8977W        W12938   0.395  11.955  11.241
 8978W        W12939   0.457  13.911  12.035
 8979W        W12940   1.588  13.394  12.283
 8980W        W12941   2.920  14.253  13.997
 8981W        W12942   1.846  11.895  11.681
 8982W        W12943   3.229  14.293  12.453
 8983W        W12944   2.906  12.146  14.051
 8984W        W12945   3.619  13.802  12.185
 8985W        W12946   2.246  13.094  13.669
 8986W        W12947   0.012  12.645  11.875
 8987W        W12948   1.123  13.060  13.448
 8988W        W12949   2.327  12.324  11.826
 8989W        W12950   2.204  12.814  11.930
 8990W        W12951   0.547  12.234  13.404
 8991W        W12952   0.532  12.110  14.326
 8992W        W12953   0.422  11.027  12.485
 8993W        W12954   2.190  11.374  13.046
 8994W        W12955   1.838  11.559  14.209
 8995W        W12956   2.193  11.708  11.387
 8996W        W12957   3.376  14.101  14.141
 8997W        W12958   2.343  11.182  14.180
 8998W        W12959   3.362  13.483  14.302
 8999W        W12960   2.792  11.650  13.898
 9000W        W12961   2.592  11.588  12.168
 9001W        W12962   2.985  12.722  14.572
 9002W        W12963   0.725  14.298  12.558
 9003W        W12964   1.383  12.015  11.544
 9004W        W12965   0.952  11.299  14.208
 9005W        W12966   3.004  11.783  11.889
 9006W        W12967   3.371  12.265  11.834
 9007W        W12968   1.114  14.482  14.305
 9008W        W12969   1.040  11.018  11.540
 9009W        W12970   3.361  11.552  12.575
 9010W        W12971   3.511  13.801  11.020
 9011W        W12972   0.418  13.004  12.722
 9012W        W12973   2.335  11.591  10.952
 9013W        W12974   3.469  13.923  12.672
 9014W        W12975   3.508  11.117  13.422
 9015W        W12976   1.953  12.329  13.976
 9016W        W12977   2.046  13.668  11.679
 9017W        W12978   2.446  12.962  14.419
 9018W        W12979   2.120  10.939  12.728
 9019W        W12980   0.732  11.842  12.791
 9020W        W12981   0.286  13.042  13.565
 9021W        W12982   2.145  14.235  12.271
 9022W        W12983   3.339  11.832  13.143
 9023W        W12984   1.976  14.179  13.910
 9024W        W12985   3.319  13.238  11.115
 9025W        W12986   1.754  12.721  12.176
 9026W        W12987   3.606  11.232  13.917
 9027W        W12988   1.755  13.067  13.511
 9028W        W12989   1.972  11.953  12.956
 9029W        W12990   2.824  12.251  11.794
 9030W        W12991   3.111  11.984  11.436
 9031W        W12992   2.920  14.024  11.825
 9032W        W12993   2.754  13.627  12.621
 9033W        W12994   2.650  12.706  11.599
 9034W        W12995   2.083  12.916  12.585
 9035W        W12996   2.964  12.704  12.652
 9036W        W12997   0.339  11.719  13.076
 9037W        W12998   3.117  12.771  13.903
 9038W        W12999   3.468  14.389  13.049
 9039W        W13000   1.398  13.833  12.451
 9040W        W13001   2.405  14.366  13.775
 9041W        W13002   2.399  11.696  13.539
 9042W        W13003   1.606  14.404  13.600
 9043W        W13004   3.303  11.358  12.066
 9044W        W13005   3.094  12.677  13.367
 9045W        W13006   0.077  11.998  13.405
 9046W        W13007   2.937  11.793  12.423
 9047W        W13008   3.348  11.944  14.200
 9048W        W13009   2.233  13.643  12.418
 9049W        W13010   1.489  14.234  12.031
 9050W        W13011   0.604  11.414  11.289
 9051W        W13012   1.708  11.068  13.099
 9052W        W13013   0.736  14.188  10.947
 9053W        W13014   1.110  12.654  11.698
 9054W        W13015   1.764  13.283  14.011
 9055W        W13016   1.594  11.641  12.001
 9056W        W13017   2.950  11.238  12.429
 9057W        W13018   2.670  14.520  12.757
 9058W        W13019   2.082  14.168  13.097
 9059W        W13020   1.478  13.205  13.058
 9060W        W13021   3.248  13.928  13.184
 9061W        W13022   0.942  11.431  11.953
 9062W        W13023   1.464  13.728  12.913
 9063W        W13024   0.947  11.659  10.978
 9064W        W13025   1.748  12.268  13.372
 9065W        W13026   2.596  11.134  13.242
 9066W        W13027   0.016  12.977  13.127
 9067W        W13028   1.720  12.795  11.285
 9068W        W13029   0.988  11.110  11.055
 9069W        W13030   1.726  12.191  12.106
 9070W        W13031   2.696  11.167  13.805
 9071W        W13032   1.284  13.179  13.914
 9072W        W13033   2.088  12.961  14.131
 9073W        W13034   2.705  12.991  14.024
 9074W        W13035   1.989  11.131  14.529
 9075W        W13036   1.211  11.747  12.922
 9076W        W13037   0.637  11.703  12.320
 9077W        W13038   0.423  14.415  11.996
 9078W        W13039   1.755  13.745  14.121
 9079W        W13040   0.790  13.230  11.480
 9080W        W13041   2.470  12.615  12.701
 9081W        W13042   2.750  12.414  13.100
 9082W        W13043   1.955  13.088  13.034
 9083W        W13044   2.425  13.462  11.166
 9084W        W13045   2.097  11.483  12.494
 9085W        W13046   3.576  11.761  11.762
 9086W        W13047   0.070  14.350  13.793
 9087W        W13048   0.487  13.576  13.325
 9088W        W13049   0.054  14.422  11.557
 9089W        W13050   1.953  11.692  13.363
 9090W        W13051   1.316  13.715  11.212
 9091W        W13052   3.221  14.097  11.398
 9092W        W13053   2.196  12.750  11.412
 9093W        W13054   1.039  11.941  11.929
 9094W        W13055   1.871  11.851  10.981
 9095W        W13056   2.455  13.416  14.159
 9096W        W13057   2.808  11.322  11.776
 9097W        W13058   0.138  11.170  11.224
 9098W        W13059   1.424  13.489  13.514
 9099W        W13060   1.223  13.405  12.606
 9100W        W13061   0.965  13.357  11.004
 9101W        W13062   0.206  13.598  11.772
 9102W        W13063   0.710  12.668  14.214
 9103W        W13064   1.414  11.228  14.400
 9104W        W13065   2.123  11.370  13.756
 9105W        W13066   1.318  11.138  12.037
 9106W        W13067   2.377  11.215  11.542
 9107W        W13068   0.322  11.147  13.119
 9108W        W13069   0.370  12.110  12.489
 9109W        W13070   3.059  11.218  12.895
 9110W        W13071   0.481  11.716  11.709
 9111W        W13072   3.052  11.404  13.325
 9112W        W13073   3.448  12.607  11.010
 9113W        W13074   0.740  11.365  12.829
 9114W        W13075   1.854  11.937  13.769
 9115W        W13076   0.002  11.627  11.247
 9116W        W13077   0.788  13.016  13.808
 9117W        W13078   2.146  12.414  12.987
 9118W        W13079   2.013  14.493  11.283
 9119W        W13080   0.159  13.000  10.980
 9120W        W13081   0.894  13.411  14.106
 9121W        W13082   0.415  12.578  13.737
 9122W        W13083   1.406  12.683  13.531
 9123W        W13084   3.174  11.042  13.793
 9124W        W13085   3.572  12.652  13.784
 9125W        W13086   3.560  12.852  11.470
 9126W        W13087   2.423  13.184  11.569
 9127W        W13088   2.897  14.484  11.264
 9128W        W13089   2.074  12.474  14.406
 9129W        W13090   0.404  13.441  14.446
 9130W        W13091   3.610  11.363  14.398
 9131W        W13092   3.328  12.291  13.019
 9132W        W13093   1.636  14.421  14.496
 9133W        W13094   1.491  11.050  11.223
 9134W        W13095   3.030  13.649  11.166
 9135W        W13096   0.799  11.742  14.052
 9136W        W13097   1.233  13.736  13.914
 9137W        W13098   3.359  11.727  13.712
 9138W        W13099   2.570  14.386  11.680
 9139W        W13100   2.809  13.005  13.047
 9140W        W13101   1.059  11.421  13.714
 9141W        W13102   1.528  12.490  14.471
 9142W        W13103   1.031  13.669  11.665
 9143W        W13104   2.786  13.167  11.929
 9144W        W13105   0.554  11.793  13.653
 9145W        W13106   1.883  13.855  12.117
 9146W        W13107   3.633  12.415  12.298
 9147W        W13108   1.855  11.048  14.017
 9148W        W13109   2.635  13.753  13.096
 9149W        W13110   2.938  14.097  12.804
 9150W        W13111   2.157  13.899  11.232
 9151W        W13112   0.167  13.791  14.074
 9152W        W13113   0.910  11.783  13.312
 9153W        W13114   0.880  11.131  12.422
 9154W        W13115   2.501  11.973  13.114
 9155W        W13116   1.299  13.144  11.314
 9156W        W13117   3.297  13.086  12.813
 9157W        W13118   0.624  13.844  14.236
 9158W        W13119   3.011  14.526  12.033
 9159W        W13120   1.110  11.546  12.478
 9160W        W13121   0.879  13.039  12.568
 9161W        W13122   1.192  14.450  13.318
 9162W        W13123   3.259  14.546  14.350
 9163W        W13124   2.418  12.734  13.283
 9164W        W13125   0.267  12.532  11.198
 9165W        W13126   3.401  14.190  11.895
 9166W        W13127   3.238  11.514  11.514
 9167W        W13128   1.377  11.033  13.917
 9168W        W13129   3.083  13.835  12.375
 9169W        W13130   3.112  12.391  12.280
 9170W        W13131   1.229  12.064  12.496
 9171W        W13132   1.474  12.326  13.820
 9172W        W13133   2.585  13.479  13.683
 9173W        W13134   1.235  11.933  13.795
 9174W        W13135   1.214  14.399  12.411
 9175W        W13136   0.531  14.358  14.045
 9176W        W13137   0.643  13.719  11.175
 9177W        W13138   3.160  13.477  11.985
 9178W        W13139   0.764  12.269  13.871
 9179W        W13140   3.537  12.199  11.352
 9180W        W13141   1.282  13.256  11.823
 9181W        W13142   2.381  12.638  13.904
 9182W        W13143   2.272  12.266  13.448
 9183W        W13144   0.832  12.638  13.477
 9184W        W13145   3.042  14.526  13.306
 9185W        W13146   2.833  11.160  14.300
 9186W        W13147   0.497  11.310  13.887
 9187W        W13148   0.836  12.333  12.940
 9188W        W13149   1.205  12.147  11.062
 9189W        W13150   0.008  13.906  13.607
 9190W        W13151   1.593  12.615  13.050
 9191W        W13152   1.416  11.640  11.155
 9192W        W13153   0.551  12.456  11.936
 9193W        W13154   0.322  14.308  13.373
 9194W        W13155   3.117  12.534  11.481
 9195W        W13156   3.212  11.450  14.167
 9196W        W13157   2.648  13.659  12.130
 9197W        W13158   0.246  12.583  14.307
 9198W        W13159   3.212  11.047  11.603
 9199W        W13160   2.732  13.522  11.614
 9200W        W13161   1.634  12.580  11.699
 9201W        W13162   2.821  11.384  11.222
 9202W        W13163   2.886  11.991  13.408
 9203W        W13164   0.595  12.584  12.615
 9204W        W13165   0.889  13.523  12.264
 9205W        W13166   2.652  12.143  12.229
 9206W        W13167   1.675  11.522  12.925
 9207W        W13168   3.637  13.433  13.436
 9208W        W13169   3.555  11.420  12.997
 9209W        W13170   0.094  14.250  12.373
 9210W        W13171   0.603  13.437  11.909
 9211W        W13172   0.518  11.054  14.462
 9212W        W13173   1.637  13.907  14.564
 9213W        W13174   3.392  12.875  12.354
 9214W        W13175   2.746  13.052  11.234
 9215W        W13176   2.041  14.573  13.446
 9216W        W13177   2.898  13.295  14.483
 9217W        W13178   1.713  11.005  11.763
 9218W        W13179   2.426  11.874  12.622
 9219W        W13180   0.112  13.461  12.954
 9220W        W13181   1.365  11.423  11.595
 9221W        W13182   1.169  12.907  14.444
 9222W        W13183   2.163  11.888  12.158
 9223W        W13184   2.368  13.298  13.280
 9224W        W13185   0.522  13.903  13.715
 9225W        W13186   1.113  13.886  14.438
 9226W        W13187   0.964  11.683  11.452
 9227W        W13188   2.481  11.825  11.777
 9228W        W13189   2.439  13.933  14.014
 9229W        W13190   1.124  12.525  12.613
 9230W        W13191   0.779  14.223  13.478
 9231W        W13192   3.524  14.340  11.079
 9232W        W13193   0.387  13.012  14.075
 9233W        W13194   2.382  13.274  12.763
 9234W        W13195   0.818  12.923  12.005
 9235W        W13196   1.189  13.930  13.400
 9236W        W13197   1.567  11.349  12.441
 9237W        W13198   0.178  13.333  11.371
 9238W        W13199   1.697  12.284  11.241
 9239W        W13200   0.343  12.833  12.260
 9240W        W13201   1.633  11.475  13.724
 9241W        W13202   3.305  11.184  11.151
 9242W        W13203   3.398  12.930  14.250
 9243W        W13204   2.052  14.187  14.402
 9244W        W13205   3.610  13.281  13.924
 9245W        W13206   3.018  14.079  14.535
 9246W        W13207   0.757  14.535  13.013
 9247W        W13208   3.616  13.157  11.887
 9248W        W13209   2.146  12.424  12.400
 9249W        W13210   1.913  11.036  12.290
 9250W        W13211   0.972  14.020  12.127
 9251W        W13212   1.471  11.761  13.352
 9252W        W13213   1.171  11.130  12.821
 9253W        W13214   0.234  13.952  11.369
 9254W        W13215   2.050  13.316  12.087
 9255W        W13216   0.925  14.111  13.966
 9256W        W13217   0.402  12.934  11.662
 9257W        W13218   0.287  11.477  12.661
 9258W        W13219   1.835  13.442  12.718
 9259W        W13220   0.087  11.296  11.738
 9260W        W13221   2.751  12.502  13.665
 9261W        W13222   2.628  11.888  11.237
 9262W        W13223   3.145  13.560  12.885
 9263W        W13224   1.806  14.044  12.716
 9264W        W13225   1.218  14.148  11.627
 9265W        W13226   2.500  11.051  11.057
 9266W        W13227   0.300  14.311  12.798
 9267W        W13228   2.497  12.069  14.433
 9268W        W13229   0.480  11.599  14.432
 9269W        W13230   0.211  12.199  11.765
 9270W        W13231   0.902  12.188  11.490
 9271W        W13232   2.665  12.515  14.307
 9272W        W13233   1.008  12.796  13.016
 9273W        W13234   2.482  11.082  12.136
 9274W        W13235   1.613  14.513  12.639
 9275W        W13236   2.827  13.975  13.576
 9276W        W13237   2.411  14.124  12.687
 9277W        W13238   2.430  13.104  12.281
 9278W        W13239   1.892  11.329  11.352
 9279W        W13240   3.573  10.957  12.074
 9280W        W13241   1.261  12.592  11.237
 9281W        W13242   3.427  11.929  12.227
 9282W        W13243   2.119  13.099  11.104
 9283W        W13244   3.055  13.299  13.852
 9284W        W13245   2.709  14.000  11.319
 9285W        W13246   1.324  11.675  14.225
 9286W        W13247   1.144  12.259  13.466
 9287W        W13248   3.236  13.754  13.743
 9288W        W13249   2.336  11.704  14.120
 9289W        W13250   0.180  12.175  13.897
 9290W        W13251   1.940  12.652  13.623
 9291W        W13252   0.297  13.410  12.280
 9292W        W13253   0.444  12.707  13.170
 9293W        W13254   2.761  12.993  13.520
 9294W        W13255   2.533  14.373  14.331
 9295W        W13256   2.429  12.112  13.884
 9296W        W13257   2.706  14.166  12.289
 9297W        W13258   1.708  13.886  13.612
 9298W        W13259   1.193  14.241  12.881
 9299W        W13260   2.998  13.412  13.300
 9300W        W13261   2.048  13.484  14.437
 9301W        W13262   0.653  13.437  12.776
 9302W        W13263   2.999  13.196  12.421
 9303W        W13264   2.640  14.262  13.172
 9304W        W13265   0.618  13.991  13.042
 9305W        W13266   1.639  12.043  14.252
 9306W        W13267   2.090  14.209  11.763
 9307W        W13268   1.398  13.464  14.401
 9308W        W13269   1.524  13.702  11.778
 9309W        W13270   0.745  12.442  11.037
 9310W        W13271   0.084  14.528  17.936
 9311W        W13272   0.460  13.421  17.459
 9312W        W13273   3.165  13.151  15.229
 9313W        W13274   3.295  14.236  17.256
 9314W        W13275   1.213  14.227  14.782
 9315W        W13276   1.296  12.379  15.765
 9316W        W13277   0.811  12.227  15.929
 9317W        W13278   1.802  13.042  15.363
 9318W        W13279   1.477  14.134  17.718
 9319W        W13280   0.126  11.695  17.681
 9320W        W13281   0.888  10.975  17.483
 9321W        W13282   2.582  11.363  16.370
 9322W        W13283   2.231  12.234  14.940
 9323W        W13284   2.801  11.668  18.031
 9324W        W13285   0.167  11.460  17.156
 9325W        W13286   0.266  14.079  18.177
 9326W        W13287   1.788  13.469  14.909
 9327W        W13288   0.220  12.252  16.602
 9328W        W13289   1.113  12.143  17.839
 9329W        W13290   3.572  12.002  16.338
 9330W        W13291   3.336  13.045  17.197
 9331W        W13292   1.644  12.378  16.224
 9332W        W13293   2.190  13.717  16.593
 9333W        W13294   0.690  13.151  16.825
 9334W        W13295   0.049  12.679  16.396
 9335W        W13296   1.085  12.651  17.588
 9336W        W13297   3.356  12.434  17.842
 9337W        W13298   0.972  13.878  16.287
 9338W        W13299   2.093  13.567  17.421
 9339W        W13300   1.313  12.207  16.646
 9340W        W13301   1.605  12.991  16.289
 9341W        W13302   2.602  13.764  18.137
 9342W        W13303   1.681  13.084  18.147
 9343W        W13304   1.662  12.800  17.625
 9344W        W13305   0.071  12.191  18.147
 9345W        W13306   2.903  13.726  17.746
 9346W        W13307   0.484  11.308  15.744
 9347W        W13308   1.011  13.566  16.743
 9348W        W13309   3.474  13.349  16.033
 9349W        W13310   2.887  11.749  16.600
 9350W        W13311   3.172  11.702  14.695
 9351W        W13312   3.637  12.503  17.001
 9352W        W13313   1.604  14.210  16.754
 9353W        W13314   3.378  13.676  15.192
 9354W        W13315   0.507  14.462  14.946
 9355W        W13316   0.900  14.508  15.622
 9356W        W13317   0.697  11.262  17.048
 9357W        W13318   3.320  12.280  17.323
 9358W        W13319   2.725  12.702  15.782
 9359W        W13320   2.691  12.390  14.809
 9360W        W13321   1.899  13.534  16.949
 9361W        W13322   1.705  11.864  16.148
 9362W        W13323   2.305  13.951  17.142
 9363W        W13324   3.176  12.742  15.564
 9364W        W13325   2.078  11.400  15.580
 9365W        W13326   0.735  14.094  15.263
 9366W        W13327   0.106  11.593  15.862
 9367W        W13328   2.892  12.200  16.336
 9368W        W13329   0.350  13.817  16.251
 9369W        W13330   1.691  14.167  15.121
 9370W        W13331   3.083  12.193  14.585
 9371W        W13332   0.106  13.951  16.749
 9372W        W13333   0.897  13.523  17.229
 9373W        W13334   1.270  12.883  15.848
 9374W        W13335   1.292  11.288  16.941
 9375W        W13336   3.521  11.050  16.238
 9376W        W13337   0.740  12.922  14.706
 9377W        W13338   0.395  11.955  14.885
 9378W        W13339   0.457  13.911  15.679
 9379W        W13340   1.588  13.394  15.927
 9380W        W13341   2.920  14.253  17.641
 9381W        W13342   1.846  11.895  15.325
 9382W        W13343   3.229  14.293  16.097
 9383W        W13344   2.906  12.146  17.695
 9384W        W13345   3.619  13.802  15.829
 9385W        W13346   2.246  13.094  17.313
 9386W        W13347   0.012  12.645  15.519
 9387W        W13348   1.123  13.060  17.092
 9388W        W13349   2.327  12.324  15.470
 9389W        W13350   2.204  12.814  15.574
 9390W        W13351   0.547  12.234  17.048
 9391W        W13352   0.532  12.110  17.970
 9392W        W13353   0.422  11.027  16.129
 9393W        W13354   2.190  11.374  16.690
 9394W        W13355   1.838  11.559  17.853
 9395W        W13356   2.193  11.708  15.031
 9396W        W13357   3.376  14.101  17.785
 9397W        W13358   2.343  11.182  17.824
 9398W        W13359   3.362  13.483  17.946
 9399W        W13360   2.792  11.650  17.542
 9400W        W13361   2.592  11.588  15.812
 9401W        W13362   2.985  12.722  18.216
 9402W        W13363   0.725  14.298  16.202
 9403W        W13364   1.383  12.015  15.188
 9404W        W13365   0.952  11.299  17.852
 9405W        W13366   3.004  11.783  15.533
 9406W        W13367   3.371  12.265  15.478
 9407W        W13368   1.114  14.482  17.949
 9408W        W13369   1.040  11.018  15.184
 9409W        W13370   3.361  11.552  16.219
 9410W        W13371   3.511  13.801  14.664
 9411W        W13372   0.418  13.004  16.366
 9412W        W13373   2.335  11.591  14.596
 9413W        W13374   3.469  13.923  16.316
 9414W        W13375   3.508  11.117  17.066
 9415W        W13376   1.953  12.329  17.620
 9416W        W13377   2.046  13.668  15.323
 9417W        W13378   2.446  12.962  18.063
 9418W        W13379   2.120  10.939  16.372
 9419W        W13380   0.732  11.842  16.435
 9420W        W13381   0.286  13.042  17.209
 9421W        W13382   2.145  14.235  15.915
 9422W        W13383   3.339  11.832  16.787
 9423W        W13384   1.976  14.179  17.554
 9424W        W13385   3.319  13.238  14.759
 9425W        W13386   1.754  12.721  15.820
 9426W        W13387   3.606  11.232  17.561
 9427W        W13388   1.755  13.067  17.155
 9428W        W13389   1.972  11.953  16.600
 9429W        W13390   2.824  12.251  15.438
 9430W        W13391   3.111  11.984  15.080
 9431W        W13392   2.920  14.024  15.469
 9432W        W13393   2.754  13.627  16.265
 9433W        W13394   2.650  12.706  15.243
 9434W        W13395   2.083  12.916  16.229
 9435W        W13396   2.964  12.704  16.296
 9436W        W13397   0.339  11.719  16.720
 9437W        W13398   3.117  12.771  17.547
 9438W        W13399   3.468  14.389  16.693
 9439W        W13400   1.398  13.833  16.095
 9440W        W13401   2.405  14.366  17.419
 9441W        W13402   2.399  11.696  17.183
 9442W        W13403   1.606  14.404  17.244
 9443W        W13404   3.303  11.358  15.710
 9444W        W13405   3.094  12.677  17.011
 9445W        W13406   0.077  11.998  17.049
 9446W        W13407   2.937  11.793  16.067
 9447W        W13408   3.348  11.944  17.844
 9448W        W13409   2.233  13.643  16.062
 9449W        W13410   1.489  14.234  15.675
 9450W        W13411   0.604  11.414  14.933
 9451W        W13412   1.708  11.068  16.743
 9452W        W13413   0.736  14.188  14.591
 9453W        W13414   1.110  12.654  15.342
 9454W        W13415   1.764  13.283  17.655
 9455W        W13416   1.594  11.641  15.645
 9456W        W13417   2.950  11.238  16.073
 9457W        W13418   2.670  14.520  16.401
 9458W        W13419   2.082  14.168  16.741
 9459W        W13420   1.478  13.205  16.702
 9460W        W13421   3.248  13.928  16.828
 9461W        W13422   0.942  11.431  15.597
 9462W        W13423   1.464  13.728  16.557
 9463W        W13424   0.947  11.659  14.622
 9464W        W13425   1.748  12.268  17.016
 9465W        W13426   2.596  11.134  16.886
 9466W        W13427   0.016  12.977  16.771
 9467W        W13428   1.720  12.795  14.929
 9468W        W13429   0.988  11.110  14.699
 9469W        W13430   1.726  12.191  15.750
 9470W        W13431   2.696  11.167  17.449
 9471W        W13432   1.284  13.179  17.558
 9472W        W13433   2.088  12.961  17.775
 9473W        W13434   2.705  12.991  17.668
 9474W        W13435   1.989  11.131  18.173
 9475W        W13436   1.211  11.747  16.566
 9476W        W13437   0.637  11.703  15.964
 9477W        W13438   0.423  14.415  15.640
 9478W        W13439   1.755  13.745  17.765
 9479W        W13440   0.790  13.230  15.124
 9480W        W13441   2.470  12.615  16.345
 9481W        W13442   2.750  12.414  16.744
 9482W        W13443   1.955  13.088  16.678
 9483W        W13444   2.425  13.462  14.810
 9484W        W13445   2.097  11.483  16.138
 9485W        W13446   3.576  11.761  15.406
 9486W        W13447   0.070  14.350  17.437
 9487W        W13448   0.487  13.576  16.969
 9488W        W13449   0.054  14.422  15.201
 9489W        W13450   1.953  11.692  17.007
 9490W        W13451   1.316  13.715  14.856
 9491W        W13452   3.221  14.097  15.042
 9492W        W13453   2.196  12.750  15.056
 9493W        W13454   1.039  11.941  15.573
 9494W        W13455   1.871  11.851  14.625
 9495W        W13456   2.455  13.416  17.803
 9496W        W13457   2.808  11.322  15.420
 9497W        W13458   0.138  11.170  14.868
 9498W        W13459   1.424  13.489  17.158
 9499W        W13460   1.223  13.405  16.250
 9500W        W13461   0.965  13.357  14.648
 9501W        W13462   0.206  13.598  15.416
 9502W        W13463   0.710  12.668  17.858
 9503W        W13464   1.414  11.228  18.044
 9504W        W13465   2.123  11.370  17.400
 9505W        W13466   1.318  11.138  15.681
 9506W        W13467   2.377  11.215  15.186
 9507W        W13468   0.322  11.147  16.763
 9508W        W13469   0.370  12.110  16.133
 9509W        W13470   3.059  11.218  16.539
 9510W        W13471   0.481  11.716  15.353
 9511W        W13472   3.052  11.404  16.969
 9512W        W13473   3.448  12.607  14.654
 9513W        W13474   0.740  11.365  16.473
 9514W        W13475   1.854  11.937  17.413
 9515W        W13476   0.002  11.627  14.891
 9516W        W13477   0.788  13.016  17.452
 9517W        W13478   2.146  12.414  16.631
 9518W        W13479   2.013  14.493  14.927
 9519W        W13480   0.159  13.000  14.624
 9520W        W13481   0.894  13.411  17.750
 9521W        W13482   0.415  12.578  17.381
 9522W        W13483   1.406  12.683  17.175
 9523W        W13484   3.174  11.042  17.437
 9524W        W13485   3.572  12.652  17.428
 9525W        W13486   3.560  12.852  15.114
 9526W        W13487   2.423  13.184  15.213
 9527W        W13488   2.897  14.484  14.908
 9528W        W13489   2.074  12.474  18.050
 9529W        W13490   0.404  13.441  18.090
 9530W        W13491   3.610  11.363  18.042
 9531W        W13492   3.328  12.291  16.663
 9532W        W13493   1.636  14.421  18.140
 9533W        W13494   1.491  11.050  14.867
 9534W        W13495   3.030  13.649  14.810
 9535W        W13496   0.799  11.742  17.696
 9536W        W13497   1.233  13.736  17.558
 9537W        W13498   3.359  11.727  17.356
 9538W        W13499   2.570  14.386  15.324
 9539W        W13500   2.809  13.005  16.691
 9540W        W13501   1.059  11.421  17.358
 9541W        W13502   1.528  12.490  18.115
 9542W        W13503   1.031  13.669  15.309
 9543W        W13504   2.786  13.167  15.573
 9544W        W13505   0.554  11.793  17.297
 9545W        W13506   1.883  13.855  15.761
 9546W        W13507   3.633  12.415  15.942
 9547W        W13508   1.855  11.048  17.661
 9548W        W13509   2.635  13.753  16.740
 9549W        W13510   2.938  14.097  16.448
 9550W        W13511   2.157  13.899  14.876
 9551W        W13512   0.167  13.791  17.718
 9552W        W13513   0.910  11.783  16.956
 9553W        W13514   0.880  11.131  16.066
 9554W        W13515   2.501  11.973  16.758
 9555W        W13516   1.299  13.144  14.958
 9556W        W13517   3.297  13.086  16.457
 9557W        W13518   0.624  13.844  17.880
 9558W        W13519   3.011  14.526  15.677
 9559W        W13520   1.110  11.546  16.122
 9560W        W13521   0.879  13.039  16.212
 9561W        W13522   1.192  14.450  16.962
 9562W        W13523   3.259  14.546  17.994
 9563W        W13524   2.418  12.734  16.927
 9564W        W13525   0.267  12.532  14.842
 9565W        W13526   3.401  14.190  15.539
 9566W        W13527   3.238  11.514  15.158
 9567W        W13528   1.377  11.033  17.561
 9568W        W13529   3.083  13.835  16.019
 9569W        W13530   3.112  12.391  15.924
 9570W        W13531   1.229  12.064  16.140
 9571W        W13532   1.474  12.326  17.464
 9572W        W13533   2.585  13.479  17.327
 9573W        W13534   1.235  11.933  17.439
 9574W        W13535   1.214  14.399  16.055
 9575W        W13536   0.531  14.358  17.689
 9576W        W13537   0.643  13.719  14.819
 9577W        W13538   3.160  13.477  15.629
 9578W        W13539   0.764  12.269  17.515
 9579W        W13540   3.537  12.199  14.996
 9580W        W13541   1.282  13.256  15.467
 9581W        W13542   2.381  12.638  17.548
 9582W        W13543   2.272  12.266  17.092
 9583W        W13544   0.832  12.638  17.121
 9584W        W13545   3.042  14.526  16.950
 9585W        W13546   2.833  11.160  17.944
 9586W        W13547   0.497  11.310  17.531
 9587W        W13548   0.836  12.333  16.584
 9588W        W13549   1.205  12.147  14.706
 9589W        W13550   0.008  13.906  17.251
 9590W        W13551   1.593  12.615  16.694
 9591W        W13552   1.416  11.640  14.799
 9592W        W13553   0.551  12.456  15.580
 9593W        W13554   0.322  14.308  17.017
 9594W        W13555   3.117  12.534  15.125
 9595W        W13556   3.212  11.450  17.811
 9596W        W13557   2.648  13.659  15.774
 9597W        W13558   0.246  12.583  17.951
 9598W        W13559   3.212  11.047  15.247
 9599W        W13560   2.732  13.522  15.258
 9600W        W13561   1.634  12.580  15.343
 9601W        W13562   2.821  11.384  14.866
 9602W        W13563   2.886  11.991  17.052
 9603W        W13564   0.595  12.584  16.259
 9604W        W13565   0.889  13.523  15.908
 9605W        W13566   2.652  12.143  15.873
 9606W        W13567   1.675  11.522  16.569
 9607W        W13568   3.637  13.433  17.080
 9608W        W13569   3.555  11.420  16.641
 9609W        W13570   0.094  14.250  16.017
 9610W        W13571   0.603  13.437  15.553
 9611W        W13572   0.518  11.054  18.106
 9612W        W13573   1.637  13.907  18.208
 9613W        W13574   3.392  12.875  15.998
 9614W        W13575   2.746  13.052  14.878
 9615W        W13576   2.041  14.573  17.090
 9616W        W13577   2.898  13.295  18.127
 9617W        W13578   1.713  11.005  15.407
 9618W        W13579   2.426  11.874  16.266
 9619W        W13580   0.112  13.461  16.598
 9620W        W13581   1.365  11.423  15.239
 9621W        W13582   1.169  12.907  18.088
 9622W        W13583   2.163  11.888  15.802
 9623W        W13584   2.368  13.298  16.924
 9624W        W13585   0.522  13.903  17.359
 9625W        W13586   1.113  13.886  18.082
 9626W        W13587   0.964  11.683  15.096
 9627W        W13588   2.481  11.825  15.421
 9628W        W13589   2.439  13.933  17.658
 9629W        W13590   1.124  12.525  16.257
 9630W        W13591   0.779  14.223  17.122
 9631W        W13592   3.524  14.340  14.723
 9632W        W13593   0.387  13.012  17.719
 9633W        W13594   2.382  13.274  16.407
 9634W        W13595   0.818  12.923  15.649
 9635W        W13596   1.189  13.930  17.044
 9636W        W13597   1.567  11.349  16.085
 9637W        W13598   0.178  13.333  15.015
 9638W        W13599   1.697  12.284  14.885
 9639W        W13600   0.343  12.833  15.904
 9640W        W13601   1.633  11.475  17.368
 9641W        W13602   3.305  11.184  14.795
 9642W        W13603   3.398  12.930  17.894
 9643W        W13604   2.052  14.187  18.046
 9644W        W13605   3.610  13.281  17.568
 9645W        W13606   3.018  14.079  18.179
 9646W        W13607   0.757  14.535  16.657
 9647W        W13608   3.616  13.157  15.531
 9648W        W13609   2.146  12.424  16.044
 9649W        W13610   1.913  11.036  15.934
 9650W        W13611   0.972  14.020  15.771
 9651W        W13612   1.471  11.761  16.996
 9652W        W13613   1.171  11.130  16.465
 9653W        W13614   0.234  13.952  15.013
 9654W        W13615   2.050  13.316  15.731
 9655W        W13616   0.925  14.111  17.610
 9656W        W13617   0.402  12.934  15.306
 9657W        W13618   0.287  11.477  16.305
 9658W        W13619   1.835  13.442  16.362
 9659W        W13620   0.087  11.296  15.382
 9660W        W13621   2.751  12.502  17.309
 9661W        W13622   2.628  11.888  14.881
 9662W        W13623   3.145  13.560  16.529
 9663W        W13624   1.806  14.044  16.360
 9664W        W13625   1.218  14.148  15.271
 9665W        W13626   2.500  11.051  14.701
 9666W        W13627   0.300  14.311  16.442
 9667W        W13628   2.497  12.069  18.077
 9668W        W13629   0.480  11.599  18.076
 9669W        W13630   0.211  12.199  15.409
 9670W        W13631   0.902  12.188  15.134
 9671W        W13632   2.665  12.515  17.951
 9672W        W13633   1.008  12.796  16.660
 9673W        W13634   2.482  11.082  15.780
 9674W        W13635   1.613  14.513  16.283
 9675W        W13636   2.827  13.975  17.220
 9676W        W13637   2.411  14.124  16.331
 9677W        W13638   2.430  13.104  15.925
 9678W        W13639   1.892  11.329  14.996
 9679W        W13640   3.573  10.957  15.718
 9680W        W13641   1.261  12.592  14.881
 9681W        W13642   3.427  11.929  15.871
 9682W        W13643   2.119  13.099  14.748
 9683W        W13644   3.055  13.299  17.496
 9684W        W13645   2.709  14.000  14.963
 9685W        W13646   1.324  11.675  17.869
 9686W        W13647   1.144  12.259  17.110
 9687W        W13648   3.236  13.754  17.387
 9688W        W13649   2.336  11.704  17.764
 9689W        W13650   0.180  12.175  17.541
 9690W        W13651   1.940  12.652  17.267
 9691W        W13652   0.297  13.410  15.924
 9692W        W13653   0.444  12.707  16.814
 9693W        W13654   2.761  12.993  17.164
 9694W        W13655   2.533  14.373  17.975
 9695W        W13656   2.429  12.112  17.528
 9696W        W13657   2.706  14.166  15.933
 9697W        W13658   1.708  13.886  17.256
 9698W        W13659   1.193  14.241  16.525
 9699W        W13660   2.998  13.412  16.944
 9700W        W13661   2.048  13.484  18.081
 9701W        W13662   0.653  13.437  16.420
 9702W        W13663   2.999  13.196  16.065
 9703W        W13664   2.640  14.262  16.816
 9704W        W13665   0.618  13.991  16.686
 9705W        W13666   1.639  12.043  17.896
 9706W        W13667   2.090  14.209  15.407
 9707W        W13668   1.398  13.464  18.045
 9708W        W13669   1.524  13.702  15.422
 9709W        W13670   0.745  12.442  14.681
 9710W        W13671   0.084  14.528  21.580
 9711W        W13672   0.460  13.421  21.103
 9712W        W13673   3.165  13.151  18.873
 9713W        W13674   3.295  14.236  20.900
 9714W        W13675   1.213  14.227  18.426
 9715W        W13676   1.296  12.379  19.409
 9716W        W13677   0.811  12.227  19.573
 9717W        W13678   1.802  13.042  19.007
 9718W        W13679   1.477  14.134  21.362
 9719W        W13680   0.126  11.695  21.325
 9720W        W13681   0.888  10.975  21.127
 9721W        W13682   2.582  11.363  20.014
 9722W        W13683   2.231  12.234  18.584
 9723W        W13684   2.801  11.668  21.675
 9724W        W13685   0.167  11.460  20.800
 9725W        W13686   0.266  14.079  21.821
 9726W        W13687   1.788  13.469  18.553
 9727W        W13688   0.220  12.252  20.246
 9728W        W13689   1.113  12.143  21.483
 9729W        W13690   3.572  12.002  19.982
 9730W        W13691   3.336  13.045  20.841
 9731W        W13692   1.644  12.378  19.868
 9732W        W13693   2.190  13.717  20.237
 9733W        W13694   0.690  13.151  20.469
 9734W        W13695   0.049  12.679  20.040
 9735W        W13696   1.085  12.651  21.232
 9736W        W13697   3.356  12.434  21.486
 9737W        W13698   0.972  13.878  19.931
 9738W        W13699   2.093  13.567  21.065
 9739W        W13700   1.313  12.207  20.290
 9740W        W13701   1.605  12.991  19.933
 9741W        W13702   2.602  13.764  21.781
 9742W        W13703   1.681  13.084  21.791
 9743W        W13704   1.662  12.800  21.269
 9744W        W13705   0.071  12.191  21.791
 9745W        W13706   2.903  13.726  21.390
 9746W        W13707   0.484  11.308  19.388
 9747W        W13708   1.011  13.566  20.387
 9748W        W13709   3.474  13.349  19.677
 9749W        W13710   2.887  11.749  20.244
 9750W        W13711   3.172  11.702  18.339
 9751W        W13712   3.637  12.503  20.645
 9752W        W13713   1.604  14.210  20.398
 9753W        W13714   3.378  13.676  18.836
 9754W        W13715   0.507  14.462  18.590
 9755W        W13716   0.900  14.508  19.266
 9756W        W13717   0.697  11.262  20.692
 9757W        W13718   3.320  12.280  20.967
 9758W        W13719   2.725  12.702  19.426
 9759W        W13720   2.691  12.390  18.453
 9760W        W13721   1.899  13.534  20.593
 9761W        W13722   1.705  11.864  19.792
 9762W        W13723   2.305  13.951  20.786
 9763W        W13724   3.176  12.742  19.208
 9764W        W13725   2.078  11.400  19.224
 9765W        W13726   0.735  14.094  18.907
 9766W        W13727   0.106  11.593  19.506
 9767W        W13728   2.892  12.200  19.980
 9768W        W13729   0.350  13.817  19.895
 9769W        W13730   1.691  14.167  18.765
 9770W        W13731   3.083  12.193  18.229
 9771W        W13732   0.106  13.951  20.393
 9772W        W13733   0.897  13.523  20.873
 9773W        W13734   1.270  12.883  19.492
 9774W        W13735   1.292  11.288  20.585
 9775W        W13736   3.521  11.050  19.882
 9776W        W13737   0.740  12.922  18.350
 9777W        W13738   0.395  11.955  18.529
 9778W        W13739   0.457  13.911  19.323
 9779W        W13740   1.588  13.394  19.571
 9780W        W13741   2.920  14.253  21.285
 9781W        W13742   1.846  11.895  18.969
 9782W        W13743   3.229  14.293  19.741
 9783W        W13744   2.906  12.146  21.339
 9784W        W13745   3.619  13.802  19.473
 9785W        W13746   2.246  13.094  20.957
 9786W        W13747   0.012  12.645  19.163
 9787W        W13748   1.123  13.060  20.736
 9788W        W13749   2.327  12.324  19.114
 9789W        W13750   2.204  12.814  19.218
 9790W        W13751   0.547  12.234  20.692
 9791W        W13752   0.532  12.110  21.614
 9792W        W13753   0.422  11.027  19.773
 9793W        W13754   2.190  11.374  20.334
 9794W        W13755   1.838  11.559  21.497
 9795W        W13756   2.193  11.708  18.675
 9796W        W13757   3.376  14.101  21.429
 9797W        W13758   2.343  11.182  21.468
 9798W        W13759   3.362  13.483  21.590
 9799W        W13760   2.792  11.650  21.186
 9800W        W13761   2.592  11.588  19.456
 9801W        W13762   2.985  12.722  21.860
 9802W        W13763   0.725  14.298  19.846
 9803W        W13764   1.383  12.015  18.832
 9804W        W13765   0.952  11.299  21.496
 9805W        W13766   3.004  11.783  19.177
 9806W        W13767   3.371  12.265  19.122
 9807W        W13768   1.114  14.482  21.593
 9808W        W13769   1.040  11.018  18.828
 9809W        W13770   3.361  11.552  19.863
 9810W        W13771   3.511  13.801  18.308
 9811W        W13772   0.418  13.004  20.010
 9812W        W13773   2.335  11.591  18.240
 9813W        W13774   3.469  13.923  19.960
 9814W        W13775   3.508  11.117  20.710
 9815W        W13776   1.953  12.329  21.264
 9816W        W13777   2.046  13.668  18.967
 9817W        W13778   2.446  12.962  21.707
 9818W        W13779   2.120  10.939  20.016
 9819W        W13780   0.732  11.842  20.079
 9820W        W13781   0.286  13.042  20.853
 9821W        W13782   2.145  14.235  19.559
 9822W        W13783   3.339  11.832  20.431
 9823W        W13784   1.976  14.179  21.198
 9824W        W13785   3.319  13.238  18.403
 9825W        W13786   1.754  12.721  19.464
 9826W        W13787   3.606  11.232  21.205
 9827W        W13788   1.755  13.067  20.799
 9828W        W13789   1.972  11.953  20.244
 9829W        W13790   2.824  12.251  19.082
 9830W        W13791   3.111  11.984  18.724
 9831W        W13792   2.920  14.024  19.113
 9832W        W13793   2.754  13.627  19.909
 9833W        W13794   2.650  12.706  18.887
 9834W        W13795   2.083  12.916  19.873
 9835W        W13796   2.964  12.704  19.940
 9836W        W13797   0.339  11.719  20.364
 9837W        W13798   3.117  12.771  21.191
 9838W        W13799   3.468  14.389  20.337
 9839W        W13800   1.398  13.833  19.739
 9840W        W13801   2.399  11.696  20.827
 9841W        W13802   1.606  14.404  20.888
 9842W        W13803   3.303  11.358  19.354
 9843W        W13804   3.094  12.677  20.655
 9844W        W13805   0.077  11.998  20.693
 9845W        W13806   2.937  11.793  19.711
 9846W        W13807   3.348  11.944  21.488
 9847W        W13808   2.233  13.643  19.706
 9848W        W13809   1.489  14.234  19.319
 9849W        W13810   0.604  11.414  18.577
 9850W        W13811   1.708  11.068  20.387
 9851W        W13812   0.736  14.188  18.235
 9852W        W13813   1.110  12.654  18.986
 9853W        W13814   1.764  13.283  21.299
 9854W        W13815   1.594  11.641  19.289
 9855W        W13816   2.950  11.238  19.717
 9856W        W13817   2.670  14.520  20.045
 9857W        W13818   1.478  13.205  20.346
 9858W        W13819   3.248  13.928  20.472
 9859W        W13820   0.942  11.431  19.241
 9860W        W13821   1.464  13.728  20.201
 9861W        W13822   0.947  11.659  18.266
 9862W        W13823   1.748  12.268  20.660
 9863W        W13824   2.596  11.134  20.530
 9864W        W13825   0.016  12.977  20.415
 9865W        W13826   1.720  12.795  18.573
 9866W        W13827   0.988  11.110  18.343
 9867W        W13828   1.726  12.191  19.394
 9868W        W13829   2.696  11.167  21.093
 9869W        W13830   1.284  13.179  21.202
 9870W        W13831   2.088  12.961  21.419
 9871W        W13832   2.705  12.991  21.312
 9872W        W13833   1.989  11.131  21.817
 9873W        W13834   1.211  11.747  20.210
 9874W        W13835   0.637  11.703  19.608
 9875W        W13836   0.423  14.415  19.284
 9876W        W13837   1.755  13.745  21.409
 9877W        W13838   0.790  13.230  18.768
 9878W        W13839   2.470  12.615  19.989
 9879W        W13840   2.750  12.414  20.388
 9880W        W13841   1.955  13.088  20.322
 9881W        W13842   2.425  13.462  18.454
 9882W        W13843   2.097  11.483  19.782
 9883W        W13844   3.576  11.761  19.050
 9884W        W13845   0.070  14.350  21.081
 9885W        W13846   0.487  13.576  20.613
 9886W        W13847   0.054  14.422  18.845
 9887W        W13848   1.953  11.692  20.651
 9888W        W13849   1.316  13.715  18.500
 9889W        W13850   3.221  14.097  18.686
 9890W        W13851   2.196  12.750  18.700
 9891W        W13852   1.039  11.941  19.217
 9892W        W13853   1.871  11.851  18.269
 9893W        W13854   2.455  13.416  21.447
 9894W        W13855   2.808  11.322  19.064
 9895W        W13856   0.138  11.170  18.512
 9896W        W13857   1.424  13.489  20.802
 9897W        W13858   1.223  13.405  19.894
 9898W        W13859   0.965  13.357  18.292
 9899W        W13860   0.206  13.598  19.060
 9900W        W13861   0.710  12.668  21.502
 9901W        W13862   1.414  11.228  21.688
 9902W        W13863   2.123  11.370  21.044
 9903W        W13864   1.318  11.138  19.325
 9904W        W13865   2.377  11.215  18.830
 9905W        W13866   0.322  11.147  20.407
 9906W        W13867   0.370  12.110  19.777
 9907W        W13868   3.059  11.218  20.183
 9908W        W13869   0.481  11.716  18.997
 9909W        W13870   3.052  11.404  20.613
 9910W        W13871   3.448  12.607  18.298
 9911W        W13872   0.740  11.365  20.117
 9912W        W13873   1.854  11.937  21.057
 9913W        W13874   0.002  11.627  18.535
 9914W        W13875   0.788  13.016  21.096
 9915W        W13876   2.146  12.414  20.275
 9916W        W13877   2.013  14.493  18.571
 9917W        W13878   0.159  13.000  18.268
 9918W        W13879   0.894  13.411  21.394
 9919W        W13880   0.415  12.578  21.025
 9920W        W13881   1.406  12.683  20.819
 9921W        W13882   3.174  11.042  21.081
 9922W        W13883   3.572  12.652  21.072
 9923W        W13884   3.560  12.852  18.758
 9924W        W13885   2.423  13.184  18.857
 9925W        W13886   2.897  14.484  18.552
 9926W        W13887   2.074  12.474  21.694
 9927W        W13888   0.404  13.441  21.734
 9928W        W13889   3.610  11.363  21.686
 9929W        W13890   3.328  12.291  20.307
 9930W        W13891   1.636  14.421  21.784
 9931W        W13892   1.491  11.050  18.511
 9932W        W13893   3.030  13.649  18.454
 9933W        W13894   0.799  11.742  21.340
 9934W        W13895   1.233  13.736  21.202
 9935W        W13896   3.359  11.727  21.000
 9936W        W13897   2.570  14.386  18.968
 9937W        W13898   2.809  13.005  20.335
 9938W        W13899   1.059  11.421  21.002
 9939W        W13900   1.528  12.490  21.759
 9940W        W13901   1.031  13.669  18.953
 9941W        W13902   2.786  13.167  19.217
 9942W        W13903   0.554  11.793  20.941
 9943W        W13904   1.883  13.855  19.405
 9944W        W13905   3.633  12.415  19.586
 9945W        W13906   1.855  11.048  21.305
 9946W        W13907   2.635  13.753  20.384
 9947W        W13908   2.938  14.097  20.092
 9948W        W13909   2.157  13.899  18.520
 9949W        W13910   0.167  13.791  21.362
 9950W        W13911   0.910  11.783  20.600
 9951W        W13912   0.880  11.131  19.710
 9952W        W13913   2.501  11.973  20.402
 9953W        W13914   1.299  13.144  18.602
 9954W        W13915   3.297  13.086  20.101
 9955W        W13916   0.624  13.844  21.524
 9956W        W13917   3.011  14.526  19.321
 9957W        W13918   1.110  11.546  19.766
 9958W        W13919   0.879  13.039  19.856
 9959W        W13920   1.192  14.450  20.606
 9960W        W13921   3.259  14.546  21.638
 9961W        W13922   2.418  12.734  20.571
 9962W        W13923   0.267  12.532  18.486
 9963W        W13924   3.401  14.190  19.183
 9964W        W13925   3.238  11.514  18.802
 9965W        W13926   1.377  11.033  21.205
 9966W        W13927   3.083  13.835  19.663
 9967W        W13928   3.112  12.391  19.568
 9968W        W13929   1.229  12.064  19.784
 9969W        W13930   1.474  12.326  21.108
 9970W        W13931   2.585  13.479  20.971
 9971W        W13932   1.235  11.933  21.083
 9972W        W13933   1.214  14.399  19.699
 9973W        W13934   0.531  14.358  21.333
 9974W        W13935   0.643  13.719  18.463
 9975W        W13936   3.160  13.477  19.273
 9976W        W13937   0.764  12.269  21.159
 9977W        W13938   3.537  12.199  18.640
 9978W        W13939   1.282  13.256  19.111
 9979W        W13940   2.381  12.638  21.192
 9980W        W13941   2.272  12.266  20.736
 9981W        W13942   0.832  12.638  20.765
 9982W        W13943   3.042  14.526  20.594
 9983W        W13944   2.833  11.160  21.588
 9984W        W13945   0.497  11.310  21.175
 9985W        W13946   0.836  12.333  20.228
 9986W        W13947   1.205  12.147  18.350
 9987W        W13948   0.008  13.906  20.895
 9988W        W13949   1.593  12.615  20.338
 9989W        W13950   1.416  11.640  18.443
 9990W        W13951   0.551  12.456  19.224
 9991W        W13952   0.322  14.308  20.661
 9992W        W13953   3.117  12.534  18.769
 9993W        W13954   3.212  11.450  21.455
 9994W        W13955   2.648  13.659  19.418
 9995W        W13956   0.246  12.583  21.595
 9996W        W13957   3.212  11.047  18.891
 9997W        W13958   2.732  13.522  18.902
 9998W        W13959   1.634  12.580  18.987
 9999W        W13960   2.821  11.384  18.510
10000W        W13961   2.886  11.991  20.696
10001W        W13962   0.595  12.584  19.903
10002W        W13963   0.889  13.523  19.552
10003W        W13964   2.652  12.143  19.517
10004W        W13965   1.675  11.522  20.213
10005W        W13966   3.637  13.433  20.724
10006W        W13967   3.555  11.420  20.285
10007W        W13968   0.094  14.250  19.661
10008W        W13969   0.603  13.437  19.197
10009W        W13970   0.518  11.054  21.750
10010W        W13971   1.637  13.907  21.852
10011W        W13972   3.392  12.875  19.642
10012W        W13973   2.746  13.052  18.522
10013W        W13974   2.041  14.573  20.734
10014W        W13975   2.898  13.295  21.771
10015W        W13976   1.713  11.005  19.051
10016W        W13977   2.426  11.874  19.910
10017W        W13978   0.112  13.461  20.242
10018W        W13979   1.365  11.423  18.883
10019W        W13980   1.169  12.907  21.732
10020W        W13981   2.163  11.888  19.446
10021W        W13982   2.368  13.298  20.568
10022W        W13983   0.522  13.903  21.003
10023W        W13984   1.113  13.886  21.726
10024W        W13985   0.964  11.683  18.740
10025W        W13986   2.481  11.825  19.065
10026W        W13987   1.124  12.525  19.901
10027W        W13988   0.779  14.223  20.766
10028W        W13989   3.524  14.340  18.367
10029W        W13990   0.387  13.012  21.363
10030W        W13991   2.382  13.274  20.051
10031W        W13992   0.818  12.923  19.293
10032W        W13993   1.189  13.930  20.688
10033W        W13994   1.567  11.349  19.729
10034W        W13995   0.178  13.333  18.659
10035W        W13996   1.697  12.284  18.529
10036W        W13997   0.343  12.833  19.548
10037W        W13998   1.633  11.475  21.012
10038W        W13999   3.305  11.184  18.439
10039W        W14000   3.398  12.930  21.538
10040W        W14001   2.052  14.187  21.690
10041W        W14002   3.610  13.281  21.212
10042W        W14003   3.018  14.079  21.823
10043W        W14004   0.757  14.535  20.301
10044W        W14005   3.616  13.157  19.175
10045W        W14006   2.146  12.424  19.688
10046W        W14007   1.913  11.036  19.578
10047W        W14008   0.972  14.020  19.415
10048W        W14009   1.471  11.761  20.640
10049W        W14010   1.171  11.130  20.109
10050W        W14011   0.234  13.952  18.657
10051W        W14012   2.050  13.316  19.375
10052W        W14013   0.925  14.111  21.254
10053W        W14014   0.402  12.934  18.950
10054W        W14015   0.287  11.477  19.949
10055W        W14016   1.835  13.442  20.006
10056W        W14017   0.087  11.296  19.026
10057W        W14018   2.751  12.502  20.953
10058W        W14019   2.628  11.888  18.525
10059W        W14020   3.145  13.560  20.173
10060W        W14021   1.806  14.044  20.004
10061W        W14022   1.218  14.148  18.915
10062W        W14023   2.500  11.051  18.345
10063W        W14024   0.300  14.311  20.086
10064W        W14025   2.497  12.069  21.721
10065W        W14026   0.480  11.599  21.720
10066W        W14027   0.211  12.199  19.053
10067W        W14028   0.902  12.188  18.778
10068W        W14029   2.665  12.515  21.595
10069W        W14030   1.008  12.796  20.304
10070W        W14031   2.482  11.082  19.424
10071W        W14032   1.613  14.513  19.927
10072W        W14033   2.827  13.975  20.864
10073W        W14034   2.411  14.124  19.975
10074W        W14035   2.430  13.104  19.569
10075W        W14036   1.892  11.329  18.640
10076W        W14037   3.573  10.957  19.362
10077W        W14038   1.261  12.592  18.525
10078W        W14039   3.427  11.929  19.515
10079W        W14040   2.119  13.099  18.392
10080W        W14041   3.055  13.299  21.140
10081W        W14042   2.709  14.000  18.607
10082W        W14043   1.324  11.675  21.513
10083W        W14044   1.144  12.259  20.754
10084W        W14045   3.236  13.754  21.031
10085W        W14046   2.336  11.704  21.408
10086W        W14047   0.180  12.175  21.185
10087W        W14048   1.940  12.652  20.911
10088W        W14049   0.297  13.410  19.568
10089W        W14050   0.444  12.707  20.458
10090W        W14051   2.761  12.993  20.808
10091W        W14052   2.533  14.373  21.619
10092W        W14053   2.429  12.112  21.172
10093W        W14054   2.706  14.166  19.577
10094W        W14055   1.708  13.886  20.900
10095W        W14056   1.193  14.241  20.169
10096W        W14057   2.998  13.412  20.588
10097W        W14058   2.048  13.484  21.725
10098W        W14059   0.653  13.437  20.064
10099W        W14060   2.999  13.196  19.709
10100W        W14061   2.640  14.262  20.460
10101W        W14062   0.618  13.991  20.330
10102W        W14063   1.639  12.043  21.540
10103W        W14064   2.090  14.209  19.051
10104W        W14065   1.398  13.464  21.689
10105W        W14066   1.524  13.702  19.066
10106W        W14067   0.745  12.442  18.325
10107W        W14068   3.165  13.151  22.518
10108W        W14069   1.213  14.227  22.071
10109W        W14070   1.296  12.379  23.054
10110W        W14071   0.811  12.227  23.218
10111W        W14072   1.802  13.042  22.652
10112W        W14073   2.231  12.234  22.229
10113W        W14074   1.788  13.469  22.198
10114W        W14075   0.484  11.308  23.033
10115W        W14076   3.172  11.702  21.984
10116W        W14077   3.378  13.676  22.481
10117W        W14078   0.507  14.462  22.235
10118W        W14079   0.900  14.508  22.911
10119W        W14080   2.725  12.702  23.071
10120W        W14081   2.691  12.390  22.098
10121W        W14082   3.176  12.742  22.853
10122W        W14083   2.078  11.400  22.869
10123W        W14084   0.735  14.094  22.552
10124W        W14085   1.691  14.167  22.410
10125W        W14086   3.083  12.193  21.874
10126W        W14087   1.270  12.883  23.137
10127W        W14088   0.740  12.922  21.995
10128W        W14089   0.395  11.955  22.174
10129W        W14090   0.457  13.911  22.968
10130W        W14091   1.588  13.394  23.216
10131W        W14092   1.846  11.895  22.614
10132W        W14093   0.012  12.645  22.808
10133W        W14094   2.327  12.324  22.759
10134W        W14095   2.204  12.814  22.863
10135W        W14096   2.193  11.708  22.320
10136W        W14097   2.592  11.588  23.101
10137W        W14098   1.383  12.015  22.477
10138W        W14099   3.004  11.783  22.822
10139W        W14100   3.371  12.265  22.767
10140W        W14101   1.040  11.018  22.473
10141W        W14102   3.511  13.801  21.953
10142W        W14103   2.335  11.591  21.885
10143W        W14104   2.046  13.668  22.612
10144W        W14105   2.145  14.235  23.204
10145W        W14106   3.319  13.238  22.048
10146W        W14107   1.754  12.721  23.109
10147W        W14108   2.824  12.251  22.727
10148W        W14109   3.111  11.984  22.369
10149W        W14110   2.920  14.024  22.758
10150W        W14111   2.650  12.706  22.532
10151W        W14112   3.303  11.358  22.999
10152W        W14113   1.489  14.234  22.964
10153W        W14114   0.604  11.414  22.222
10154W        W14115   0.736  14.188  21.880
10155W        W14116   1.110  12.654  22.631
10156W        W14117   1.594  11.641  22.934
10157W        W14118   0.942  11.431  22.886
10158W        W14119   0.947  11.659  21.911
10159W        W14120   1.720  12.795  22.218
10160W        W14121   0.988  11.110  21.988
10161W        W14122   1.726  12.191  23.039
10162W        W14123   0.637  11.703  23.253
10163W        W14124   0.423  14.415  22.929
10164W        W14125   0.790  13.230  22.413
10165W        W14126   2.425  13.462  22.099
10166W        W14127   3.576  11.761  22.695
10167W        W14128   0.054  14.422  22.490
10168W        W14129   1.316  13.715  22.145
10169W        W14130   3.221  14.097  22.331
10170W        W14131   2.196  12.750  22.345
10171W        W14132   1.039  11.941  22.862
10172W        W14133   1.871  11.851  21.914
10173W        W14134   2.808  11.322  22.709
10174W        W14135   0.138  11.170  22.157
10175W        W14136   0.965  13.357  21.937
10176W        W14137   0.206  13.598  22.705
10177W        W14138   1.318  11.138  22.970
10178W        W14139   2.377  11.215  22.475
10179W        W14140   0.481  11.716  22.642
10180W        W14141   3.448  12.607  21.943
10181W        W14142   0.002  11.627  22.180
10182W        W14143   2.013  14.493  22.216
10183W        W14144   0.159  13.000  21.913
10184W        W14145   3.560  12.852  22.403
10185W        W14146   2.423  13.184  22.502
10186W        W14147   2.897  14.484  22.197
10187W        W14148   1.491  11.050  22.156
10188W        W14149   3.030  13.649  22.099
10189W        W14150   2.570  14.386  22.613
10190W        W14151   1.031  13.669  22.598
10191W        W14152   2.786  13.167  22.862
10192W        W14153   1.883  13.855  23.050
10193W        W14154   3.633  12.415  23.231
10194W        W14155   2.157  13.899  22.165
10195W        W14156   1.299  13.144  22.247
10196W        W14157   3.011  14.526  22.966
10197W        W14158   0.267  12.532  22.131
10198W        W14159   3.401  14.190  22.828
10199W        W14160   3.238  11.514  22.447
10200W        W14161   3.112  12.391  23.213
10201W        W14162   0.643  13.719  22.108
10202W        W14163   3.160  13.477  22.918
10203W        W14164   3.537  12.199  22.285
10204W        W14165   1.282  13.256  22.756
10205W        W14166   1.205  12.147  21.995
10206W        W14167   1.416  11.640  22.088
10207W        W14168   0.551  12.456  22.869
10208W        W14169   3.117  12.534  22.414
10209W        W14170   2.648  13.659  23.063
10210W        W14171   3.212  11.047  22.536
10211W        W14172   2.732  13.522  22.547
10212W        W14173   1.634  12.580  22.632
10213W        W14174   2.821  11.384  22.155
10214W        W14175   0.889  13.523  23.197
10215W        W14176   2.652  12.143  23.162
10216W        W14177   0.094  14.250  23.306
10217W        W14178   0.603  13.437  22.842
10218W        W14179   3.392  12.875  23.287
10219W        W14180   2.746  13.052  22.167
10220W        W14181   1.713  11.005  22.696
10221W        W14182   1.365  11.423  22.528
10222W        W14183   2.163  11.888  23.091
10223W        W14184   0.964  11.683  22.385
10224W        W14185   2.481  11.825  22.710
10225W        W14186   3.524  14.340  22.012
10226W        W14187   0.178  13.333  22.304
10227W        W14188   1.697  12.284  22.174
10228W        W14189   0.343  12.833  23.193
10229W        W14190   3.305  11.184  22.084
10230W        W14191   3.616  13.157  22.820
10231W        W14192   1.913  11.036  23.223
10232W        W14193   0.972  14.020  23.060
10233W        W14194   0.234  13.952  22.302
10234W        W14195   2.050  13.316  23.020
10235W        W14196   0.402  12.934  22.595
10236W        W14197   0.087  11.296  22.671
10237W        W14198   2.628  11.888  22.170
10238W        W14199   1.218  14.148  22.560
10239W        W14200   2.500  11.051  21.990
10240W        W14201   0.211  12.199  22.698
10241W        W14202   0.902  12.188  22.423
10242W        W14203   2.430  13.104  23.214
10243W        W14204   1.892  11.329  22.285
10244W        W14205   3.573  10.957  23.007
10245W        W14206   1.261  12.592  22.170
10246W        W14207   3.427  11.929  23.160
10247W        W14208   2.119  13.099  22.037
10248W        W14209   2.709  14.000  22.252
10249W        W14210   0.297  13.410  23.213
10250W        W14211   2.706  14.166  23.222
10251W        W14212   2.090  14.209  22.696
10252W        W14213   1.524  13.702  22.711
10253W        W14214   0.745  12.442  21.970
10254W        W14215   0.084  18.172   3.359
10255W        W14216   0.460  17.065   2.882
10256W        W14217   3.165  16.795   0.652
10257W        W14218   3.295  17.880   2.679
10258W        W14219   1.213  17.871   0.205
10259W        W14220   1.296  16.023   1.188
10260W        W14221   0.811  15.871   1.352
10261W        W14222   1.802  16.686   0.786
10262W        W14223   1.477  17.778   3.141
10263W        W14224   0.126  15.339   3.104
10264W        W14225   0.888  14.619   2.906
10265W        W14226   2.582  15.007   1.793
10266W        W14227   2.231  15.878   0.363
10267W        W14228   2.801  15.312   3.454
10268W        W14229   0.167  15.104   2.579
10269W        W14230   0.266  17.723   3.600
10270W        W14231   1.788  17.113   0.332
10271W        W14232   0.220  15.896   2.025
10272W        W14233   1.113  15.787   3.262
10273W        W14234   3.572  15.646   1.761
10274W        W14235   3.336  16.689   2.620
10275W        W14236   1.644  16.022   1.647
10276W        W14237   2.190  17.361   2.016
10277W        W14238   0.690  16.795   2.248
10278W        W14239   0.049  16.323   1.819
10279W        W14240   1.085  16.295   3.011
10280W        W14241   3.356  16.078   3.265
10281W        W14242   0.972  17.522   1.710
10282W        W14243   2.093  17.211   2.844
10283W        W14244   1.313  15.851   2.069
10284W        W14245   1.605  16.635   1.712
10285W        W14246   2.602  17.408   3.560
10286W        W14247   1.681  16.728   3.570
10287W        W14248   1.662  16.444   3.048
10288W        W14249   0.071  15.835   3.570
10289W        W14250   2.903  17.370   3.169
10290W        W14251   0.484  14.952   1.167
10291W        W14252   1.011  17.210   2.166
10292W        W14253   3.474  16.993   1.456
10293W        W14254   2.887  15.393   2.023
10294W        W14255   3.172  15.346   0.118
10295W        W14256   3.637  16.147   2.424
10296W        W14257   1.604  17.854   2.177
10297W        W14258   3.378  17.320   0.615
10298W        W14259   0.507  18.106   0.369
10299W        W14260   0.900  18.152   1.045
10300W        W14261   0.697  14.906   2.471
10301W        W14262   3.320  15.924   2.746
10302W        W14263   2.725  16.346   1.205
10303W        W14264   2.691  16.034   0.232
10304W        W14265   1.899  17.178   2.372
10305W        W14266   1.705  15.508   1.571
10306W        W14267   2.305  17.595   2.565
10307W        W14268   3.176  16.386   0.987
10308W        W14269   2.078  15.044   1.003
10309W        W14270   0.735  17.738   0.686
10310W        W14271   0.106  15.237   1.285
10311W        W14272   2.892  15.844   1.759
10312W        W14273   0.350  17.461   1.674
10313W        W14274   1.691  17.811   0.544
10314W        W14275   3.083  15.837   0.008
10315W        W14276   0.106  17.595   2.172
10316W        W14277   0.897  17.167   2.652
10317W        W14278   1.270  16.527   1.271
10318W        W14279   1.292  14.932   2.364
10319W        W14280   3.521  14.694   1.661
10320W        W14281   0.740  16.566   0.129
10321W        W14282   0.395  15.599   0.308
10322W        W14283   0.457  17.555   1.102
10323W        W14284   1.588  17.038   1.350
10324W        W14285   2.920  17.897   3.064
10325W        W14286   1.846  15.539   0.748
10326W        W14287   3.229  17.937   1.520
10327W        W14288   2.906  15.790   3.118
10328W        W14289   3.619  17.446   1.252
10329W        W14290   2.246  16.738   2.736
10330W        W14291   0.012  16.289   0.942
10331W        W14292   1.123  16.704   2.515
10332W        W14293   2.327  15.968   0.893
10333W        W14294   2.204  16.458   0.997
10334W        W14295   0.547  15.878   2.471
10335W        W14296   0.532  15.754   3.393
10336W        W14297   0.422  14.671   1.552
10337W        W14298   2.190  15.018   2.113
10338W        W14299   1.838  15.203   3.276
10339W        W14300   2.193  15.352   0.454
10340W        W14301   3.376  17.745   3.208
10341W        W14302   2.343  14.826   3.247
10342W        W14303   3.362  17.127   3.369
10343W        W14304   2.792  15.294   2.965
10344W        W14305   2.592  15.232   1.235
10345W        W14306   2.985  16.366   3.639
10346W        W14307   0.725  17.942   1.625
10347W        W14308   1.383  15.659   0.611
10348W        W14309   0.952  14.943   3.275
10349W        W14310   3.004  15.427   0.956
10350W        W14311   3.371  15.909   0.901
10351W        W14312   1.114  18.126   3.372
10352W        W14313   1.040  14.662   0.607
10353W        W14314   3.361  15.196   1.642
10354W        W14315   3.511  17.445   0.087
10355W        W14316   0.418  16.648   1.789
10356W        W14317   2.335  15.235   0.019
10357W        W14318   3.469  17.567   1.739
10358W        W14319   3.508  14.761   2.489
10359W        W14320   1.953  15.973   3.043
10360W        W14321   2.046  17.312   0.746
10361W        W14322   2.446  16.606   3.486
10362W        W14323   2.120  14.583   1.795
10363W        W14324   0.732  15.486   1.858
10364W        W14325   0.286  16.686   2.632
10365W        W14326   2.145  17.879   1.338
10366W        W14327   3.339  15.476   2.210
10367W        W14328   1.976  17.823   2.977
10368W        W14329   3.319  16.882   0.182
10369W        W14330   1.754  16.365   1.243
10370W        W14331   3.606  14.876   2.984
10371W        W14332   1.755  16.711   2.578
10372W        W14333   1.972  15.597   2.023
10373W        W14334   2.824  15.895   0.861
10374W        W14335   3.111  15.628   0.503
10375W        W14336   2.920  17.668   0.892
10376W        W14337   2.754  17.271   1.688
10377W        W14338   2.650  16.350   0.666
10378W        W14339   2.083  16.560   1.652
10379W        W14340   2.964  16.348   1.719
10380W        W14341   0.339  15.363   2.143
10381W        W14342   3.117  16.415   2.970
10382W        W14343   3.468  18.033   2.116
10383W        W14344   1.398  17.477   1.518
10384W        W14345   2.405  18.010   2.842
10385W        W14346   2.399  15.340   2.606
10386W        W14347   1.606  18.048   2.667
10387W        W14348   3.303  15.002   1.133
10388W        W14349   3.094  16.321   2.434
10389W        W14350   0.077  15.642   2.472
10390W        W14351   2.937  15.437   1.490
10391W        W14352   3.348  15.588   3.267
10392W        W14353   2.233  17.287   1.485
10393W        W14354   1.489  17.878   1.098
10394W        W14355   0.604  15.058   0.356
10395W        W14356   1.708  14.712   2.166
10396W        W14357   0.736  17.832   0.014
10397W        W14358   1.110  16.298   0.765
10398W        W14359   1.764  16.927   3.078
10399W        W14360   1.594  15.285   1.068
10400W        W14361   2.950  14.882   1.496
10401W        W14362   2.670  18.164   1.824
10402W        W14363   2.082  17.812   2.164
10403W        W14364   1.478  16.849   2.125
10404W        W14365   3.248  17.572   2.251
10405W        W14366   0.942  15.075   1.020
10406W        W14367   1.464  17.372   1.980
10407W        W14368   0.947  15.303   0.045
10408W        W14369   1.748  15.912   2.439
10409W        W14370   2.596  14.778   2.309
10410W        W14371   0.016  16.621   2.194
10411W        W14372   1.720  16.439   0.352
10412W        W14373   0.988  14.754   0.122
10413W        W14374   1.726  15.835   1.173
10414W        W14375   2.696  14.811   2.872
10415W        W14376   1.284  16.823   2.981
10416W        W14377   2.088  16.605   3.198
10417W        W14378   2.705  16.635   3.091
10418W        W14379   1.989  14.775   3.596
10419W        W14380   1.211  15.391   1.989
10420W        W14381   0.637  15.347   1.387
10421W        W14382   0.423  18.059   1.063
10422W        W14383   1.755  17.389   3.188
10423W        W14384   0.790  16.874   0.547
10424W        W14385   2.470  16.259   1.768
10425W        W14386   2.750  16.058   2.167
10426W        W14387   1.955  16.732   2.101
10427W        W14388   2.425  17.106   0.233
10428W        W14389   2.097  15.127   1.561
10429W        W14390   3.576  15.405   0.829
10430W        W14391   0.070  17.994   2.860
10431W        W14392   0.487  17.220   2.392
10432W        W14393   0.054  18.066   0.624
10433W        W14394   1.953  15.336   2.430
10434W        W14395   1.316  17.359   0.279
10435W        W14396   3.221  17.741   0.465
10436W        W14397   2.196  16.394   0.479
10437W        W14398   1.039  15.585   0.996
10438W        W14399   1.871  15.495   0.048
10439W        W14400   2.455  17.060   3.226
10440W        W14401   2.808  14.966   0.843
10441W        W14402   0.138  14.814   0.291
10442W        W14403   1.424  17.133   2.581
10443W        W14404   1.223  17.049   1.673
10444W        W14405   0.965  17.001   0.071
10445W        W14406   0.206  17.242   0.839
10446W        W14407   0.710  16.312   3.281
10447W        W14408   1.414  14.872   3.467
10448W        W14409   2.123  15.014   2.823
10449W        W14410   1.318  14.782   1.104
10450W        W14411   2.377  14.859   0.609
10451W        W14412   0.322  14.791   2.186
10452W        W14413   0.370  15.754   1.556
10453W        W14414   3.059  14.862   1.962
10454W        W14415   0.481  15.360   0.776
10455W        W14416   3.052  15.048   2.392
10456W        W14417   3.448  16.251   0.077
10457W        W14418   0.740  15.009   1.896
10458W        W14419   1.854  15.581   2.836
10459W        W14420   0.002  15.271   0.314
10460W        W14421   0.788  16.660   2.875
10461W        W14422   2.146  16.058   2.054
10462W        W14423   2.013  18.137   0.350
10463W        W14424   0.159  16.644   0.047
10464W        W14425   0.894  17.055   3.173
10465W        W14426   0.415  16.222   2.804
10466W        W14427   1.406  16.327   2.598
10467W        W14428   3.174  14.686   2.860
10468W        W14429   3.572  16.296   2.851
10469W        W14430   3.560  16.496   0.537
10470W        W14431   2.423  16.828   0.636
10471W        W14432   2.897  18.128   0.331
10472W        W14433   2.074  16.118   3.473
10473W        W14434   0.404  17.085   3.513
10474W        W14435   3.610  15.007   3.465
10475W        W14436   3.328  15.935   2.086
10476W        W14437   1.636  18.065   3.563
10477W        W14438   1.491  14.694   0.290
10478W        W14439   3.030  17.293   0.233
10479W        W14440   0.799  15.386   3.119
10480W        W14441   1.233  17.380   2.981
10481W        W14442   3.359  15.371   2.779
10482W        W14443   2.570  18.030   0.747
10483W        W14444   2.809  16.649   2.114
10484W        W14445   1.059  15.065   2.781
10485W        W14446   1.528  16.134   3.538
10486W        W14447   1.031  17.313   0.732
10487W        W14448   2.786  16.811   0.996
10488W        W14449   0.554  15.437   2.720
10489W        W14450   1.883  17.499   1.184
10490W        W14451   3.633  16.059   1.365
10491W        W14452   1.855  14.692   3.084
10492W        W14453   2.635  17.397   2.163
10493W        W14454   2.938  17.741   1.871
10494W        W14455   2.157  17.543   0.299
10495W        W14456   0.167  17.435   3.141
10496W        W14457   0.910  15.427   2.379
10497W        W14458   0.880  14.775   1.489
10498W        W14459   2.501  15.617   2.181
10499W        W14460   1.299  16.788   0.381
10500W        W14461   3.297  16.730   1.880
10501W        W14462   0.624  17.488   3.303
10502W        W14463   3.011  18.170   1.100
10503W        W14464   1.110  15.190   1.545
10504W        W14465   0.879  16.683   1.635
10505W        W14466   1.192  18.094   2.385
10506W        W14467   3.259  18.190   3.417
10507W        W14468   2.418  16.378   2.350
10508W        W14469   0.267  16.176   0.265
10509W        W14470   3.401  17.834   0.962
10510W        W14471   3.238  15.158   0.581
10511W        W14472   1.377  14.677   2.984
10512W        W14473   3.083  17.479   1.442
10513W        W14474   3.112  16.035   1.347
10514W        W14475   1.229  15.708   1.563
10515W        W14476   1.474  15.970   2.887
10516W        W14477   2.585  17.123   2.750
10517W        W14478   1.235  15.577   2.862
10518W        W14479   1.214  18.043   1.478
10519W        W14480   0.531  18.002   3.112
10520W        W14481   0.643  17.363   0.242
10521W        W14482   3.160  17.121   1.052
10522W        W14483   0.764  15.913   2.938
10523W        W14484   3.537  15.843   0.419
10524W        W14485   1.282  16.900   0.890
10525W        W14486   2.381  16.282   2.971
10526W        W14487   2.272  15.910   2.515
10527W        W14488   0.832  16.282   2.544
10528W        W14489   3.042  18.170   2.373
10529W        W14490   2.833  14.804   3.367
10530W        W14491   0.497  14.954   2.954
10531W        W14492   0.836  15.977   2.007
10532W        W14493   1.205  15.791   0.129
10533W        W14494   0.008  17.550   2.674
10534W        W14495   1.593  16.259   2.117
10535W        W14496   1.416  15.284   0.222
10536W        W14497   0.551  16.100   1.003
10537W        W14498   0.322  17.952   2.440
10538W        W14499   3.117  16.178   0.548
10539W        W14500   3.212  15.094   3.234
10540W        W14501   2.648  17.303   1.197
10541W        W14502   0.246  16.227   3.374
10542W        W14503   3.212  14.691   0.670
10543W        W14504   2.732  17.166   0.681
10544W        W14505   1.634  16.224   0.766
10545W        W14506   2.821  15.028   0.289
10546W        W14507   2.886  15.635   2.475
10547W        W14508   0.595  16.228   1.682
10548W        W14509   0.889  17.167   1.331
10549W        W14510   2.652  15.787   1.296
10550W        W14511   1.675  15.166   1.992
10551W        W14512   3.637  17.077   2.503
10552W        W14513   3.555  15.064   2.064
10553W        W14514   0.094  17.894   1.440
10554W        W14515   0.603  17.081   0.976
10555W        W14516   0.518  14.698   3.529
10556W        W14517   1.637  17.551   3.631
10557W        W14518   3.392  16.519   1.421
10558W        W14519   2.746  16.696   0.301
10559W        W14520   2.041  18.217   2.513
10560W        W14521   2.898  16.939   3.550
10561W        W14522   1.713  14.649   0.830
10562W        W14523   2.426  15.518   1.689
10563W        W14524   0.112  17.105   2.021
10564W        W14525   1.365  15.067   0.662
10565W        W14526   1.169  16.551   3.511
10566W        W14527   2.163  15.532   1.225
10567W        W14528   2.368  16.942   2.347
10568W        W14529   0.522  17.547   2.782
10569W        W14530   1.113  17.530   3.505
10570W        W14531   0.964  15.327   0.519
10571W        W14532   2.481  15.469   0.844
10572W        W14533   2.439  17.577   3.081
10573W        W14534   1.124  16.169   1.680
10574W        W14535   0.779  17.867   2.545
10575W        W14536   3.524  17.984   0.146
10576W        W14537   0.387  16.656   3.142
10577W        W14538   2.382  16.918   1.830
10578W        W14539   0.818  16.567   1.072
10579W        W14540   1.189  17.574   2.467
10580W        W14541   1.567  14.993   1.508
10581W        W14542   0.178  16.977   0.438
10582W        W14543   1.697  15.928   0.308
10583W        W14544   0.343  16.477   1.327
10584W        W14545   1.633  15.119   2.791
10585W        W14546   3.305  14.828   0.218
10586W        W14547   3.398  16.574   3.317
10587W        W14548   2.052  17.831   3.469
10588W        W14549   3.610  16.925   2.991
10589W        W14550   3.018  17.723   3.602
10590W        W14551   0.757  18.179   2.080
10591W        W14552   3.616  16.801   0.954
10592W        W14553   2.146  16.068   1.467
10593W        W14554   1.913  14.680   1.357
10594W        W14555   0.972  17.664   1.194
10595W        W14556   1.471  15.405   2.419
10596W        W14557   1.171  14.774   1.888
10597W        W14558   0.234  17.596   0.436
10598W        W14559   2.050  16.960   1.154
10599W        W14560   0.925  17.755   3.033
10600W        W14561   0.402  16.578   0.729
10601W        W14562   0.287  15.121   1.728
10602W        W14563   1.835  17.086   1.785
10603W        W14564   0.087  14.940   0.805
10604W        W14565   2.751  16.146   2.732
10605W        W14566   2.628  15.532   0.304
10606W        W14567   3.145  17.204   1.952
10607W        W14568   1.806  17.688   1.783
10608W        W14569   1.218  17.792   0.694
10609W        W14570   2.500  14.695   0.124
10610W        W14571   0.300  17.955   1.865
10611W        W14572   2.497  15.713   3.500
10612W        W14573   0.480  15.243   3.499
10613W        W14574   0.211  15.843   0.832
10614W        W14575   0.902  15.832   0.557
10615W        W14576   2.665  16.159   3.374
10616W        W14577   1.008  16.440   2.083
10617W        W14578   2.482  14.726   1.203
10618W        W14579   1.613  18.157   1.706
10619W        W14580   2.827  17.619   2.643
10620W        W14581   2.411  17.768   1.754
10621W        W14582   2.430  16.748   1.348
10622W        W14583   1.892  14.973   0.419
10623W        W14584   3.573  14.601   1.141
10624W        W14585   1.261  16.236   0.304
10625W        W14586   3.427  15.573   1.294
10626W        W14587   2.119  16.743   0.171
10627W        W14588   3.055  16.943   2.919
10628W        W14589   2.709  17.644   0.386
10629W        W14590   1.324  15.319   3.292
10630W        W14591   1.144  15.903   2.533
10631W        W14592   3.236  17.398   2.810
10632W        W14593   2.336  15.348   3.187
10633W        W14594   0.180  15.819   2.964
10634W        W14595   1.940  16.296   2.690
10635W        W14596   0.297  17.054   1.347
10636W        W14597   0.444  16.351   2.237
10637W        W14598   2.761  16.637   2.587
10638W        W14599   2.533  18.017   3.398
10639W        W14600   2.429  15.756   2.951
10640W        W14601   2.706  17.810   1.356
10641W        W14602   1.708  17.530   2.679
10642W        W14603   1.193  17.885   1.948
10643W        W14604   2.998  17.056   2.367
10644W        W14605   2.048  17.128   3.504
10645W        W14606   0.653  17.081   1.843
10646W        W14607   2.999  16.840   1.488
10647W        W14608   2.640  17.906   2.239
10648W        W14609   0.618  17.635   2.109
10649W        W14610   1.639  15.687   3.319
10650W        W14611   2.090  17.853   0.830
10651W        W14612   1.398  17.108   3.468
10652W        W14613   1.524  17.346   0.845
10653W        W14614   0.745  16.086   0.104
10654W        W14615   0.084  18.172   7.003
10655W        W14616   0.460  17.065   6.526
10656W        W14617   3.165  16.795   4.296
10657W        W14618   3.295  17.880   6.323
10658W        W14619   1.213  17.871   3.849
10659W        W14620   1.296  16.023   4.832
10660W        W14621   0.811  15.871   4.996
10661W        W14622   1.802  16.686   4.430
10662W        W14623   1.477  17.778   6.785
10663W        W14624   0.126  15.339   6.748
10664W        W14625   0.888  14.619   6.550
10665W        W14626   2.582  15.007   5.437
10666W        W14627   2.231  15.878   4.007
10667W        W14628   2.801  15.312   7.098
10668W        W14629   0.167  15.104   6.223
10669W        W14630   0.266  17.723   7.244
10670W        W14631   1.788  17.113   3.976
10671W        W14632   0.220  15.896   5.669
10672W        W14633   1.113  15.787   6.906
10673W        W14634   3.572  15.646   5.405
10674W        W14635   3.336  16.689   6.264
10675W        W14636   1.644  16.022   5.291
10676W        W14637   2.190  17.361   5.660
10677W        W14638   0.690  16.795   5.892
10678W        W14639   0.049  16.323   5.463
10679W        W14640   1.085  16.295   6.655
10680W        W14641   3.356  16.078   6.909
10681W        W14642   0.972  17.522   5.354
10682W        W14643   2.093  17.211   6.488
10683W        W14644   1.313  15.851   5.713
10684W        W14645   1.605  16.635   5.356
10685W        W14646   2.602  17.408   7.204
10686W        W14647   1.681  16.728   7.214
10687W        W14648   1.662  16.444   6.692
10688W        W14649   0.071  15.835   7.214
10689W        W14650   2.903  17.370   6.813
10690W        W14651   0.484  14.952   4.811
10691W        W14652   1.011  17.210   5.810
10692W        W14653   3.474  16.993   5.100
10693W        W14654   2.887  15.393   5.667
10694W        W14655   3.172  15.346   3.762
10695W        W14656   3.637  16.147   6.068
10696W        W14657   1.604  17.854   5.821
10697W        W14658   3.378  17.320   4.259
10698W        W14659   0.507  18.106   4.013
10699W        W14660   0.900  18.152   4.689
10700W        W14661   0.697  14.906   6.115
10701W        W14662   3.320  15.924   6.390
10702W        W14663   2.725  16.346   4.849
10703W        W14664   2.691  16.034   3.876
10704W        W14665   1.899  17.178   6.016
10705W        W14666   1.705  15.508   5.215
10706W        W14667   2.305  17.595   6.209
10707W        W14668   3.176  16.386   4.631
10708W        W14669   2.078  15.044   4.647
10709W        W14670   0.735  17.738   4.330
10710W        W14671   0.106  15.237   4.929
10711W        W14672   2.892  15.844   5.403
10712W        W14673   0.350  17.461   5.318
10713W        W14674   1.691  17.811   4.188
10714W        W14675   3.083  15.837   3.652
10715W        W14676   0.106  17.595   5.816
10716W        W14677   0.897  17.167   6.296
10717W        W14678   1.270  16.527   4.915
10718W        W14679   1.292  14.932   6.008
10719W        W14680   3.521  14.694   5.305
10720W        W14681   0.740  16.566   3.773
10721W        W14682   0.395  15.599   3.952
10722W        W14683   0.457  17.555   4.746
10723W        W14684   1.588  17.038   4.994
10724W        W14685   2.920  17.897   6.708
10725W        W14686   1.846  15.539   4.392
10726W        W14687   3.229  17.937   5.164
10727W        W14688   2.906  15.790   6.762
10728W        W14689   3.619  17.446   4.896
10729W        W14690   2.246  16.738   6.380
10730W        W14691   0.012  16.289   4.586
10731W        W14692   1.123  16.704   6.159
10732W        W14693   2.327  15.968   4.537
10733W        W14694   2.204  16.458   4.641
10734W        W14695   0.547  15.878   6.115
10735W        W14696   0.532  15.754   7.037
10736W        W14697   0.422  14.671   5.196
10737W        W14698   2.190  15.018   5.757
10738W        W14699   1.838  15.203   6.920
10739W        W14700   2.193  15.352   4.098
10740W        W14701   3.376  17.745   6.852
10741W        W14702   2.343  14.826   6.891
10742W        W14703   3.362  17.127   7.013
10743W        W14704   2.792  15.294   6.609
10744W        W14705   2.592  15.232   4.879
10745W        W14706   0.725  17.942   5.269
10746W        W14707   1.383  15.659   4.255
10747W        W14708   0.952  14.943   6.919
10748W        W14709   3.004  15.427   4.600
10749W        W14710   3.371  15.909   4.545
10750W        W14711   1.114  18.126   7.016
10751W        W14712   1.040  14.662   4.251
10752W        W14713   3.361  15.196   5.286
10753W        W14714   3.511  17.445   3.731
10754W        W14715   0.418  16.648   5.433
10755W        W14716   2.335  15.235   3.663
10756W        W14717   3.469  17.567   5.383
10757W        W14718   3.508  14.761   6.133
10758W        W14719   1.953  15.973   6.687
10759W        W14720   2.046  17.312   4.390
10760W        W14721   2.446  16.606   7.130
10761W        W14722   2.120  14.583   5.439
10762W        W14723   0.732  15.486   5.502
10763W        W14724   0.286  16.686   6.276
10764W        W14725   2.145  17.879   4.982
10765W        W14726   3.339  15.476   5.854
10766W        W14727   1.976  17.823   6.621
10767W        W14728   3.319  16.882   3.826
10768W        W14729   1.754  16.365   4.887
10769W        W14730   3.606  14.876   6.628
10770W        W14731   1.755  16.711   6.222
10771W        W14732   1.972  15.597   5.667
10772W        W14733   2.824  15.895   4.505
10773W        W14734   3.111  15.628   4.147
10774W        W14735   2.920  17.668   4.536
10775W        W14736   2.754  17.271   5.332
10776W        W14737   2.650  16.350   4.310
10777W        W14738   2.083  16.560   5.296
10778W        W14739   2.964  16.348   5.363
10779W        W14740   0.339  15.363   5.787
10780W        W14741   3.468  18.033   5.760
10781W        W14742   1.398  17.477   5.162
10782W        W14743   2.405  18.010   6.486
10783W        W14744   2.399  15.340   6.250
10784W        W14745   1.606  18.048   6.311
10785W        W14746   3.303  15.002   4.777
10786W        W14747   3.094  16.321   6.078
10787W        W14748   0.077  15.642   6.116
10788W        W14749   2.937  15.437   5.134
10789W        W14750   3.348  15.588   6.911
10790W        W14751   2.233  17.287   5.129
10791W        W14752   1.489  17.878   4.742
10792W        W14753   0.604  15.058   4.000
10793W        W14754   1.708  14.712   5.810
10794W        W14755   0.736  17.832   3.658
10795W        W14756   1.110  16.298   4.409
10796W        W14757   1.764  16.927   6.722
10797W        W14758   1.594  15.285   4.712
10798W        W14759   2.950  14.882   5.140
10799W        W14760   2.670  18.164   5.468
10800W        W14761   2.082  17.812   5.808
10801W        W14762   1.478  16.849   5.769
10802W        W14763   3.248  17.572   5.895
10803W        W14764   0.942  15.075   4.664
10804W        W14765   1.464  17.372   5.624
10805W        W14766   0.947  15.303   3.689
10806W        W14767   1.748  15.912   6.083
10807W        W14768   2.596  14.778   5.953
10808W        W14769   0.016  16.621   5.838
10809W        W14770   1.720  16.439   3.996
10810W        W14771   0.988  14.754   3.766
10811W        W14772   1.726  15.835   4.817
10812W        W14773   2.696  14.811   6.516
10813W        W14774   1.284  16.823   6.625
10814W        W14775   2.088  16.605   6.842
10815W        W14776   2.705  16.635   6.735
10816W        W14777   1.989  14.775   7.240
10817W        W14778   1.211  15.391   5.633
10818W        W14779   0.637  15.347   5.031
10819W        W14780   0.423  18.059   4.707
10820W        W14781   1.755  17.389   6.832
10821W        W14782   0.790  16.874   4.191
10822W        W14783   2.470  16.259   5.412
10823W        W14784   2.750  16.058   5.811
10824W        W14785   1.955  16.732   5.745
10825W        W14786   2.425  17.106   3.877
10826W        W14787   2.097  15.127   5.205
10827W        W14788   3.576  15.405   4.473
10828W        W14789   0.070  17.994   6.504
10829W        W14790   0.487  17.220   6.036
10830W        W14791   0.054  18.066   4.268
10831W        W14792   1.953  15.336   6.074
10832W        W14793   1.316  17.359   3.923
10833W        W14794   3.221  17.741   4.109
10834W        W14795   2.196  16.394   4.123
10835W        W14796   1.039  15.585   4.640
10836W        W14797   1.871  15.495   3.692
10837W        W14798   2.455  17.060   6.870
10838W        W14799   2.808  14.966   4.487
10839W        W14800   0.138  14.814   3.935
10840W        W14801   1.424  17.133   6.225
10841W        W14802   1.223  17.049   5.317
10842W        W14803   0.965  17.001   3.715
10843W        W14804   0.206  17.242   4.483
10844W        W14805   0.710  16.312   6.925
10845W        W14806   1.414  14.872   7.111
10846W        W14807   2.123  15.014   6.467
10847W        W14808   1.318  14.782   4.748
10848W        W14809   2.377  14.859   4.253
10849W        W14810   0.322  14.791   5.830
10850W        W14811   0.370  15.754   5.200
10851W        W14812   3.059  14.862   5.606
10852W        W14813   0.481  15.360   4.420
10853W        W14814   3.052  15.048   6.036
10854W        W14815   3.448  16.251   3.721
10855W        W14816   0.740  15.009   5.540
10856W        W14817   1.854  15.581   6.480
10857W        W14818   0.002  15.271   3.958
10858W        W14819   0.788  16.660   6.519
10859W        W14820   2.146  16.058   5.698
10860W        W14821   2.013  18.137   3.994
10861W        W14822   0.159  16.644   3.691
10862W        W14823   0.894  17.055   6.817
10863W        W14824   0.415  16.222   6.448
10864W        W14825   1.406  16.327   6.242
10865W        W14826   3.174  14.686   6.504
10866W        W14827   3.572  16.296   6.495
10867W        W14828   3.560  16.496   4.181
10868W        W14829   2.423  16.828   4.280
10869W        W14830   2.897  18.128   3.975
10870W        W14831   2.074  16.118   7.117
10871W        W14832   0.404  17.085   7.157
10872W        W14833   3.610  15.007   7.109
10873W        W14834   3.328  15.935   5.730
10874W        W14835   1.636  18.065   7.207
10875W        W14836   1.491  14.694   3.934
10876W        W14837   3.030  17.293   3.877
10877W        W14838   0.799  15.386   6.763
10878W        W14839   1.233  17.380   6.625
10879W        W14840   3.359  15.371   6.423
10880W        W14841   2.570  18.030   4.391
10881W        W14842   2.809  16.649   5.758
10882W        W14843   1.059  15.065   6.425
10883W        W14844   1.528  16.134   7.182
10884W        W14845   1.031  17.313   4.376
10885W        W14846   2.786  16.811   4.640
10886W        W14847   0.554  15.437   6.364
10887W        W14848   1.883  17.499   4.828
10888W        W14849   3.633  16.059   5.009
10889W        W14850   1.855  14.692   6.728
10890W        W14851   2.635  17.397   5.807
10891W        W14852   2.938  17.741   5.515
10892W        W14853   2.157  17.543   3.943
10893W        W14854   0.167  17.435   6.785
10894W        W14855   0.910  15.427   6.023
10895W        W14856   0.880  14.775   5.133
10896W        W14857   2.501  15.617   5.825
10897W        W14858   1.299  16.788   4.025
10898W        W14859   3.297  16.730   5.524
10899W        W14860   0.624  17.488   6.947
10900W        W14861   3.011  18.170   4.744
10901W        W14862   1.110  15.190   5.189
10902W        W14863   0.879  16.683   5.279
10903W        W14864   1.192  18.094   6.029
10904W        W14865   3.259  18.190   7.061
10905W        W14866   2.418  16.378   5.994
10906W        W14867   0.267  16.176   3.909
10907W        W14868   3.401  17.834   4.606
10908W        W14869   3.238  15.158   4.225
10909W        W14870   1.377  14.677   6.628
10910W        W14871   3.083  17.479   5.086
10911W        W14872   3.112  16.035   4.991
10912W        W14873   1.229  15.708   5.207
10913W        W14874   1.474  15.970   6.531
10914W        W14875   2.585  17.123   6.394
10915W        W14876   1.235  15.577   6.506
10916W        W14877   1.214  18.043   5.122
10917W        W14878   0.531  18.002   6.756
10918W        W14879   0.643  17.363   3.886
10919W        W14880   3.160  17.121   4.696
10920W        W14881   0.764  15.913   6.582
10921W        W14882   3.537  15.843   4.063
10922W        W14883   1.282  16.900   4.534
10923W        W14884   2.381  16.282   6.615
10924W        W14885   2.272  15.910   6.159
10925W        W14886   0.832  16.282   6.188
10926W        W14887   3.042  18.170   6.017
10927W        W14888   2.833  14.804   7.011
10928W        W14889   0.497  14.954   6.598
10929W        W14890   0.836  15.977   5.651
10930W        W14891   1.205  15.791   3.773
10931W        W14892   0.008  17.550   6.318
10932W        W14893   1.593  16.259   5.761
10933W        W14894   1.416  15.284   3.866
10934W        W14895   0.551  16.100   4.647
10935W        W14896   0.322  17.952   6.084
10936W        W14897   3.117  16.178   4.192
10937W        W14898   3.212  15.094   6.878
10938W        W14899   2.648  17.303   4.841
10939W        W14900   0.246  16.227   7.018
10940W        W14901   3.212  14.691   4.314
10941W        W14902   2.732  17.166   4.325
10942W        W14903   1.634  16.224   4.410
10943W        W14904   2.821  15.028   3.933
10944W        W14905   2.886  15.635   6.119
10945W        W14906   0.595  16.228   5.326
10946W        W14907   0.889  17.167   4.975
10947W        W14908   2.652  15.787   4.940
10948W        W14909   1.675  15.166   5.636
10949W        W14910   3.637  17.077   6.147
10950W        W14911   3.555  15.064   5.708
10951W        W14912   0.094  17.894   5.084
10952W        W14913   0.603  17.081   4.620
10953W        W14914   0.518  14.698   7.173
10954W        W14915   1.637  17.551   7.275
10955W        W14916   3.392  16.519   5.065
10956W        W14917   2.746  16.696   3.945
10957W        W14918   2.041  18.217   6.157
10958W        W14919   2.898  16.939   7.194
10959W        W14920   1.713  14.649   4.474
10960W        W14921   2.426  15.518   5.333
10961W        W14922   0.112  17.105   5.665
10962W        W14923   1.365  15.067   4.306
10963W        W14924   1.169  16.551   7.155
10964W        W14925   2.163  15.532   4.869
10965W        W14926   2.368  16.942   5.991
10966W        W14927   0.522  17.547   6.426
10967W        W14928   1.113  17.530   7.149
10968W        W14929   0.964  15.327   4.163
10969W        W14930   2.481  15.469   4.488
10970W        W14931   2.439  17.577   6.725
10971W        W14932   1.124  16.169   5.324
10972W        W14933   0.779  17.867   6.189
10973W        W14934   3.524  17.984   3.790
10974W        W14935   0.387  16.656   6.786
10975W        W14936   2.382  16.918   5.474
10976W        W14937   0.818  16.567   4.716
10977W        W14938   1.189  17.574   6.111
10978W        W14939   1.567  14.993   5.152
10979W        W14940   0.178  16.977   4.082
10980W        W14941   1.697  15.928   3.952
10981W        W14942   0.343  16.477   4.971
10982W        W14943   1.633  15.119   6.435
10983W        W14944   3.305  14.828   3.862
10984W        W14945   3.398  16.574   6.961
10985W        W14946   2.052  17.831   7.113
10986W        W14947   3.610  16.925   6.635
10987W        W14948   3.018  17.723   7.246
10988W        W14949   0.757  18.179   5.724
10989W        W14950   3.616  16.801   4.598
10990W        W14951   2.146  16.068   5.111
10991W        W14952   1.913  14.680   5.001
10992W        W14953   0.972  17.664   4.838
10993W        W14954   1.471  15.405   6.063
10994W        W14955   1.171  14.774   5.532
10995W        W14956   0.234  17.596   4.080
10996W        W14957   2.050  16.960   4.798
10997W        W14958   0.925  17.755   6.677
10998W        W14959   0.402  16.578   4.373
10999W        W14960   0.287  15.121   5.372
11000W        W14961   1.835  17.086   5.429
11001W        W14962   0.087  14.940   4.449
11002W        W14963   2.751  16.146   6.376
11003W        W14964   2.628  15.532   3.948
11004W        W14965   3.145  17.204   5.596
11005W        W14966   1.806  17.688   5.427
11006W        W14967   1.218  17.792   4.338
11007W        W14968   2.500  14.695   3.768
11008W        W14969   0.300  17.955   5.509
11009W        W14970   2.497  15.713   7.144
11010W        W14971   0.480  15.243   7.143
11011W        W14972   0.211  15.843   4.476
11012W        W14973   0.902  15.832   4.201
11013W        W14974   2.665  16.159   7.018
11014W        W14975   1.008  16.440   5.727
11015W        W14976   2.482  14.726   4.847
11016W        W14977   1.613  18.157   5.350
11017W        W14978   2.827  17.619   6.287
11018W        W14979   2.411  17.768   5.398
11019W        W14980   2.430  16.748   4.992
11020W        W14981   1.892  14.973   4.063
11021W        W14982   3.573  14.601   4.785
11022W        W14983   1.261  16.236   3.948
11023W        W14984   3.427  15.573   4.938
11024W        W14985   2.119  16.743   3.815
11025W        W14986   2.709  17.644   4.030
11026W        W14987   1.324  15.319   6.936
11027W        W14988   1.144  15.903   6.177
11028W        W14989   2.336  15.348   6.831
11029W        W14990   0.180  15.819   6.608
11030W        W14991   1.940  16.296   6.334
11031W        W14992   0.297  17.054   4.991
11032W        W14993   0.444  16.351   5.881
11033W        W14994   2.533  18.017   7.042
11034W        W14995   2.429  15.756   6.595
11035W        W14996   2.706  17.810   5.000
11036W        W14997   1.708  17.530   6.323
11037W        W14998   1.193  17.885   5.592
11038W        W14999   2.998  17.056   6.011
11039W        W15000   2.048  17.128   7.148
11040W        W15001   0.653  17.081   5.487
11041W        W15002   2.999  16.840   5.132
11042W        W15003   2.640  17.906   5.883
11043W        W15004   0.618  17.635   5.753
11044W        W15005   1.639  15.687   6.963
11045W        W15006   2.090  17.853   4.474
11046W        W15007   1.398  17.108   7.112
11047W        W15008   1.524  17.346   4.489
11048W        W15009   0.745  16.086   3.748
11049W        W15010   0.084  18.172  10.648
11050W        W15011   0.460  17.065  10.171
11051W        W15012   3.165  16.795   7.941
11052W        W15013   3.295  17.880   9.968
11053W        W15014   1.213  17.871   7.494
11054W        W15015   1.296  16.023   8.477
11055W        W15016   0.811  15.871   8.641
11056W        W15017   1.802  16.686   8.075
11057W        W15018   1.477  17.778  10.430
11058W        W15019   0.126  15.339  10.393
11059W        W15020   0.888  14.619  10.195
11060W        W15021   2.582  15.007   9.082
11061W        W15022   2.231  15.878   7.652
11062W        W15023   2.801  15.312  10.743
11063W        W15024   0.167  15.104   9.868
11064W        W15025   0.266  17.723  10.889
11065W        W15026   1.788  17.113   7.621
11066W        W15027   0.220  15.896   9.314
11067W        W15028   1.113  15.787  10.551
11068W        W15029   3.572  15.646   9.050
11069W        W15030   3.336  16.689   9.909
11070W        W15031   1.644  16.022   8.936
11071W        W15032   2.190  17.361   9.305
11072W        W15033   0.690  16.795   9.537
11073W        W15034   0.049  16.323   9.108
11074W        W15035   1.085  16.295  10.300
11075W        W15036   3.356  16.078  10.554
11076W        W15037   0.972  17.522   8.999
11077W        W15038   2.093  17.211  10.133
11078W        W15039   1.313  15.851   9.358
11079W        W15040   1.605  16.635   9.001
11080W        W15041   2.602  17.408  10.849
11081W        W15042   1.681  16.728  10.859
11082W        W15043   1.662  16.444  10.337
11083W        W15044   0.071  15.835  10.859
11084W        W15045   2.903  17.370  10.458
11085W        W15046   0.484  14.952   8.456
11086W        W15047   1.011  17.210   9.455
11087W        W15048   3.474  16.993   8.745
11088W        W15049   2.887  15.393   9.312
11089W        W15050   3.172  15.346   7.407
11090W        W15051   3.637  16.147   9.713
11091W        W15052   1.604  17.854   9.466
11092W        W15053   3.378  17.320   7.904
11093W        W15054   0.507  18.106   7.658
11094W        W15055   0.900  18.152   8.334
11095W        W15056   0.697  14.906   9.760
11096W        W15057   3.320  15.924  10.035
11097W        W15058   2.725  16.346   8.494
11098W        W15059   2.691  16.034   7.521
11099W        W15060   1.899  17.178   9.661
11100W        W15061   1.705  15.508   8.860
11101W        W15062   2.305  17.595   9.854
11102W        W15063   3.176  16.386   8.276
11103W        W15064   2.078  15.044   8.292
11104W        W15065   0.735  17.738   7.975
11105W        W15066   0.106  15.237   8.574
11106W        W15067   2.892  15.844   9.048
11107W        W15068   0.350  17.461   8.963
11108W        W15069   1.691  17.811   7.833
11109W        W15070   3.083  15.837   7.297
11110W        W15071   0.106  17.595   9.461
11111W        W15072   0.897  17.167   9.941
11112W        W15073   1.270  16.527   8.560
11113W        W15074   1.292  14.932   9.653
11114W        W15075   3.521  14.694   8.950
11115W        W15076   0.740  16.566   7.418
11116W        W15077   0.395  15.599   7.597
11117W        W15078   0.457  17.555   8.391
11118W        W15079   1.588  17.038   8.639
11119W        W15080   2.920  17.897  10.353
11120W        W15081   1.846  15.539   8.037
11121W        W15082   3.229  17.937   8.809
11122W        W15083   2.906  15.790  10.407
11123W        W15084   3.619  17.446   8.541
11124W        W15085   2.246  16.738  10.025
11125W        W15086   0.012  16.289   8.231
11126W        W15087   1.123  16.704   9.804
11127W        W15088   2.327  15.968   8.182
11128W        W15089   2.204  16.458   8.286
11129W        W15090   0.547  15.878   9.760
11130W        W15091   0.532  15.754  10.682
11131W        W15092   0.422  14.671   8.841
11132W        W15093   2.190  15.018   9.402
11133W        W15094   1.838  15.203  10.565
11134W        W15095   2.193  15.352   7.743
11135W        W15096   3.376  17.745  10.497
11136W        W15097   2.343  14.826  10.536
11137W        W15098   3.362  17.127  10.658
11138W        W15099   2.792  15.294  10.254
11139W        W15100   2.592  15.232   8.524
11140W        W15101   2.985  16.366  10.928
11141W        W15102   0.725  17.942   8.914
11142W        W15103   1.383  15.659   7.900
11143W        W15104   0.952  14.943  10.564
11144W        W15105   3.004  15.427   8.245
11145W        W15106   3.371  15.909   8.190
11146W        W15107   1.114  18.126  10.661
11147W        W15108   1.040  14.662   7.896
11148W        W15109   3.361  15.196   8.931
11149W        W15110   3.511  17.445   7.376
11150W        W15111   0.418  16.648   9.078
11151W        W15112   2.335  15.235   7.308
11152W        W15113   3.469  17.567   9.028
11153W        W15114   3.508  14.761   9.778
11154W        W15115   1.953  15.973  10.332
11155W        W15116   2.046  17.312   8.035
11156W        W15117   2.446  16.606  10.775
11157W        W15118   2.120  14.583   9.084
11158W        W15119   0.732  15.486   9.147
11159W        W15120   0.286  16.686   9.921
11160W        W15121   2.145  17.879   8.627
11161W        W15122   3.339  15.476   9.499
11162W        W15123   1.976  17.823  10.266
11163W        W15124   3.319  16.882   7.471
11164W        W15125   1.754  16.365   8.532
11165W        W15126   3.606  14.876  10.273
11166W        W15127   1.755  16.711   9.867
11167W        W15128   1.972  15.597   9.312
11168W        W15129   2.824  15.895   8.150
11169W        W15130   3.111  15.628   7.792
11170W        W15131   2.920  17.668   8.181
11171W        W15132   2.754  17.271   8.977
11172W        W15133   2.650  16.350   7.955
11173W        W15134   2.083  16.560   8.941
11174W        W15135   2.964  16.348   9.008
11175W        W15136   0.339  15.363   9.432
11176W        W15137   3.117  16.415  10.259
11177W        W15138   3.468  18.033   9.405
11178W        W15139   1.398  17.477   8.807
11179W        W15140   2.405  18.010  10.131
11180W        W15141   2.399  15.340   9.895
11181W        W15142   1.606  18.048   9.956
11182W        W15143   3.303  15.002   8.422
11183W        W15144   3.094  16.321   9.723
11184W        W15145   0.077  15.642   9.761
11185W        W15146   2.937  15.437   8.779
11186W        W15147   3.348  15.588  10.556
11187W        W15148   2.233  17.287   8.774
11188W        W15149   1.489  17.878   8.387
11189W        W15150   0.604  15.058   7.645
11190W        W15151   1.708  14.712   9.455
11191W        W15152   0.736  17.832   7.303
11192W        W15153   1.110  16.298   8.054
11193W        W15154   1.764  16.927  10.367
11194W        W15155   1.594  15.285   8.357
11195W        W15156   2.950  14.882   8.785
11196W        W15157   2.670  18.164   9.113
11197W        W15158   2.082  17.812   9.453
11198W        W15159   1.478  16.849   9.414
11199W        W15160   3.248  17.572   9.540
11200W        W15161   0.942  15.075   8.309
11201W        W15162   1.464  17.372   9.269
11202W        W15163   0.947  15.303   7.334
11203W        W15164   1.748  15.912   9.728
11204W        W15165   2.596  14.778   9.598
11205W        W15166   0.016  16.621   9.483
11206W        W15167   1.720  16.439   7.641
11207W        W15168   0.988  14.754   7.411
11208W        W15169   1.726  15.835   8.462
11209W        W15170   2.696  14.811  10.161
11210W        W15171   1.284  16.823  10.270
11211W        W15172   2.088  16.605  10.487
11212W        W15173   2.705  16.635  10.380
11213W        W15174   1.989  14.775  10.885
11214W        W15175   1.211  15.391   9.278
11215W        W15176   0.637  15.347   8.676
11216W        W15177   0.423  18.059   8.352
11217W        W15178   1.755  17.389  10.477
11218W        W15179   0.790  16.874   7.836
11219W        W15180   2.470  16.259   9.057
11220W        W15181   2.750  16.058   9.456
11221W        W15182   1.955  16.732   9.390
11222W        W15183   2.425  17.106   7.522
11223W        W15184   2.097  15.127   8.850
11224W        W15185   3.576  15.405   8.118
11225W        W15186   0.070  17.994  10.149
11226W        W15187   0.487  17.220   9.681
11227W        W15188   0.054  18.066   7.913
11228W        W15189   1.953  15.336   9.719
11229W        W15190   1.316  17.359   7.568
11230W        W15191   3.221  17.741   7.754
11231W        W15192   2.196  16.394   7.768
11232W        W15193   1.039  15.585   8.285
11233W        W15194   1.871  15.495   7.337
11234W        W15195   2.455  17.060  10.515
11235W        W15196   2.808  14.966   8.132
11236W        W15197   0.138  14.814   7.580
11237W        W15198   1.424  17.133   9.870
11238W        W15199   1.223  17.049   8.962
11239W        W15200   0.965  17.001   7.360
11240W        W15201   0.206  17.242   8.128
11241W        W15202   0.710  16.312  10.570
11242W        W15203   1.414  14.872  10.756
11243W        W15204   2.123  15.014  10.112
11244W        W15205   1.318  14.782   8.393
11245W        W15206   2.377  14.859   7.898
11246W        W15207   0.322  14.791   9.475
11247W        W15208   0.370  15.754   8.845
11248W        W15209   3.059  14.862   9.251
11249W        W15210   0.481  15.360   8.065
11250W        W15211   3.052  15.048   9.681
11251W        W15212   3.448  16.251   7.366
11252W        W15213   0.740  15.009   9.185
11253W        W15214   1.854  15.581  10.125
11254W        W15215   0.002  15.271   7.603
11255W        W15216   0.788  16.660  10.164
11256W        W15217   2.146  16.058   9.343
11257W        W15218   2.013  18.137   7.639
11258W        W15219   0.159  16.644   7.336
11259W        W15220   0.894  17.055  10.462
11260W        W15221   0.415  16.222  10.093
11261W        W15222   1.406  16.327   9.887
11262W        W15223   3.174  14.686  10.149
11263W        W15224   3.572  16.296  10.140
11264W        W15225   3.560  16.496   7.826
11265W        W15226   2.423  16.828   7.925
11266W        W15227   2.897  18.128   7.620
11267W        W15228   2.074  16.118  10.762
11268W        W15229   0.404  17.085  10.802
11269W        W15230   3.610  15.007  10.754
11270W        W15231   3.328  15.935   9.375
11271W        W15232   1.636  18.065  10.852
11272W        W15233   1.491  14.694   7.579
11273W        W15234   3.030  17.293   7.522
11274W        W15235   0.799  15.386  10.408
11275W        W15236   1.233  17.380  10.270
11276W        W15237   3.359  15.371  10.068
11277W        W15238   2.570  18.030   8.036
11278W        W15239   2.809  16.649   9.403
11279W        W15240   1.059  15.065  10.070
11280W        W15241   1.528  16.134  10.827
11281W        W15242   1.031  17.313   8.021
11282W        W15243   2.786  16.811   8.285
11283W        W15244   0.554  15.437  10.009
11284W        W15245   1.883  17.499   8.473
11285W        W15246   3.633  16.059   8.654
11286W        W15247   1.855  14.692  10.373
11287W        W15248   2.635  17.397   9.452
11288W        W15249   2.938  17.741   9.160
11289W        W15250   2.157  17.543   7.588
11290W        W15251   0.167  17.435  10.430
11291W        W15252   0.910  15.427   9.668
11292W        W15253   0.880  14.775   8.778
11293W        W15254   2.501  15.617   9.470
11294W        W15255   1.299  16.788   7.670
11295W        W15256   3.297  16.730   9.169
11296W        W15257   0.624  17.488  10.592
11297W        W15258   3.011  18.170   8.389
11298W        W15259   1.110  15.190   8.834
11299W        W15260   0.879  16.683   8.924
11300W        W15261   1.192  18.094   9.674
11301W        W15262   3.259  18.190  10.706
11302W        W15263   2.418  16.378   9.639
11303W        W15264   0.267  16.176   7.554
11304W        W15265   3.401  17.834   8.251
11305W        W15266   3.238  15.158   7.870
11306W        W15267   1.377  14.677  10.273
11307W        W15268   3.083  17.479   8.731
11308W        W15269   3.112  16.035   8.636
11309W        W15270   1.229  15.708   8.852
11310W        W15271   1.474  15.970  10.176
11311W        W15272   2.585  17.123  10.039
11312W        W15273   1.235  15.577  10.151
11313W        W15274   1.214  18.043   8.767
11314W        W15275   0.531  18.002  10.401
11315W        W15276   0.643  17.363   7.531
11316W        W15277   3.160  17.121   8.341
11317W        W15278   0.764  15.913  10.227
11318W        W15279   3.537  15.843   7.708
11319W        W15280   1.282  16.900   8.179
11320W        W15281   2.381  16.282  10.260
11321W        W15282   2.272  15.910   9.804
11322W        W15283   0.832  16.282   9.833
11323W        W15284   3.042  18.170   9.662
11324W        W15285   2.833  14.804  10.656
11325W        W15286   0.497  14.954  10.243
11326W        W15287   0.836  15.977   9.296
11327W        W15288   1.205  15.791   7.418
11328W        W15289   0.008  17.550   9.963
11329W        W15290   1.593  16.259   9.406
11330W        W15291   1.416  15.284   7.511
11331W        W15292   0.551  16.100   8.292
11332W        W15293   0.322  17.952   9.729
11333W        W15294   3.117  16.178   7.837
11334W        W15295   3.212  15.094  10.523
11335W        W15296   2.648  17.303   8.486
11336W        W15297   0.246  16.227  10.663
11337W        W15298   3.212  14.691   7.959
11338W        W15299   2.732  17.166   7.970
11339W        W15300   1.634  16.224   8.055
11340W        W15301   2.821  15.028   7.578
11341W        W15302   2.886  15.635   9.764
11342W        W15303   0.595  16.228   8.971
11343W        W15304   0.889  17.167   8.620
11344W        W15305   2.652  15.787   8.585
11345W        W15306   1.675  15.166   9.281
11346W        W15307   3.637  17.077   9.792
11347W        W15308   3.555  15.064   9.353
11348W        W15309   0.094  17.894   8.729
11349W        W15310   0.603  17.081   8.265
11350W        W15311   0.518  14.698  10.818
11351W        W15312   3.392  16.519   8.710
11352W        W15313   2.746  16.696   7.590
11353W        W15314   2.041  18.217   9.802
11354W        W15315   2.898  16.939  10.839
11355W        W15316   1.713  14.649   8.119
11356W        W15317   2.426  15.518   8.978
11357W        W15318   0.112  17.105   9.310
11358W        W15319   1.365  15.067   7.951
11359W        W15320   1.169  16.551  10.800
11360W        W15321   2.163  15.532   8.514
11361W        W15322   2.368  16.942   9.636
11362W        W15323   0.522  17.547  10.071
11363W        W15324   1.113  17.530  10.794
11364W        W15325   0.964  15.327   7.808
11365W        W15326   2.481  15.469   8.133
11366W        W15327   2.439  17.577  10.370
11367W        W15328   1.124  16.169   8.969
11368W        W15329   0.779  17.867   9.834
11369W        W15330   3.524  17.984   7.435
11370W        W15331   0.387  16.656  10.431
11371W        W15332   2.382  16.918   9.119
11372W        W15333   0.818  16.567   8.361
11373W        W15334   1.189  17.574   9.756
11374W        W15335   1.567  14.993   8.797
11375W        W15336   0.178  16.977   7.727
11376W        W15337   1.697  15.928   7.597
11377W        W15338   0.343  16.477   8.616
11378W        W15339   1.633  15.119  10.080
11379W        W15340   3.305  14.828   7.507
11380W        W15341   3.398  16.574  10.606
11381W        W15342   2.052  17.831  10.758
11382W        W15343   3.610  16.925  10.280
11383W        W15344   3.018  17.723  10.891
11384W        W15345   0.757  18.179   9.369
11385W        W15346   3.616  16.801   8.243
11386W        W15347   2.146  16.068   8.756
11387W        W15348   1.913  14.680   8.646
11388W        W15349   0.972  17.664   8.483
11389W        W15350   1.471  15.405   9.708
11390W        W15351   1.171  14.774   9.177
11391W        W15352   0.234  17.596   7.725
11392W        W15353   2.050  16.960   8.443
11393W        W15354   0.925  17.755  10.322
11394W        W15355   0.402  16.578   8.018
11395W        W15356   0.287  15.121   9.017
11396W        W15357   1.835  17.086   9.074
11397W        W15358   0.087  14.940   8.094
11398W        W15359   2.751  16.146  10.021
11399W        W15360   2.628  15.532   7.593
11400W        W15361   3.145  17.204   9.241
11401W        W15362   1.806  17.688   9.072
11402W        W15363   1.218  17.792   7.983
11403W        W15364   2.500  14.695   7.413
11404W        W15365   0.300  17.955   9.154
11405W        W15366   2.497  15.713  10.789
11406W        W15367   0.480  15.243  10.788
11407W        W15368   0.211  15.843   8.121
11408W        W15369   0.902  15.832   7.846
11409W        W15370   2.665  16.159  10.663
11410W        W15371   1.008  16.440   9.372
11411W        W15372   2.482  14.726   8.492
11412W        W15373   1.613  18.157   8.995
11413W        W15374   2.827  17.619   9.932
11414W        W15375   2.411  17.768   9.043
11415W        W15376   2.430  16.748   8.637
11416W        W15377   1.892  14.973   7.708
11417W        W15378   3.573  14.601   8.430
11418W        W15379   1.261  16.236   7.593
11419W        W15380   3.427  15.573   8.583
11420W        W15381   2.119  16.743   7.460
11421W        W15382   3.055  16.943  10.208
11422W        W15383   2.709  17.644   7.675
11423W        W15384   1.324  15.319  10.581
11424W        W15385   1.144  15.903   9.822
11425W        W15386   3.236  17.398  10.099
11426W        W15387   2.336  15.348  10.476
11427W        W15388   0.180  15.819  10.253
11428W        W15389   1.940  16.296   9.979
11429W        W15390   0.297  17.054   8.636
11430W        W15391   0.444  16.351   9.526
11431W        W15392   2.761  16.637   9.876
11432W        W15393   2.533  18.017  10.687
11433W        W15394   2.429  15.756  10.240
11434W        W15395   2.706  17.810   8.645
11435W        W15396   1.708  17.530   9.968
11436W        W15397   1.193  17.885   9.237
11437W        W15398   2.998  17.056   9.656
11438W        W15399   2.048  17.128  10.793
11439W        W15400   0.653  17.081   9.132
11440W        W15401   2.999  16.840   8.777
11441W        W15402   2.640  17.906   9.528
11442W        W15403   0.618  17.635   9.398
11443W        W15404   1.639  15.687  10.608
11444W        W15405   2.090  17.853   8.119
11445W        W15406   1.398  17.108  10.757
11446W        W15407   1.524  17.346   8.134
11447W        W15408   0.745  16.086   7.393
11448W        W15409   0.084  18.172  14.292
11449W        W15410   0.460  17.065  13.815
11450W        W15411   3.165  16.795  11.585
11451W        W15412   3.295  17.880  13.612
11452W        W15413   1.296  16.023  12.121
11453W        W15414   0.811  15.871  12.285
11454W        W15415   1.802  16.686  11.719
11455W        W15416   1.477  17.778  14.074
11456W        W15417   0.126  15.339  14.037
11457W        W15418   0.888  14.619  13.839
11458W        W15419   2.582  15.007  12.726
11459W        W15420   2.231  15.878  11.296
11460W        W15421   2.801  15.312  14.387
11461W        W15422   0.167  15.104  13.512
11462W        W15423   0.266  17.723  14.533
11463W        W15424   1.788  17.113  11.265
11464W        W15425   0.220  15.896  12.958
11465W        W15426   1.113  15.787  14.195
11466W        W15427   3.572  15.646  12.694
11467W        W15428   3.336  16.689  13.553
11468W        W15429   1.644  16.022  12.580
11469W        W15430   2.190  17.361  12.949
11470W        W15431   0.690  16.795  13.181
11471W        W15432   0.049  16.323  12.752
11472W        W15433   1.085  16.295  13.944
11473W        W15434   3.356  16.078  14.198
11474W        W15435   0.972  17.522  12.643
11475W        W15436   2.093  17.211  13.777
11476W        W15437   1.313  15.851  13.002
11477W        W15438   1.605  16.635  12.645
11478W        W15439   2.602  17.408  14.493
11479W        W15440   1.681  16.728  14.503
11480W        W15441   1.662  16.444  13.981
11481W        W15442   0.071  15.835  14.503
11482W        W15443   2.903  17.370  14.102
11483W        W15444   0.484  14.952  12.100
11484W        W15445   1.011  17.210  13.099
11485W        W15446   3.474  16.993  12.389
11486W        W15447   2.887  15.393  12.956
11487W        W15448   3.172  15.346  11.051
11488W        W15449   3.637  16.147  13.357
11489W        W15450   1.604  17.854  13.110
11490W        W15451   3.378  17.320  11.548
11491W        W15452   0.507  18.106  11.302
11492W        W15453   0.900  18.152  11.978
11493W        W15454   0.697  14.906  13.404
11494W        W15455   3.320  15.924  13.679
11495W        W15456   2.725  16.346  12.138
11496W        W15457   2.691  16.034  11.165
11497W        W15458   1.899  17.178  13.305
11498W        W15459   1.705  15.508  12.504
11499W        W15460   2.305  17.595  13.498
11500W        W15461   3.176  16.386  11.920
11501W        W15462   2.078  15.044  11.936
11502W        W15463   0.735  17.738  11.619
11503W        W15464   0.106  15.237  12.218
11504W        W15465   2.892  15.844  12.692
11505W        W15466   0.350  17.461  12.607
11506W        W15467   1.691  17.811  11.477
11507W        W15468   3.083  15.837  10.941
11508W        W15469   0.106  17.595  13.105
11509W        W15470   0.897  17.167  13.585
11510W        W15471   1.270  16.527  12.204
11511W        W15472   1.292  14.932  13.297
11512W        W15473   3.521  14.694  12.594
11513W        W15474   0.740  16.566  11.062
11514W        W15475   0.395  15.599  11.241
11515W        W15476   0.457  17.555  12.035
11516W        W15477   1.588  17.038  12.283
11517W        W15478   2.920  17.897  13.997
11518W        W15479   1.846  15.539  11.681
11519W        W15480   3.229  17.937  12.453
11520W        W15481   2.906  15.790  14.051
11521W        W15482   3.619  17.446  12.185
11522W        W15483   2.246  16.738  13.669
11523W        W15484   0.012  16.289  11.875
11524W        W15485   1.123  16.704  13.448
11525W        W15486   2.327  15.968  11.826
11526W        W15487   2.204  16.458  11.930
11527W        W15488   0.547  15.878  13.404
11528W        W15489   0.532  15.754  14.326
11529W        W15490   0.422  14.671  12.485
11530W        W15491   2.190  15.018  13.046
11531W        W15492   1.838  15.203  14.209
11532W        W15493   2.193  15.352  11.387
11533W        W15494   3.376  17.745  14.141
11534W        W15495   2.343  14.826  14.180
11535W        W15496   3.362  17.127  14.302
11536W        W15497   2.792  15.294  13.898
11537W        W15498   2.592  15.232  12.168
11538W        W15499   2.985  16.366  14.572
11539W        W15500   0.725  17.942  12.558
11540W        W15501   1.383  15.659  11.544
11541W        W15502   0.952  14.943  14.208
11542W        W15503   3.004  15.427  11.889
11543W        W15504   3.371  15.909  11.834
11544W        W15505   1.114  18.126  14.305
11545W        W15506   1.040  14.662  11.540
11546W        W15507   3.361  15.196  12.575
11547W        W15508   3.511  17.445  11.020
11548W        W15509   0.418  16.648  12.722
11549W        W15510   2.335  15.235  10.952
11550W        W15511   3.469  17.567  12.672
11551W        W15512   3.508  14.761  13.422
11552W        W15513   2.046  17.312  11.679
11553W        W15514   2.446  16.606  14.419
11554W        W15515   2.120  14.583  12.728
11555W        W15516   0.732  15.486  12.791
11556W        W15517   0.286  16.686  13.565
11557W        W15518   2.145  17.879  12.271
11558W        W15519   3.339  15.476  13.143
11559W        W15520   1.976  17.823  13.910
11560W        W15521   3.319  16.882  11.115
11561W        W15522   1.754  16.365  12.176
11562W        W15523   3.606  14.876  13.917
11563W        W15524   1.755  16.711  13.511
11564W        W15525   1.972  15.597  12.956
11565W        W15526   2.824  15.895  11.794
11566W        W15527   3.111  15.628  11.436
11567W        W15528   2.920  17.668  11.825
11568W        W15529   2.754  17.271  12.621
11569W        W15530   2.650  16.350  11.599
11570W        W15531   2.083  16.560  12.585
11571W        W15532   0.339  15.363  13.076
11572W        W15533   3.117  16.415  13.903
11573W        W15534   3.468  18.033  13.049
11574W        W15535   1.398  17.477  12.451
11575W        W15536   2.405  18.010  13.775
11576W        W15537   2.399  15.340  13.539
11577W        W15538   1.606  18.048  13.600
11578W        W15539   3.303  15.002  12.066
11579W        W15540   0.077  15.642  13.405
11580W        W15541   2.937  15.437  12.423
11581W        W15542   3.348  15.588  14.200
11582W        W15543   2.233  17.287  12.418
11583W        W15544   1.489  17.878  12.031
11584W        W15545   0.604  15.058  11.289
11585W        W15546   1.708  14.712  13.099
11586W        W15547   0.736  17.832  10.947
11587W        W15548   1.110  16.298  11.698
11588W        W15549   1.764  16.927  14.011
11589W        W15550   1.594  15.285  12.001
11590W        W15551   2.950  14.882  12.429
11591W        W15552   2.670  18.164  12.757
11592W        W15553   2.082  17.812  13.097
11593W        W15554   1.478  16.849  13.058
11594W        W15555   3.248  17.572  13.184
11595W        W15556   0.942  15.075  11.953
11596W        W15557   1.464  17.372  12.913
11597W        W15558   0.947  15.303  10.978
11598W        W15559   1.748  15.912  13.372
11599W        W15560   2.596  14.778  13.242
11600W        W15561   0.016  16.621  13.127
11601W        W15562   1.720  16.439  11.285
11602W        W15563   0.988  14.754  11.055
11603W        W15564   1.726  15.835  12.106
11604W        W15565   2.696  14.811  13.805
11605W        W15566   1.284  16.823  13.914
11606W        W15567   2.088  16.605  14.131
11607W        W15568   2.705  16.635  14.024
11608W        W15569   1.989  14.775  14.529
11609W        W15570   1.211  15.391  12.922
11610W        W15571   0.637  15.347  12.320
11611W        W15572   0.423  18.059  11.996
11612W        W15573   1.755  17.389  14.121
11613W        W15574   0.790  16.874  11.480
11614W        W15575   2.470  16.259  12.701
11615W        W15576   2.750  16.058  13.100
11616W        W15577   1.955  16.732  13.034
11617W        W15578   2.425  17.106  11.166
11618W        W15579   2.097  15.127  12.494
11619W        W15580   3.576  15.405  11.762
11620W        W15581   0.070  17.994  13.793
11621W        W15582   0.487  17.220  13.325
11622W        W15583   0.054  18.066  11.557
11623W        W15584   1.953  15.336  13.363
11624W        W15585   3.221  17.741  11.398
11625W        W15586   2.196  16.394  11.412
11626W        W15587   1.039  15.585  11.929
11627W        W15588   1.871  15.495  10.981
11628W        W15589   2.455  17.060  14.159
11629W        W15590   2.808  14.966  11.776
11630W        W15591   0.138  14.814  11.224
11631W        W15592   1.424  17.133  13.514
11632W        W15593   1.223  17.049  12.606
11633W        W15594   0.965  17.001  11.004
11634W        W15595   0.206  17.242  11.772
11635W        W15596   0.710  16.312  14.214
11636W        W15597   1.414  14.872  14.400
11637W        W15598   2.123  15.014  13.756
11638W        W15599   1.318  14.782  12.037
11639W        W15600   2.377  14.859  11.542
11640W        W15601   0.322  14.791  13.119
11641W        W15602   0.370  15.754  12.489
11642W        W15603   3.059  14.862  12.895
11643W        W15604   0.481  15.360  11.709
11644W        W15605   3.052  15.048  13.325
11645W        W15606   3.448  16.251  11.010
11646W        W15607   0.740  15.009  12.829
11647W        W15608   1.854  15.581  13.769
11648W        W15609   0.002  15.271  11.247
11649W        W15610   0.788  16.660  13.808
11650W        W15611   2.146  16.058  12.987
11651W        W15612   2.013  18.137  11.283
11652W        W15613   0.159  16.644  10.980
11653W        W15614   0.894  17.055  14.106
11654W        W15615   0.415  16.222  13.737
11655W        W15616   1.406  16.327  13.531
11656W        W15617   3.174  14.686  13.793
11657W        W15618   3.572  16.296  13.784
11658W        W15619   3.560  16.496  11.470
11659W        W15620   2.423  16.828  11.569
11660W        W15621   2.897  18.128  11.264
11661W        W15622   2.074  16.118  14.406
11662W        W15623   0.404  17.085  14.446
11663W        W15624   3.610  15.007  14.398
11664W        W15625   3.328  15.935  13.019
11665W        W15626   1.636  18.065  14.496
11666W        W15627   1.491  14.694  11.223
11667W        W15628   3.030  17.293  11.166
11668W        W15629   0.799  15.386  14.052
11669W        W15630   1.233  17.380  13.914
11670W        W15631   3.359  15.371  13.712
11671W        W15632   2.570  18.030  11.680
11672W        W15633   2.809  16.649  13.047
11673W        W15634   1.059  15.065  13.714
11674W        W15635   1.528  16.134  14.471
11675W        W15636   1.031  17.313  11.665
11676W        W15637   2.786  16.811  11.929
11677W        W15638   0.554  15.437  13.653
11678W        W15639   1.883  17.499  12.117
11679W        W15640   3.633  16.059  12.298
11680W        W15641   1.855  14.692  14.017
11681W        W15642   2.635  17.397  13.096
11682W        W15643   2.938  17.741  12.804
11683W        W15644   2.157  17.543  11.232
11684W        W15645   0.167  17.435  14.074
11685W        W15646   0.910  15.427  13.312
11686W        W15647   0.880  14.775  12.422
11687W        W15648   2.501  15.617  13.114
11688W        W15649   1.299  16.788  11.314
11689W        W15650   3.297  16.730  12.813
11690W        W15651   0.624  17.488  14.236
11691W        W15652   3.011  18.170  12.033
11692W        W15653   1.110  15.190  12.478
11693W        W15654   0.879  16.683  12.568
11694W        W15655   1.192  18.094  13.318
11695W        W15656   3.259  18.190  14.350
11696W        W15657   2.418  16.378  13.283
11697W        W15658   0.267  16.176  11.198
11698W        W15659   3.401  17.834  11.895
11699W        W15660   3.238  15.158  11.514
11700W        W15661   1.377  14.677  13.917
11701W        W15662   3.083  17.479  12.375
11702W        W15663   3.112  16.035  12.280
11703W        W15664   1.229  15.708  12.496
11704W        W15665   2.585  17.123  13.683
11705W        W15666   1.235  15.577  13.795
11706W        W15667   1.214  18.043  12.411
11707W        W15668   0.531  18.002  14.045
11708W        W15669   0.643  17.363  11.175
11709W        W15670   3.160  17.121  11.985
11710W        W15671   0.764  15.913  13.871
11711W        W15672   3.537  15.843  11.352
11712W        W15673   1.282  16.900  11.823
11713W        W15674   2.381  16.282  13.904
11714W        W15675   0.832  16.282  13.477
11715W        W15676   3.042  18.170  13.306
11716W        W15677   2.833  14.804  14.300
11717W        W15678   0.497  14.954  13.887
11718W        W15679   0.836  15.977  12.940
11719W        W15680   1.205  15.791  11.062
11720W        W15681   0.008  17.550  13.607
11721W        W15682   1.416  15.284  11.155
11722W        W15683   0.551  16.100  11.936
11723W        W15684   0.322  17.952  13.373
11724W        W15685   3.117  16.178  11.481
11725W        W15686   3.212  15.094  14.167
11726W        W15687   2.648  17.303  12.130
11727W        W15688   0.246  16.227  14.307
11728W        W15689   3.212  14.691  11.603
11729W        W15690   2.732  17.166  11.614
11730W        W15691   1.634  16.224  11.699
11731W        W15692   2.821  15.028  11.222
11732W        W15693   2.886  15.635  13.408
11733W        W15694   0.595  16.228  12.615
11734W        W15695   0.889  17.167  12.264
11735W        W15696   2.652  15.787  12.229
11736W        W15697   1.675  15.166  12.925
11737W        W15698   3.637  17.077  13.436
11738W        W15699   3.555  15.064  12.997
11739W        W15700   0.094  17.894  12.373
11740W        W15701   0.603  17.081  11.909
11741W        W15702   0.518  14.698  14.462
11742W        W15703   1.637  17.551  14.564
11743W        W15704   3.392  16.519  12.354
11744W        W15705   2.746  16.696  11.234
11745W        W15706   2.041  18.217  13.446
11746W        W15707   2.898  16.939  14.483
11747W        W15708   1.713  14.649  11.763
11748W        W15709   2.426  15.518  12.622
11749W        W15710   0.112  17.105  12.954
11750W        W15711   1.365  15.067  11.595
11751W        W15712   1.169  16.551  14.444
11752W        W15713   2.163  15.532  12.158
11753W        W15714   2.368  16.942  13.280
11754W        W15715   0.522  17.547  13.715
11755W        W15716   1.113  17.530  14.438
11756W        W15717   0.964  15.327  11.452
11757W        W15718   2.481  15.469  11.777
11758W        W15719   2.439  17.577  14.014
11759W        W15720   1.124  16.169  12.613
11760W        W15721   0.779  17.867  13.478
11761W        W15722   3.524  17.984  11.079
11762W        W15723   0.387  16.656  14.075
11763W        W15724   2.382  16.918  12.763
11764W        W15725   0.818  16.567  12.005
11765W        W15726   1.189  17.574  13.400
11766W        W15727   1.567  14.993  12.441
11767W        W15728   0.178  16.977  11.371
11768W        W15729   1.697  15.928  11.241
11769W        W15730   0.343  16.477  12.260
11770W        W15731   3.305  14.828  11.151
11771W        W15732   3.398  16.574  14.250
11772W        W15733   2.052  17.831  14.402
11773W        W15734   3.610  16.925  13.924
11774W        W15735   3.018  17.723  14.535
11775W        W15736   0.757  18.179  13.013
11776W        W15737   3.616  16.801  11.887
11777W        W15738   2.146  16.068  12.400
11778W        W15739   1.913  14.680  12.290
11779W        W15740   0.972  17.664  12.127
11780W        W15741   1.471  15.405  13.352
11781W        W15742   1.171  14.774  12.821
11782W        W15743   0.234  17.596  11.369
11783W        W15744   2.050  16.960  12.087
11784W        W15745   0.925  17.755  13.966
11785W        W15746   0.402  16.578  11.662
11786W        W15747   0.287  15.121  12.661
11787W        W15748   1.835  17.086  12.718
11788W        W15749   0.087  14.940  11.738
11789W        W15750   2.751  16.146  13.665
11790W        W15751   2.628  15.532  11.237
11791W        W15752   3.145  17.204  12.885
11792W        W15753   1.806  17.688  12.716
11793W        W15754   1.218  17.792  11.627
11794W        W15755   2.500  14.695  11.057
11795W        W15756   0.300  17.955  12.798
11796W        W15757   2.497  15.713  14.433
11797W        W15758   0.480  15.243  14.432
11798W        W15759   0.211  15.843  11.765
11799W        W15760   0.902  15.832  11.490
11800W        W15761   2.665  16.159  14.307
11801W        W15762   1.008  16.440  13.016
11802W        W15763   2.482  14.726  12.136
11803W        W15764   1.613  18.157  12.639
11804W        W15765   2.827  17.619  13.576
11805W        W15766   2.411  17.768  12.687
11806W        W15767   2.430  16.748  12.281
11807W        W15768   1.892  14.973  11.352
11808W        W15769   3.573  14.601  12.074
11809W        W15770   1.261  16.236  11.237
11810W        W15771   3.427  15.573  12.227
11811W        W15772   2.119  16.743  11.104
11812W        W15773   3.055  16.943  13.852
11813W        W15774   2.709  17.644  11.319
11814W        W15775   1.324  15.319  14.225
11815W        W15776   1.144  15.903  13.466
11816W        W15777   3.236  17.398  13.743
11817W        W15778   2.336  15.348  14.120
11818W        W15779   0.180  15.819  13.897
11819W        W15780   0.297  17.054  12.280
11820W        W15781   0.444  16.351  13.170
11821W        W15782   2.761  16.637  13.520
11822W        W15783   2.533  18.017  14.331
11823W        W15784   2.429  15.756  13.884
11824W        W15785   2.706  17.810  12.289
11825W        W15786   1.708  17.530  13.612
11826W        W15787   1.193  17.885  12.881
11827W        W15788   2.998  17.056  13.300
11828W        W15789   2.048  17.128  14.437
11829W        W15790   0.653  17.081  12.776
11830W        W15791   2.999  16.840  12.421
11831W        W15792   2.640  17.906  13.172
11832W        W15793   0.618  17.635  13.042
11833W        W15794   1.639  15.687  14.252
11834W        W15795   2.090  17.853  11.763
11835W        W15796   1.398  17.108  14.401
11836W        W15797   0.745  16.086  11.037
11837W        W15798   0.084  18.172  17.936
11838W        W15799   0.460  17.065  17.459
11839W        W15800   3.165  16.795  15.229
11840W        W15801   3.295  17.880  17.256
11841W        W15802   1.213  17.871  14.782
11842W        W15803   1.296  16.023  15.765
11843W        W15804   0.811  15.871  15.929
11844W        W15805   1.802  16.686  15.363
11845W        W15806   1.477  17.778  17.718
11846W        W15807   0.126  15.339  17.681
11847W        W15808   0.888  14.619  17.483
11848W        W15809   2.582  15.007  16.370
11849W        W15810   2.231  15.878  14.940
11850W        W15811   2.801  15.312  18.031
11851W        W15812   0.167  15.104  17.156
11852W        W15813   0.266  17.723  18.177
11853W        W15814   1.788  17.113  14.909
11854W        W15815   0.220  15.896  16.602
11855W        W15816   1.113  15.787  17.839
11856W        W15817   3.572  15.646  16.338
11857W        W15818   3.336  16.689  17.197
11858W        W15819   1.644  16.022  16.224
11859W        W15820   2.190  17.361  16.593
11860W        W15821   0.690  16.795  16.825
11861W        W15822   0.049  16.323  16.396
11862W        W15823   1.085  16.295  17.588
11863W        W15824   3.356  16.078  17.842
11864W        W15825   0.972  17.522  16.287
11865W        W15826   2.093  17.211  17.421
11866W        W15827   1.313  15.851  16.646
11867W        W15828   1.605  16.635  16.289
11868W        W15829   2.602  17.408  18.137
11869W        W15830   1.681  16.728  18.147
11870W        W15831   1.662  16.444  17.625
11871W        W15832   0.071  15.835  18.147
11872W        W15833   2.903  17.370  17.746
11873W        W15834   0.484  14.952  15.744
11874W        W15835   1.011  17.210  16.743
11875W        W15836   3.474  16.993  16.033
11876W        W15837   2.887  15.393  16.600
11877W        W15838   3.172  15.346  14.695
11878W        W15839   3.637  16.147  17.001
11879W        W15840   1.604  17.854  16.754
11880W        W15841   3.378  17.320  15.192
11881W        W15842   0.507  18.106  14.946
11882W        W15843   0.900  18.152  15.622
11883W        W15844   0.697  14.906  17.048
11884W        W15845   3.320  15.924  17.323
11885W        W15846   2.725  16.346  15.782
11886W        W15847   2.691  16.034  14.809
11887W        W15848   1.899  17.178  16.949
11888W        W15849   1.705  15.508  16.148
11889W        W15850   2.305  17.595  17.142
11890W        W15851   3.176  16.386  15.564
11891W        W15852   2.078  15.044  15.580
11892W        W15853   0.735  17.738  15.263
11893W        W15854   0.106  15.237  15.862
11894W        W15855   2.892  15.844  16.336
11895W        W15856   0.350  17.461  16.251
11896W        W15857   1.691  17.811  15.121
11897W        W15858   3.083  15.837  14.585
11898W        W15859   0.106  17.595  16.749
11899W        W15860   0.897  17.167  17.229
11900W        W15861   1.270  16.527  15.848
11901W        W15862   1.292  14.932  16.941
11902W        W15863   3.521  14.694  16.238
11903W        W15864   0.740  16.566  14.706
11904W        W15865   0.395  15.599  14.885
11905W        W15866   0.457  17.555  15.679
11906W        W15867   1.588  17.038  15.927
11907W        W15868   2.920  17.897  17.641
11908W        W15869   1.846  15.539  15.325
11909W        W15870   3.229  17.937  16.097
11910W        W15871   2.906  15.790  17.695
11911W        W15872   3.619  17.446  15.829
11912W        W15873   2.246  16.738  17.313
11913W        W15874   0.012  16.289  15.519
11914W        W15875   1.123  16.704  17.092
11915W        W15876   2.327  15.968  15.470
11916W        W15877   2.204  16.458  15.574
11917W        W15878   0.547  15.878  17.048
11918W        W15879   0.532  15.754  17.970
11919W        W15880   0.422  14.671  16.129
11920W        W15881   2.190  15.018  16.690
11921W        W15882   1.838  15.203  17.853
11922W        W15883   2.193  15.352  15.031
11923W        W15884   3.376  17.745  17.785
11924W        W15885   2.343  14.826  17.824
11925W        W15886   3.362  17.127  17.946
11926W        W15887   2.792  15.294  17.542
11927W        W15888   2.592  15.232  15.812
11928W        W15889   2.985  16.366  18.216
11929W        W15890   0.725  17.942  16.202
11930W        W15891   1.383  15.659  15.188
11931W        W15892   0.952  14.943  17.852
11932W        W15893   3.004  15.427  15.533
11933W        W15894   3.371  15.909  15.478
11934W        W15895   1.114  18.126  17.949
11935W        W15896   1.040  14.662  15.184
11936W        W15897   3.361  15.196  16.219
11937W        W15898   3.511  17.445  14.664
11938W        W15899   0.418  16.648  16.366
11939W        W15900   2.335  15.235  14.596
11940W        W15901   3.469  17.567  16.316
11941W        W15902   3.508  14.761  17.066
11942W        W15903   1.953  15.973  17.620
11943W        W15904   2.046  17.312  15.323
11944W        W15905   2.446  16.606  18.063
11945W        W15906   2.120  14.583  16.372
11946W        W15907   0.732  15.486  16.435
11947W        W15908   0.286  16.686  17.209
11948W        W15909   2.145  17.879  15.915
11949W        W15910   3.339  15.476  16.787
11950W        W15911   1.976  17.823  17.554
11951W        W15912   3.319  16.882  14.759
11952W        W15913   1.754  16.365  15.820
11953W        W15914   3.606  14.876  17.561
11954W        W15915   1.755  16.711  17.155
11955W        W15916   1.972  15.597  16.600
11956W        W15917   2.824  15.895  15.438
11957W        W15918   3.111  15.628  15.080
11958W        W15919   2.920  17.668  15.469
11959W        W15920   2.754  17.271  16.265
11960W        W15921   2.650  16.350  15.243
11961W        W15922   2.083  16.560  16.229
11962W        W15923   2.964  16.348  16.296
11963W        W15924   0.339  15.363  16.720
11964W        W15925   3.117  16.415  17.547
11965W        W15926   3.468  18.033  16.693
11966W        W15927   1.398  17.477  16.095
11967W        W15928   2.405  18.010  17.419
11968W        W15929   2.399  15.340  17.183
11969W        W15930   1.606  18.048  17.244
11970W        W15931   3.303  15.002  15.710
11971W        W15932   3.094  16.321  17.011
11972W        W15933   0.077  15.642  17.049
11973W        W15934   2.937  15.437  16.067
11974W        W15935   3.348  15.588  17.844
11975W        W15936   2.233  17.287  16.062
11976W        W15937   1.489  17.878  15.675
11977W        W15938   0.604  15.058  14.933
11978W        W15939   1.708  14.712  16.743
11979W        W15940   0.736  17.832  14.591
11980W        W15941   1.110  16.298  15.342
11981W        W15942   1.764  16.927  17.655
11982W        W15943   1.594  15.285  15.645
11983W        W15944   2.950  14.882  16.073
11984W        W15945   2.670  18.164  16.401
11985W        W15946   2.082  17.812  16.741
11986W        W15947   1.478  16.849  16.702
11987W        W15948   3.248  17.572  16.828
11988W        W15949   0.942  15.075  15.597
11989W        W15950   1.464  17.372  16.557
11990W        W15951   0.947  15.303  14.622
11991W        W15952   1.748  15.912  17.016
11992W        W15953   2.596  14.778  16.886
11993W        W15954   0.016  16.621  16.771
11994W        W15955   1.720  16.439  14.929
11995W        W15956   0.988  14.754  14.699
11996W        W15957   1.726  15.835  15.750
11997W        W15958   2.696  14.811  17.449
11998W        W15959   1.284  16.823  17.558
11999W        W15960   2.088  16.605  17.775
12000W        W15961   2.705  16.635  17.668
12001W        W15962   1.989  14.775  18.173
12002W        W15963   1.211  15.391  16.566
12003W        W15964   0.637  15.347  15.964
12004W        W15965   0.423  18.059  15.640
12005W        W15966   1.755  17.389  17.765
12006W        W15967   0.790  16.874  15.124
12007W        W15968   2.470  16.259  16.345
12008W        W15969   2.750  16.058  16.744
12009W        W15970   1.955  16.732  16.678
12010W        W15971   2.425  17.106  14.810
12011W        W15972   2.097  15.127  16.138
12012W        W15973   3.576  15.405  15.406
12013W        W15974   0.070  17.994  17.437
12014W        W15975   0.487  17.220  16.969
12015W        W15976   0.054  18.066  15.201
12016W        W15977   1.953  15.336  17.007
12017W        W15978   1.316  17.359  14.856
12018W        W15979   3.221  17.741  15.042
12019W        W15980   2.196  16.394  15.056
12020W        W15981   1.039  15.585  15.573
12021W        W15982   1.871  15.495  14.625
12022W        W15983   2.455  17.060  17.803
12023W        W15984   2.808  14.966  15.420
12024W        W15985   0.138  14.814  14.868
12025W        W15986   1.424  17.133  17.158
12026W        W15987   1.223  17.049  16.250
12027W        W15988   0.965  17.001  14.648
12028W        W15989   0.206  17.242  15.416
12029W        W15990   0.710  16.312  17.858
12030W        W15991   1.414  14.872  18.044
12031W        W15992   2.123  15.014  17.400
12032W        W15993   1.318  14.782  15.681
12033W        W15994   2.377  14.859  15.186
12034W        W15995   0.322  14.791  16.763
12035W        W15996   0.370  15.754  16.133
12036W        W15997   3.059  14.862  16.539
12037W        W15998   0.481  15.360  15.353
12038W        W15999   3.052  15.048  16.969
12039W        W16000   3.448  16.251  14.654
12040W        W16001   0.740  15.009  16.473
12041W        W16002   1.854  15.581  17.413
12042W        W16003   0.002  15.271  14.891
12043W        W16004   0.788  16.660  17.452
12044W        W16005   2.146  16.058  16.631
12045W        W16006   2.013  18.137  14.927
12046W        W16007   0.159  16.644  14.624
12047W        W16008   0.894  17.055  17.750
12048W        W16009   0.415  16.222  17.381
12049W        W16010   1.406  16.327  17.175
12050W        W16011   3.174  14.686  17.437
12051W        W16012   3.572  16.296  17.428
12052W        W16013   3.560  16.496  15.114
12053W        W16014   2.423  16.828  15.213
12054W        W16015   2.897  18.128  14.908
12055W        W16016   2.074  16.118  18.050
12056W        W16017   0.404  17.085  18.090
12057W        W16018   3.610  15.007  18.042
12058W        W16019   3.328  15.935  16.663
12059W        W16020   1.636  18.065  18.140
12060W        W16021   1.491  14.694  14.867
12061W        W16022   3.030  17.293  14.810
12062W        W16023   0.799  15.386  17.696
12063W        W16024   1.233  17.380  17.558
12064W        W16025   3.359  15.371  17.356
12065W        W16026   2.570  18.030  15.324
12066W        W16027   2.809  16.649  16.691
12067W        W16028   1.059  15.065  17.358
12068W        W16029   1.528  16.134  18.115
12069W        W16030   1.031  17.313  15.309
12070W        W16031   2.786  16.811  15.573
12071W        W16032   0.554  15.437  17.297
12072W        W16033   1.883  17.499  15.761
12073W        W16034   3.633  16.059  15.942
12074W        W16035   1.855  14.692  17.661
12075W        W16036   2.635  17.397  16.740
12076W        W16037   2.938  17.741  16.448
12077W        W16038   2.157  17.543  14.876
12078W        W16039   0.167  17.435  17.718
12079W        W16040   0.910  15.427  16.956
12080W        W16041   0.880  14.775  16.066
12081W        W16042   2.501  15.617  16.758
12082W        W16043   1.299  16.788  14.958
12083W        W16044   3.297  16.730  16.457
12084W        W16045   0.624  17.488  17.880
12085W        W16046   3.011  18.170  15.677
12086W        W16047   1.110  15.190  16.122
12087W        W16048   0.879  16.683  16.212
12088W        W16049   1.192  18.094  16.962
12089W        W16050   3.259  18.190  17.994
12090W        W16051   2.418  16.378  16.927
12091W        W16052   0.267  16.176  14.842
12092W        W16053   3.401  17.834  15.539
12093W        W16054   3.238  15.158  15.158
12094W        W16055   1.377  14.677  17.561
12095W        W16056   3.083  17.479  16.019
12096W        W16057   3.112  16.035  15.924
12097W        W16058   1.229  15.708  16.140
12098W        W16059   1.474  15.970  17.464
12099W        W16060   2.585  17.123  17.327
12100W        W16061   1.235  15.577  17.439
12101W        W16062   1.214  18.043  16.055
12102W        W16063   0.531  18.002  17.689
12103W        W16064   0.643  17.363  14.819
12104W        W16065   3.160  17.121  15.629
12105W        W16066   0.764  15.913  17.515
12106W        W16067   3.537  15.843  14.996
12107W        W16068   1.282  16.900  15.467
12108W        W16069   2.381  16.282  17.548
12109W        W16070   2.272  15.910  17.092
12110W        W16071   0.832  16.282  17.121
12111W        W16072   3.042  18.170  16.950
12112W        W16073   2.833  14.804  17.944
12113W        W16074   0.497  14.954  17.531
12114W        W16075   0.836  15.977  16.584
12115W        W16076   1.205  15.791  14.706
12116W        W16077   0.008  17.550  17.251
12117W        W16078   1.593  16.259  16.694
12118W        W16079   1.416  15.284  14.799
12119W        W16080   0.551  16.100  15.580
12120W        W16081   0.322  17.952  17.017
12121W        W16082   3.117  16.178  15.125
12122W        W16083   3.212  15.094  17.811
12123W        W16084   2.648  17.303  15.774
12124W        W16085   0.246  16.227  17.951
12125W        W16086   3.212  14.691  15.247
12126W        W16087   2.732  17.166  15.258
12127W        W16088   1.634  16.224  15.343
12128W        W16089   2.821  15.028  14.866
12129W        W16090   2.886  15.635  17.052
12130W        W16091   0.595  16.228  16.259
12131W        W16092   0.889  17.167  15.908
12132W        W16093   2.652  15.787  15.873
12133W        W16094   1.675  15.166  16.569
12134W        W16095   3.637  17.077  17.080
12135W        W16096   3.555  15.064  16.641
12136W        W16097   0.094  17.894  16.017
12137W        W16098   0.603  17.081  15.553
12138W        W16099   0.518  14.698  18.106
12139W        W16100   1.637  17.551  18.208
12140W        W16101   3.392  16.519  15.998
12141W        W16102   2.746  16.696  14.878
12142W        W16103   2.041  18.217  17.090
12143W        W16104   2.898  16.939  18.127
12144W        W16105   1.713  14.649  15.407
12145W        W16106   2.426  15.518  16.266
12146W        W16107   0.112  17.105  16.598
12147W        W16108   1.365  15.067  15.239
12148W        W16109   1.169  16.551  18.088
12149W        W16110   2.163  15.532  15.802
12150W        W16111   2.368  16.942  16.924
12151W        W16112   0.522  17.547  17.359
12152W        W16113   1.113  17.530  18.082
12153W        W16114   0.964  15.327  15.096
12154W        W16115   2.481  15.469  15.421
12155W        W16116   2.439  17.577  17.658
12156W        W16117   1.124  16.169  16.257
12157W        W16118   0.779  17.867  17.122
12158W        W16119   3.524  17.984  14.723
12159W        W16120   0.387  16.656  17.719
12160W        W16121   2.382  16.918  16.407
12161W        W16122   0.818  16.567  15.649
12162W        W16123   1.189  17.574  17.044
12163W        W16124   1.567  14.993  16.085
12164W        W16125   0.178  16.977  15.015
12165W        W16126   1.697  15.928  14.885
12166W        W16127   0.343  16.477  15.904
12167W        W16128   1.633  15.119  17.368
12168W        W16129   3.305  14.828  14.795
12169W        W16130   3.398  16.574  17.894
12170W        W16131   2.052  17.831  18.046
12171W        W16132   3.610  16.925  17.568
12172W        W16133   3.018  17.723  18.179
12173W        W16134   0.757  18.179  16.657
12174W        W16135   3.616  16.801  15.531
12175W        W16136   2.146  16.068  16.044
12176W        W16137   1.913  14.680  15.934
12177W        W16138   0.972  17.664  15.771
12178W        W16139   1.471  15.405  16.996
12179W        W16140   1.171  14.774  16.465
12180W        W16141   0.234  17.596  15.013
12181W        W16142   2.050  16.960  15.731
12182W        W16143   0.925  17.755  17.610
12183W        W16144   0.402  16.578  15.306
12184W        W16145   0.287  15.121  16.305
12185W        W16146   1.835  17.086  16.362
12186W        W16147   0.087  14.940  15.382
12187W        W16148   2.751  16.146  17.309
12188W        W16149   2.628  15.532  14.881
12189W        W16150   3.145  17.204  16.529
12190W        W16151   1.806  17.688  16.360
12191W        W16152   1.218  17.792  15.271
12192W        W16153   2.500  14.695  14.701
12193W        W16154   0.300  17.955  16.442
12194W        W16155   2.497  15.713  18.077
12195W        W16156   0.480  15.243  18.076
12196W        W16157   0.211  15.843  15.409
12197W        W16158   0.902  15.832  15.134
12198W        W16159   2.665  16.159  17.951
12199W        W16160   1.008  16.440  16.660
12200W        W16161   2.482  14.726  15.780
12201W        W16162   1.613  18.157  16.283
12202W        W16163   2.827  17.619  17.220
12203W        W16164   2.411  17.768  16.331
12204W        W16165   2.430  16.748  15.925
12205W        W16166   1.892  14.973  14.996
12206W        W16167   3.573  14.601  15.718
12207W        W16168   1.261  16.236  14.881
12208W        W16169   3.427  15.573  15.871
12209W        W16170   2.119  16.743  14.748
12210W        W16171   3.055  16.943  17.496
12211W        W16172   2.709  17.644  14.963
12212W        W16173   1.324  15.319  17.869
12213W        W16174   1.144  15.903  17.110
12214W        W16175   3.236  17.398  17.387
12215W        W16176   2.336  15.348  17.764
12216W        W16177   0.180  15.819  17.541
12217W        W16178   1.940  16.296  17.267
12218W        W16179   0.297  17.054  15.924
12219W        W16180   0.444  16.351  16.814
12220W        W16181   2.761  16.637  17.164
12221W        W16182   2.533  18.017  17.975
12222W        W16183   2.429  15.756  17.528
12223W        W16184   2.706  17.810  15.933
12224W        W16185   1.708  17.530  17.256
12225W        W16186   1.193  17.885  16.525
12226W        W16187   2.998  17.056  16.944
12227W        W16188   2.048  17.128  18.081
12228W        W16189   0.653  17.081  16.420
12229W        W16190   2.999  16.840  16.065
12230W        W16191   2.640  17.906  16.816
12231W        W16192   0.618  17.635  16.686
12232W        W16193   1.639  15.687  17.896
12233W        W16194   2.090  17.853  15.407
12234W        W16195   1.398  17.108  18.045
12235W        W16196   1.524  17.346  15.422
12236W        W16197   0.745  16.086  14.681
12237W        W16198   0.084  18.172  21.580
12238W        W16199   0.460  17.065  21.103
12239W        W16200   3.165  16.795  18.873
12240W        W16201   3.295  17.880  20.900
12241W        W16202   1.213  17.871  18.426
12242W        W16203   1.296  16.023  19.409
12243W        W16204   0.811  15.871  19.573
12244W        W16205   1.802  16.686  19.007
12245W        W16206   1.477  17.778  21.362
12246W        W16207   0.126  15.339  21.325
12247W        W16208   0.888  14.619  21.127
12248W        W16209   2.582  15.007  20.014
12249W        W16210   2.231  15.878  18.584
12250W        W16211   2.801  15.312  21.675
12251W        W16212   0.167  15.104  20.800
12252W        W16213   0.266  17.723  21.821
12253W        W16214   1.788  17.113  18.553
12254W        W16215   0.220  15.896  20.246
12255W        W16216   1.113  15.787  21.483
12256W        W16217   3.572  15.646  19.982
12257W        W16218   3.336  16.689  20.841
12258W        W16219   1.644  16.022  19.868
12259W        W16220   2.190  17.361  20.237
12260W        W16221   0.690  16.795  20.469
12261W        W16222   0.049  16.323  20.040
12262W        W16223   1.085  16.295  21.232
12263W        W16224   3.356  16.078  21.486
12264W        W16225   0.972  17.522  19.931
12265W        W16226   2.093  17.211  21.065
12266W        W16227   1.313  15.851  20.290
12267W        W16228   1.605  16.635  19.933
12268W        W16229   2.602  17.408  21.781
12269W        W16230   1.681  16.728  21.791
12270W        W16231   1.662  16.444  21.269
12271W        W16232   0.071  15.835  21.791
12272W        W16233   2.903  17.370  21.390
12273W        W16234   0.484  14.952  19.388
12274W        W16235   1.011  17.210  20.387
12275W        W16236   3.474  16.993  19.677
12276W        W16237   2.887  15.393  20.244
12277W        W16238   3.172  15.346  18.339
12278W        W16239   3.637  16.147  20.645
12279W        W16240   1.604  17.854  20.398
12280W        W16241   3.378  17.320  18.836
12281W        W16242   0.507  18.106  18.590
12282W        W16243   0.900  18.152  19.266
12283W        W16244   0.697  14.906  20.692
12284W        W16245   3.320  15.924  20.967
12285W        W16246   2.725  16.346  19.426
12286W        W16247   2.691  16.034  18.453
12287W        W16248   1.899  17.178  20.593
12288W        W16249   1.705  15.508  19.792
12289W        W16250   2.305  17.595  20.786
12290W        W16251   3.176  16.386  19.208
12291W        W16252   2.078  15.044  19.224
12292W        W16253   0.735  17.738  18.907
12293W        W16254   0.106  15.237  19.506
12294W        W16255   2.892  15.844  19.980
12295W        W16256   0.350  17.461  19.895
12296W        W16257   1.691  17.811  18.765
12297W        W16258   3.083  15.837  18.229
12298W        W16259   0.106  17.595  20.393
12299W        W16260   0.897  17.167  20.873
12300W        W16261   1.270  16.527  19.492
12301W        W16262   1.292  14.932  20.585
12302W        W16263   3.521  14.694  19.882
12303W        W16264   0.740  16.566  18.350
12304W        W16265   0.395  15.599  18.529
12305W        W16266   0.457  17.555  19.323
12306W        W16267   1.588  17.038  19.571
12307W        W16268   2.920  17.897  21.285
12308W        W16269   1.846  15.539  18.969
12309W        W16270   3.229  17.937  19.741
12310W        W16271   2.906  15.790  21.339
12311W        W16272   3.619  17.446  19.473
12312W        W16273   2.246  16.738  20.957
12313W        W16274   0.012  16.289  19.163
12314W        W16275   1.123  16.704  20.736
12315W        W16276   2.327  15.968  19.114
12316W        W16277   2.204  16.458  19.218
12317W        W16278   0.547  15.878  20.692
12318W        W16279   0.532  15.754  21.614
12319W        W16280   0.422  14.671  19.773
12320W        W16281   2.190  15.018  20.334
12321W        W16282   1.838  15.203  21.497
12322W        W16283   2.193  15.352  18.675
12323W        W16284   3.376  17.745  21.429
12324W        W16285   2.343  14.826  21.468
12325W        W16286   3.362  17.127  21.590
12326W        W16287   2.792  15.294  21.186
12327W        W16288   2.592  15.232  19.456
12328W        W16289   2.985  16.366  21.860
12329W        W16290   0.725  17.942  19.846
12330W        W16291   1.383  15.659  18.832
12331W        W16292   0.952  14.943  21.496
12332W        W16293   3.004  15.427  19.177
12333W        W16294   3.371  15.909  19.122
12334W        W16295   1.114  18.126  21.593
12335W        W16296   1.040  14.662  18.828
12336W        W16297   3.361  15.196  19.863
12337W        W16298   3.511  17.445  18.308
12338W        W16299   0.418  16.648  20.010
12339W        W16300   2.335  15.235  18.240
12340W        W16301   3.469  17.567  19.960
12341W        W16302   3.508  14.761  20.710
12342W        W16303   1.953  15.973  21.264
12343W        W16304   2.046  17.312  18.967
12344W        W16305   2.446  16.606  21.707
12345W        W16306   2.120  14.583  20.016
12346W        W16307   0.732  15.486  20.079
12347W        W16308   0.286  16.686  20.853
12348W        W16309   2.145  17.879  19.559
12349W        W16310   3.339  15.476  20.431
12350W        W16311   1.976  17.823  21.198
12351W        W16312   3.319  16.882  18.403
12352W        W16313   1.754  16.365  19.464
12353W        W16314   3.606  14.876  21.205
12354W        W16315   1.755  16.711  20.799
12355W        W16316   1.972  15.597  20.244
12356W        W16317   2.824  15.895  19.082
12357W        W16318   3.111  15.628  18.724
12358W        W16319   2.920  17.668  19.113
12359W        W16320   2.754  17.271  19.909
12360W        W16321   2.650  16.350  18.887
12361W        W16322   2.083  16.560  19.873
12362W        W16323   2.964  16.348  19.940
12363W        W16324   0.339  15.363  20.364
12364W        W16325   3.117  16.415  21.191
12365W        W16326   3.468  18.033  20.337
12366W        W16327   1.398  17.477  19.739
12367W        W16328   2.405  18.010  21.063
12368W        W16329   2.399  15.340  20.827
12369W        W16330   1.606  18.048  20.888
12370W        W16331   3.303  15.002  19.354
12371W        W16332   3.094  16.321  20.655
12372W        W16333   0.077  15.642  20.693
12373W        W16334   2.937  15.437  19.711
12374W        W16335   3.348  15.588  21.488
12375W        W16336   2.233  17.287  19.706
12376W        W16337   1.489  17.878  19.319
12377W        W16338   0.604  15.058  18.577
12378W        W16339   1.708  14.712  20.387
12379W        W16340   0.736  17.832  18.235
12380W        W16341   1.110  16.298  18.986
12381W        W16342   1.764  16.927  21.299
12382W        W16343   1.594  15.285  19.289
12383W        W16344   2.950  14.882  19.717
12384W        W16345   2.670  18.164  20.045
12385W        W16346   2.082  17.812  20.385
12386W        W16347   1.478  16.849  20.346
12387W        W16348   3.248  17.572  20.472
12388W        W16349   0.942  15.075  19.241
12389W        W16350   1.464  17.372  20.201
12390W        W16351   0.947  15.303  18.266
12391W        W16352   1.748  15.912  20.660
12392W        W16353   2.596  14.778  20.530
12393W        W16354   0.016  16.621  20.415
12394W        W16355   1.720  16.439  18.573
12395W        W16356   0.988  14.754  18.343
12396W        W16357   1.726  15.835  19.394
12397W        W16358   2.696  14.811  21.093
12398W        W16359   1.284  16.823  21.202
12399W        W16360   2.088  16.605  21.419
12400W        W16361   2.705  16.635  21.312
12401W        W16362   1.989  14.775  21.817
12402W        W16363   1.211  15.391  20.210
12403W        W16364   0.637  15.347  19.608
12404W        W16365   0.423  18.059  19.284
12405W        W16366   1.755  17.389  21.409
12406W        W16367   0.790  16.874  18.768
12407W        W16368   2.470  16.259  19.989
12408W        W16369   2.750  16.058  20.388
12409W        W16370   1.955  16.732  20.322
12410W        W16371   2.425  17.106  18.454
12411W        W16372   2.097  15.127  19.782
12412W        W16373   3.576  15.405  19.050
12413W        W16374   0.070  17.994  21.081
12414W        W16375   0.487  17.220  20.613
12415W        W16376   0.054  18.066  18.845
12416W        W16377   1.953  15.336  20.651
12417W        W16378   1.316  17.359  18.500
12418W        W16379   3.221  17.741  18.686
12419W        W16380   2.196  16.394  18.700
12420W        W16381   1.039  15.585  19.217
12421W        W16382   1.871  15.495  18.269
12422W        W16383   2.455  17.060  21.447
12423W        W16384   2.808  14.966  19.064
12424W        W16385   0.138  14.814  18.512
12425W        W16386   1.424  17.133  20.802
12426W        W16387   1.223  17.049  19.894
12427W        W16388   0.965  17.001  18.292
12428W        W16389   0.206  17.242  19.060
12429W        W16390   0.710  16.312  21.502
12430W        W16391   1.414  14.872  21.688
12431W        W16392   2.123  15.014  21.044
12432W        W16393   1.318  14.782  19.325
12433W        W16394   2.377  14.859  18.830
12434W        W16395   0.322  14.791  20.407
12435W        W16396   0.370  15.754  19.777
12436W        W16397   3.059  14.862  20.183
12437W        W16398   0.481  15.360  18.997
12438W        W16399   3.052  15.048  20.613
12439W        W16400   3.448  16.251  18.298
12440W        W16401   0.740  15.009  20.117
12441W        W16402   1.854  15.581  21.057
12442W        W16403   0.002  15.271  18.535
12443W        W16404   0.788  16.660  21.096
12444W        W16405   2.146  16.058  20.275
12445W        W16406   2.013  18.137  18.571
12446W        W16407   0.159  16.644  18.268
12447W        W16408   0.894  17.055  21.394
12448W        W16409   0.415  16.222  21.025
12449W        W16410   1.406  16.327  20.819
12450W        W16411   3.174  14.686  21.081
12451W        W16412   3.572  16.296  21.072
12452W        W16413   3.560  16.496  18.758
12453W        W16414   2.423  16.828  18.857
12454W        W16415   2.897  18.128  18.552
12455W        W16416   2.074  16.118  21.694
12456W        W16417   0.404  17.085  21.734
12457W        W16418   3.610  15.007  21.686
12458W        W16419   3.328  15.935  20.307
12459W        W16420   1.636  18.065  21.784
12460W        W16421   1.491  14.694  18.511
12461W        W16422   3.030  17.293  18.454
12462W        W16423   0.799  15.386  21.340
12463W        W16424   1.233  17.380  21.202
12464W        W16425   3.359  15.371  21.000
12465W        W16426   2.570  18.030  18.968
12466W        W16427   2.809  16.649  20.335
12467W        W16428   1.059  15.065  21.002
12468W        W16429   1.528  16.134  21.759
12469W        W16430   1.031  17.313  18.953
12470W        W16431   2.786  16.811  19.217
12471W        W16432   0.554  15.437  20.941
12472W        W16433   1.883  17.499  19.405
12473W        W16434   3.633  16.059  19.586
12474W        W16435   1.855  14.692  21.305
12475W        W16436   2.635  17.397  20.384
12476W        W16437   2.938  17.741  20.092
12477W        W16438   2.157  17.543  18.520
12478W        W16439   0.167  17.435  21.362
12479W        W16440   0.910  15.427  20.600
12480W        W16441   0.880  14.775  19.710
12481W        W16442   2.501  15.617  20.402
12482W        W16443   1.299  16.788  18.602
12483W        W16444   3.297  16.730  20.101
12484W        W16445   0.624  17.488  21.524
12485W        W16446   3.011  18.170  19.321
12486W        W16447   1.110  15.190  19.766
12487W        W16448   0.879  16.683  19.856
12488W        W16449   1.192  18.094  20.606
12489W        W16450   3.259  18.190  21.638
12490W        W16451   2.418  16.378  20.571
12491W        W16452   0.267  16.176  18.486
12492W        W16453   3.401  17.834  19.183
12493W        W16454   3.238  15.158  18.802
12494W        W16455   1.377  14.677  21.205
12495W        W16456   3.083  17.479  19.663
12496W        W16457   3.112  16.035  19.568
12497W        W16458   1.229  15.708  19.784
12498W        W16459   1.474  15.970  21.108
12499W        W16460   2.585  17.123  20.971
12500W        W16461   1.235  15.577  21.083
12501W        W16462   1.214  18.043  19.699
12502W        W16463   0.531  18.002  21.333
12503W        W16464   0.643  17.363  18.463
12504W        W16465   3.160  17.121  19.273
12505W        W16466   0.764  15.913  21.159
12506W        W16467   3.537  15.843  18.640
12507W        W16468   1.282  16.900  19.111
12508W        W16469   2.381  16.282  21.192
12509W        W16470   2.272  15.910  20.736
12510W        W16471   0.832  16.282  20.765
12511W        W16472   3.042  18.170  20.594
12512W        W16473   2.833  14.804  21.588
12513W        W16474   0.497  14.954  21.175
12514W        W16475   0.836  15.977  20.228
12515W        W16476   1.205  15.791  18.350
12516W        W16477   0.008  17.550  20.895
12517W        W16478   1.593  16.259  20.338
12518W        W16479   1.416  15.284  18.443
12519W        W16480   0.551  16.100  19.224
12520W        W16481   0.322  17.952  20.661
12521W        W16482   3.117  16.178  18.769
12522W        W16483   3.212  15.094  21.455
12523W        W16484   2.648  17.303  19.418
12524W        W16485   0.246  16.227  21.595
12525W        W16486   3.212  14.691  18.891
12526W        W16487   2.732  17.166  18.902
12527W        W16488   1.634  16.224  18.987
12528W        W16489   2.821  15.028  18.510
12529W        W16490   2.886  15.635  20.696
12530W        W16491   0.595  16.228  19.903
12531W        W16492   0.889  17.167  19.552
12532W        W16493   2.652  15.787  19.517
12533W        W16494   1.675  15.166  20.213
12534W        W16495   3.637  17.077  20.724
12535W        W16496   3.555  15.064  20.285
12536W        W16497   0.094  17.894  19.661
12537W        W16498   0.603  17.081  19.197
12538W        W16499   0.518  14.698  21.750
12539W        W16500   1.637  17.551  21.852
12540W        W16501   3.392  16.519  19.642
12541W        W16502   2.746  16.696  18.522
12542W        W16503   2.041  18.217  20.734
12543W        W16504   2.898  16.939  21.771
12544W        W16505   1.713  14.649  19.051
12545W        W16506   2.426  15.518  19.910
12546W        W16507   0.112  17.105  20.242
12547W        W16508   1.365  15.067  18.883
12548W        W16509   1.169  16.551  21.732
12549W        W16510   2.163  15.532  19.446
12550W        W16511   2.368  16.942  20.568
12551W        W16512   0.522  17.547  21.003
12552W        W16513   1.113  17.530  21.726
12553W        W16514   0.964  15.327  18.740
12554W        W16515   2.481  15.469  19.065
12555W        W16516   2.439  17.577  21.302
12556W        W16517   1.124  16.169  19.901
12557W        W16518   0.779  17.867  20.766
12558W        W16519   3.524  17.984  18.367
12559W        W16520   0.387  16.656  21.363
12560W        W16521   2.382  16.918  20.051
12561W        W16522   0.818  16.567  19.293
12562W        W16523   1.189  17.574  20.688
12563W        W16524   1.567  14.993  19.729
12564W        W16525   0.178  16.977  18.659
12565W        W16526   1.697  15.928  18.529
12566W        W16527   0.343  16.477  19.548
12567W        W16528   1.633  15.119  21.012
12568W        W16529   3.305  14.828  18.439
12569W        W16530   3.398  16.574  21.538
12570W        W16531   2.052  17.831  21.690
12571W        W16532   3.610  16.925  21.212
12572W        W16533   3.018  17.723  21.823
12573W        W16534   0.757  18.179  20.301
12574W        W16535   3.616  16.801  19.175
12575W        W16536   2.146  16.068  19.688
12576W        W16537   1.913  14.680  19.578
12577W        W16538   0.972  17.664  19.415
12578W        W16539   1.471  15.405  20.640
12579W        W16540   1.171  14.774  20.109
12580W        W16541   0.234  17.596  18.657
12581W        W16542   2.050  16.960  19.375
12582W        W16543   0.925  17.755  21.254
12583W        W16544   0.402  16.578  18.950
12584W        W16545   0.287  15.121  19.949
12585W        W16546   1.835  17.086  20.006
12586W        W16547   0.087  14.940  19.026
12587W        W16548   2.751  16.146  20.953
12588W        W16549   2.628  15.532  18.525
12589W        W16550   3.145  17.204  20.173
12590W        W16551   1.806  17.688  20.004
12591W        W16552   1.218  17.792  18.915
12592W        W16553   2.500  14.695  18.345
12593W        W16554   0.300  17.955  20.086
12594W        W16555   2.497  15.713  21.721
12595W        W16556   0.480  15.243  21.720
12596W        W16557   0.211  15.843  19.053
12597W        W16558   0.902  15.832  18.778
12598W        W16559   2.665  16.159  21.595
12599W        W16560   1.008  16.440  20.304
12600W        W16561   2.482  14.726  19.424
12601W        W16562   1.613  18.157  19.927
12602W        W16563   2.827  17.619  20.864
12603W        W16564   2.411  17.768  19.975
12604W        W16565   2.430  16.748  19.569
12605W        W16566   1.892  14.973  18.640
12606W        W16567   3.573  14.601  19.362
12607W        W16568   1.261  16.236  18.525
12608W        W16569   3.427  15.573  19.515
12609W        W16570   2.119  16.743  18.392
12610W        W16571   3.055  16.943  21.140
12611W        W16572   2.709  17.644  18.607
12612W        W16573   1.324  15.319  21.513
12613W        W16574   1.144  15.903  20.754
12614W        W16575   3.236  17.398  21.031
12615W        W16576   2.336  15.348  21.408
12616W        W16577   0.180  15.819  21.185
12617W        W16578   1.940  16.296  20.911
12618W        W16579   0.297  17.054  19.568
12619W        W16580   0.444  16.351  20.458
12620W        W16581   2.761  16.637  20.808
12621W        W16582   2.533  18.017  21.619
12622W        W16583   2.429  15.756  21.172
12623W        W16584   2.706  17.810  19.577
12624W        W16585   1.708  17.530  20.900
12625W        W16586   1.193  17.885  20.169
12626W        W16587   2.998  17.056  20.588
12627W        W16588   2.048  17.128  21.725
12628W        W16589   0.653  17.081  20.064
12629W        W16590   2.999  16.840  19.709
12630W        W16591   2.640  17.906  20.460
12631W        W16592   0.618  17.635  20.330
12632W        W16593   1.639  15.687  21.540
12633W        W16594   2.090  17.853  19.051
12634W        W16595   1.398  17.108  21.689
12635W        W16596   1.524  17.346  19.066
12636W        W16597   0.745  16.086  18.325
12637W        W16598   3.165  16.795  22.518
12638W        W16599   1.213  17.871  22.071
12639W        W16600   1.296  16.023  23.054
12640W        W16601   0.811  15.871  23.218
12641W        W16602   1.802  16.686  22.652
12642W        W16603   2.231  15.878  22.229
12643W        W16604   1.788  17.113  22.198
12644W        W16605   0.484  14.952  23.033
12645W        W16606   3.172  15.346  21.984
12646W        W16607   3.378  17.320  22.481
12647W        W16608   0.507  18.106  22.235
12648W        W16609   0.900  18.152  22.911
12649W        W16610   2.725  16.346  23.071
12650W        W16611   2.691  16.034  22.098
12651W        W16612   3.176  16.386  22.853
12652W        W16613   2.078  15.044  22.869
12653W        W16614   0.735  17.738  22.552
12654W        W16615   1.691  17.811  22.410
12655W        W16616   3.083  15.837  21.874
12656W        W16617   1.270  16.527  23.137
12657W        W16618   0.740  16.566  21.995
12658W        W16619   0.395  15.599  22.174
12659W        W16620   0.457  17.555  22.968
12660W        W16621   1.588  17.038  23.216
12661W        W16622   1.846  15.539  22.614
12662W        W16623   0.012  16.289  22.808
12663W        W16624   2.327  15.968  22.759
12664W        W16625   2.204  16.458  22.863
12665W        W16626   2.193  15.352  22.320
12666W        W16627   2.592  15.232  23.101
12667W        W16628   1.383  15.659  22.477
12668W        W16629   3.004  15.427  22.822
12669W        W16630   3.371  15.909  22.767
12670W        W16631   1.040  14.662  22.473
12671W        W16632   3.511  17.445  21.953
12672W        W16633   2.335  15.235  21.885
12673W        W16634   2.046  17.312  22.612
12674W        W16635   2.145  17.879  23.204
12675W        W16636   3.319  16.882  22.048
12676W        W16637   1.754  16.365  23.109
12677W        W16638   2.824  15.895  22.727
12678W        W16639   3.111  15.628  22.369
12679W        W16640   2.920  17.668  22.758
12680W        W16641   2.650  16.350  22.532
12681W        W16642   3.303  15.002  22.999
12682W        W16643   1.489  17.878  22.964
12683W        W16644   0.604  15.058  22.222
12684W        W16645   0.736  17.832  21.880
12685W        W16646   1.110  16.298  22.631
12686W        W16647   1.594  15.285  22.934
12687W        W16648   0.942  15.075  22.886
12688W        W16649   0.947  15.303  21.911
12689W        W16650   1.720  16.439  22.218
12690W        W16651   0.988  14.754  21.988
12691W        W16652   1.726  15.835  23.039
12692W        W16653   0.637  15.347  23.253
12693W        W16654   0.423  18.059  22.929
12694W        W16655   0.790  16.874  22.413
12695W        W16656   2.425  17.106  22.099
12696W        W16657   3.576  15.405  22.695
12697W        W16658   0.054  18.066  22.490
12698W        W16659   1.316  17.359  22.145
12699W        W16660   3.221  17.741  22.331
12700W        W16661   2.196  16.394  22.345
12701W        W16662   1.039  15.585  22.862
12702W        W16663   1.871  15.495  21.914
12703W        W16664   2.808  14.966  22.709
12704W        W16665   0.138  14.814  22.157
12705W        W16666   0.965  17.001  21.937
12706W        W16667   0.206  17.242  22.705
12707W        W16668   1.318  14.782  22.970
12708W        W16669   2.377  14.859  22.475
12709W        W16670   0.481  15.360  22.642
12710W        W16671   3.448  16.251  21.943
12711W        W16672   0.002  15.271  22.180
12712W        W16673   2.013  18.137  22.216
12713W        W16674   0.159  16.644  21.913
12714W        W16675   3.560  16.496  22.403
12715W        W16676   2.423  16.828  22.502
12716W        W16677   2.897  18.128  22.197
12717W        W16678   1.491  14.694  22.156
12718W        W16679   3.030  17.293  22.099
12719W        W16680   2.570  18.030  22.613
12720W        W16681   1.031  17.313  22.598
12721W        W16682   2.786  16.811  22.862
12722W        W16683   1.883  17.499  23.050
12723W        W16684   3.633  16.059  23.231
12724W        W16685   2.157  17.543  22.165
12725W        W16686   1.299  16.788  22.247
12726W        W16687   3.011  18.170  22.966
12727W        W16688   0.267  16.176  22.131
12728W        W16689   3.401  17.834  22.828
12729W        W16690   3.238  15.158  22.447
12730W        W16691   3.112  16.035  23.213
12731W        W16692   0.643  17.363  22.108
12732W        W16693   3.160  17.121  22.918
12733W        W16694   3.537  15.843  22.285
12734W        W16695   1.282  16.900  22.756
12735W        W16696   1.205  15.791  21.995
12736W        W16697   1.416  15.284  22.088
12737W        W16698   0.551  16.100  22.869
12738W        W16699   3.117  16.178  22.414
12739W        W16700   2.648  17.303  23.063
12740W        W16701   3.212  14.691  22.536
12741W        W16702   2.732  17.166  22.547
12742W        W16703   1.634  16.224  22.632
12743W        W16704   2.821  15.028  22.155
12744W        W16705   0.889  17.167  23.197
12745W        W16706   2.652  15.787  23.162
12746W        W16707   0.094  17.894  23.306
12747W        W16708   0.603  17.081  22.842
12748W        W16709   3.392  16.519  23.287
12749W        W16710   2.746  16.696  22.167
12750W        W16711   1.713  14.649  22.696
12751W        W16712   1.365  15.067  22.528
12752W        W16713   2.163  15.532  23.091
12753W        W16714   0.964  15.327  22.385
12754W        W16715   2.481  15.469  22.710
12755W        W16716   3.524  17.984  22.012
12756W        W16717   0.178  16.977  22.304
12757W        W16718   1.697  15.928  22.174
12758W        W16719   0.343  16.477  23.193
12759W        W16720   3.305  14.828  22.084
12760W        W16721   3.616  16.801  22.820
12761W        W16722   1.913  14.680  23.223
12762W        W16723   0.972  17.664  23.060
12763W        W16724   0.234  17.596  22.302
12764W        W16725   2.050  16.960  23.020
12765W        W16726   0.402  16.578  22.595
12766W        W16727   0.087  14.940  22.671
12767W        W16728   2.628  15.532  22.170
12768W        W16729   1.218  17.792  22.560
12769W        W16730   2.500  14.695  21.990
12770W        W16731   0.211  15.843  22.698
12771W        W16732   0.902  15.832  22.423
12772W        W16733   2.430  16.748  23.214
12773W        W16734   1.892  14.973  22.285
12774W        W16735   3.573  14.601  23.007
12775W        W16736   1.261  16.236  22.170
12776W        W16737   3.427  15.573  23.160
12777W        W16738   2.119  16.743  22.037
12778W        W16739   2.709  17.644  22.252
12779W        W16740   0.297  17.054  23.213
12780W        W16741   2.706  17.810  23.222
12781W        W16742   2.090  17.853  22.696
12782W        W16743   1.524  17.346  22.711
12783W        W16744   0.745  16.086  21.970
12784W        W16745   0.084  21.816   3.359
12785W        W16746   0.460  20.709   2.882
12786W        W16747   3.165  20.439   0.652
12787W        W16748   3.295  21.524   2.679
12788W        W16749   1.213  21.515   0.205
12789W        W16750   1.296  19.667   1.188
12790W        W16751   0.811  19.515   1.352
12791W        W16752   1.802  20.330   0.786
12792W        W16753   1.477  21.422   3.141
12793W        W16754   0.126  18.983   3.104
12794W        W16755   0.888  18.263   2.906
12795W        W16756   2.582  18.651   1.793
12796W        W16757   2.231  19.522   0.363
12797W        W16758   2.801  18.956   3.454
12798W        W16759   0.167  18.748   2.579
12799W        W16760   0.266  21.367   3.600
12800W        W16761   1.788  20.757   0.332
12801W        W16762   0.220  19.540   2.025
12802W        W16763   1.113  19.431   3.262
12803W        W16764   3.572  19.290   1.761
12804W        W16765   3.336  20.333   2.620
12805W        W16766   1.644  19.666   1.647
12806W        W16767   2.190  21.005   2.016
12807W        W16768   0.690  20.439   2.248
12808W        W16769   0.049  19.967   1.819
12809W        W16770   1.085  19.939   3.011
12810W        W16771   3.356  19.722   3.265
12811W        W16772   0.972  21.166   1.710
12812W        W16773   2.093  20.855   2.844
12813W        W16774   1.313  19.495   2.069
12814W        W16775   1.605  20.279   1.712
12815W        W16776   2.602  21.052   3.560
12816W        W16777   1.681  20.372   3.570
12817W        W16778   1.662  20.088   3.048
12818W        W16779   0.071  19.479   3.570
12819W        W16780   2.903  21.014   3.169
12820W        W16781   0.484  18.596   1.167
12821W        W16782   1.011  20.854   2.166
12822W        W16783   3.474  20.637   1.456
12823W        W16784   2.887  19.037   2.023
12824W        W16785   3.172  18.990   0.118
12825W        W16786   3.637  19.791   2.424
12826W        W16787   1.604  21.498   2.177
12827W        W16788   3.378  20.964   0.615
12828W        W16789   0.507  21.750   0.369
12829W        W16790   0.900  21.796   1.045
12830W        W16791   0.697  18.550   2.471
12831W        W16792   3.320  19.568   2.746
12832W        W16793   2.725  19.990   1.205
12833W        W16794   2.691  19.678   0.232
12834W        W16795   1.899  20.822   2.372
12835W        W16796   1.705  19.152   1.571
12836W        W16797   2.305  21.239   2.565
12837W        W16798   3.176  20.030   0.987
12838W        W16799   2.078  18.688   1.003
12839W        W16800   0.735  21.382   0.686
12840W        W16801   0.106  18.881   1.285
12841W        W16802   2.892  19.488   1.759
12842W        W16803   0.350  21.105   1.674
12843W        W16804   1.691  21.455   0.544
12844W        W16805   0.106  21.239   2.172
12845W        W16806   0.897  20.811   2.652
12846W        W16807   1.270  20.171   1.271
12847W        W16808   1.292  18.576   2.364
12848W        W16809   3.521  18.338   1.661
12849W        W16810   0.740  20.210   0.129
12850W        W16811   0.395  19.243   0.308
12851W        W16812   0.457  21.199   1.102
12852W        W16813   1.588  20.682   1.350
12853W        W16814   2.920  21.541   3.064
12854W        W16815   1.846  19.183   0.748
12855W        W16816   3.229  21.581   1.520
12856W        W16817   2.906  19.434   3.118
12857W        W16818   3.619  21.090   1.252
12858W        W16819   2.246  20.382   2.736
12859W        W16820   0.012  19.933   0.942
12860W        W16821   1.123  20.348   2.515
12861W        W16822   2.327  19.612   0.893
12862W        W16823   2.204  20.102   0.997
12863W        W16824   0.547  19.522   2.471
12864W        W16825   0.532  19.398   3.393
12865W        W16826   0.422  18.315   1.552
12866W        W16827   2.190  18.662   2.113
12867W        W16828   1.838  18.847   3.276
12868W        W16829   2.193  18.996   0.454
12869W        W16830   3.376  21.389   3.208
12870W        W16831   2.343  18.470   3.247
12871W        W16832   3.362  20.771   3.369
12872W        W16833   2.792  18.938   2.965
12873W        W16834   2.592  18.876   1.235
12874W        W16835   2.985  20.010   3.639
12875W        W16836   0.725  21.586   1.625
12876W        W16837   1.383  19.303   0.611
12877W        W16838   0.952  18.587   3.275
12878W        W16839   3.004  19.071   0.956
12879W        W16840   3.371  19.553   0.901
12880W        W16841   1.114  21.770   3.372
12881W        W16842   1.040  18.306   0.607
12882W        W16843   3.361  18.840   1.642
12883W        W16844   3.511  21.089   0.087
12884W        W16845   0.418  20.292   1.789
12885W        W16846   2.335  18.879   0.019
12886W        W16847   3.469  21.211   1.739
12887W        W16848   3.508  18.405   2.489
12888W        W16849   1.953  19.617   3.043
12889W        W16850   2.046  20.956   0.746
12890W        W16851   2.446  20.250   3.486
12891W        W16852   2.120  18.227   1.795
12892W        W16853   0.732  19.130   1.858
12893W        W16854   0.286  20.330   2.632
12894W        W16855   2.145  21.523   1.338
12895W        W16856   3.339  19.120   2.210
12896W        W16857   1.976  21.467   2.977
12897W        W16858   3.319  20.526   0.182
12898W        W16859   1.754  20.009   1.243
12899W        W16860   3.606  18.520   2.984
12900W        W16861   1.755  20.355   2.578
12901W        W16862   1.972  19.241   2.023
12902W        W16863   2.824  19.539   0.861
12903W        W16864   3.111  19.272   0.503
12904W        W16865   2.920  21.312   0.892
12905W        W16866   2.754  20.915   1.688
12906W        W16867   2.650  19.994   0.666
12907W        W16868   2.083  20.204   1.652
12908W        W16869   2.964  19.992   1.719
12909W        W16870   0.339  19.007   2.143
12910W        W16871   3.117  20.059   2.970
12911W        W16872   3.468  21.677   2.116
12912W        W16873   1.398  21.121   1.518
12913W        W16874   2.405  21.654   2.842
12914W        W16875   2.399  18.984   2.606
12915W        W16876   1.606  21.692   2.667
12916W        W16877   3.303  18.646   1.133
12917W        W16878   3.094  19.965   2.434
12918W        W16879   0.077  19.286   2.472
12919W        W16880   2.937  19.081   1.490
12920W        W16881   3.348  19.232   3.267
12921W        W16882   2.233  20.931   1.485
12922W        W16883   1.489  21.522   1.098
12923W        W16884   0.604  18.702   0.356
12924W        W16885   1.708  18.356   2.166
12925W        W16886   0.736  21.476   0.014
12926W        W16887   1.110  19.942   0.765
12927W        W16888   1.764  20.571   3.078
12928W        W16889   1.594  18.929   1.068
12929W        W16890   2.950  18.526   1.496
12930W        W16891   2.670  21.808   1.824
12931W        W16892   2.082  21.456   2.164
12932W        W16893   1.478  20.493   2.125
12933W        W16894   3.248  21.216   2.251
12934W        W16895   0.942  18.719   1.020
12935W        W16896   1.464  21.016   1.980
12936W        W16897   0.947  18.947   0.045
12937W        W16898   1.748  19.556   2.439
12938W        W16899   2.596  18.422   2.309
12939W        W16900   0.016  20.265   2.194
12940W        W16901   1.720  20.083   0.352
12941W        W16902   0.988  18.398   0.122
12942W        W16903   1.726  19.479   1.173
12943W        W16904   2.696  18.455   2.872
12944W        W16905   1.284  20.467   2.981
12945W        W16906   2.088  20.249   3.198
12946W        W16907   2.705  20.279   3.091
12947W        W16908   1.989  18.419   3.596
12948W        W16909   1.211  19.035   1.989
12949W        W16910   0.637  18.991   1.387
12950W        W16911   0.423  21.703   1.063
12951W        W16912   1.755  21.033   3.188
12952W        W16913   0.790  20.518   0.547
12953W        W16914   2.470  19.903   1.768
12954W        W16915   2.750  19.702   2.167
12955W        W16916   1.955  20.376   2.101
12956W        W16917   2.425  20.750   0.233
12957W        W16918   2.097  18.771   1.561
12958W        W16919   3.576  19.049   0.829
12959W        W16920   0.070  21.638   2.860
12960W        W16921   0.487  20.864   2.392
12961W        W16922   0.054  21.710   0.624
12962W        W16923   1.953  18.980   2.430
12963W        W16924   1.316  21.003   0.279
12964W        W16925   3.221  21.385   0.465
12965W        W16926   2.196  20.038   0.479
12966W        W16927   1.039  19.229   0.996
12967W        W16928   1.871  19.139   0.048
12968W        W16929   2.455  20.704   3.226
12969W        W16930   2.808  18.610   0.843
12970W        W16931   0.138  18.458   0.291
12971W        W16932   1.424  20.777   2.581
12972W        W16933   1.223  20.693   1.673
12973W        W16934   0.965  20.645   0.071
12974W        W16935   0.206  20.886   0.839
12975W        W16936   0.710  19.956   3.281
12976W        W16937   1.414  18.516   3.467
12977W        W16938   2.123  18.658   2.823
12978W        W16939   1.318  18.426   1.104
12979W        W16940   2.377  18.503   0.609
12980W        W16941   0.322  18.435   2.186
12981W        W16942   0.370  19.398   1.556
12982W        W16943   3.059  18.506   1.962
12983W        W16944   0.481  19.004   0.776
12984W        W16945   3.052  18.692   2.392
12985W        W16946   3.448  19.895   0.077
12986W        W16947   0.740  18.653   1.896
12987W        W16948   1.854  19.225   2.836
12988W        W16949   0.002  18.915   0.314
12989W        W16950   0.788  20.304   2.875
12990W        W16951   2.146  19.702   2.054
12991W        W16952   2.013  21.781   0.350
12992W        W16953   0.159  20.288   0.047
12993W        W16954   0.894  20.699   3.173
12994W        W16955   0.415  19.866   2.804
12995W        W16956   1.406  19.971   2.598
12996W        W16957   3.174  18.330   2.860
12997W        W16958   3.572  19.940   2.851
12998W        W16959   3.560  20.140   0.537
12999W        W16960   2.423  20.472   0.636
13000W        W16961   2.897  21.772   0.331
13001W        W16962   2.074  19.762   3.473
13002W        W16963   0.404  20.729   3.513
13003W        W16964   3.610  18.651   3.465
13004W        W16965   3.328  19.579   2.086
13005W        W16966   1.636  21.709   3.563
13006W        W16967   1.491  18.338   0.290
13007W        W16968   3.030  20.937   0.233
13008W        W16969   0.799  19.030   3.119
13009W        W16970   1.233  21.024   2.981
13010W        W16971   3.359  19.015   2.779
13011W        W16972   2.570  21.674   0.747
13012W        W16973   2.809  20.293   2.114
13013W        W16974   1.059  18.709   2.781
13014W        W16975   1.528  19.778   3.538
13015W        W16976   1.031  20.957   0.732
13016W        W16977   2.786  20.455   0.996
13017W        W16978   0.554  19.081   2.720
13018W        W16979   1.883  21.143   1.184
13019W        W16980   3.633  19.703   1.365
13020W        W16981   1.855  18.336   3.084
13021W        W16982   2.635  21.041   2.163
13022W        W16983   2.938  21.385   1.871
13023W        W16984   2.157  21.187   0.299
13024W        W16985   0.167  21.079   3.141
13025W        W16986   0.910  19.071   2.379
13026W        W16987   0.880  18.419   1.489
13027W        W16988   2.501  19.261   2.181
13028W        W16989   1.299  20.432   0.381
13029W        W16990   3.297  20.374   1.880
13030W        W16991   0.624  21.132   3.303
13031W        W16992   3.011  21.814   1.100
13032W        W16993   1.110  18.834   1.545
13033W        W16994   0.879  20.327   1.635
13034W        W16995   1.192  21.738   2.385
13035W        W16996   3.259  21.834   3.417
13036W        W16997   2.418  20.022   2.350
13037W        W16998   0.267  19.820   0.265
13038W        W16999   3.401  21.478   0.962
13039W        W17000   3.238  18.802   0.581
13040W        W17001   1.377  18.321   2.984
13041W        W17002   3.083  21.123   1.442
13042W        W17003   3.112  19.679   1.347
13043W        W17004   1.229  19.352   1.563
13044W        W17005   1.474  19.614   2.887
13045W        W17006   2.585  20.767   2.750
13046W        W17007   1.235  19.221   2.862
13047W        W17008   1.214  21.687   1.478
13048W        W17009   0.531  21.646   3.112
13049W        W17010   0.643  21.007   0.242
13050W        W17011   3.160  20.765   1.052
13051W        W17012   0.764  19.557   2.938
13052W        W17013   3.537  19.487   0.419
13053W        W17014   1.282  20.544   0.890
13054W        W17015   2.381  19.926   2.971
13055W        W17016   2.272  19.554   2.515
13056W        W17017   0.832  19.926   2.544
13057W        W17018   3.042  21.814   2.373
13058W        W17019   2.833  18.448   3.367
13059W        W17020   0.497  18.598   2.954
13060W        W17021   0.836  19.621   2.007
13061W        W17022   1.205  19.435   0.129
13062W        W17023   0.008  21.194   2.674
13063W        W17024   1.593  19.903   2.117
13064W        W17025   1.416  18.928   0.222
13065W        W17026   0.551  19.744   1.003
13066W        W17027   0.322  21.596   2.440
13067W        W17028   3.117  19.822   0.548
13068W        W17029   3.212  18.738   3.234
13069W        W17030   2.648  20.947   1.197
13070W        W17031   0.246  19.871   3.374
13071W        W17032   3.212  18.335   0.670
13072W        W17033   2.732  20.810   0.681
13073W        W17034   1.634  19.868   0.766
13074W        W17035   2.821  18.672   0.289
13075W        W17036   2.886  19.279   2.475
13076W        W17037   0.595  19.872   1.682
13077W        W17038   0.889  20.811   1.331
13078W        W17039   2.652  19.431   1.296
13079W        W17040   1.675  18.810   1.992
13080W        W17041   3.637  20.721   2.503
13081W        W17042   3.555  18.708   2.064
13082W        W17043   0.094  21.538   1.440
13083W        W17044   0.603  20.725   0.976
13084W        W17045   0.518  18.342   3.529
13085W        W17046   1.637  21.195   3.631
13086W        W17047   3.392  20.163   1.421
13087W        W17048   2.746  20.340   0.301
13088W        W17049   2.041  21.861   2.513
13089W        W17050   2.898  20.583   3.550
13090W        W17051   1.713  18.293   0.830
13091W        W17052   2.426  19.162   1.689
13092W        W17053   0.112  20.749   2.021
13093W        W17054   1.365  18.711   0.662
13094W        W17055   1.169  20.195   3.511
13095W        W17056   2.163  19.176   1.225
13096W        W17057   2.368  20.586   2.347
13097W        W17058   0.522  21.191   2.782
13098W        W17059   1.113  21.174   3.505
13099W        W17060   0.964  18.971   0.519
13100W        W17061   2.481  19.113   0.844
13101W        W17062   2.439  21.221   3.081
13102W        W17063   1.124  19.813   1.680
13103W        W17064   0.779  21.511   2.545
13104W        W17065   3.524  21.628   0.146
13105W        W17066   0.387  20.300   3.142
13106W        W17067   2.382  20.562   1.830
13107W        W17068   0.818  20.211   1.072
13108W        W17069   1.189  21.218   2.467
13109W        W17070   1.567  18.637   1.508
13110W        W17071   0.178  20.621   0.438
13111W        W17072   1.697  19.572   0.308
13112W        W17073   0.343  20.121   1.327
13113W        W17074   1.633  18.763   2.791
13114W        W17075   3.305  18.472   0.218
13115W        W17076   3.398  20.218   3.317
13116W        W17077   2.052  21.475   3.469
13117W        W17078   3.610  20.569   2.991
13118W        W17079   3.018  21.367   3.602
13119W        W17080   0.757  21.823   2.080
13120W        W17081   3.616  20.445   0.954
13121W        W17082   2.146  19.712   1.467
13122W        W17083   1.913  18.324   1.357
13123W        W17084   0.972  21.308   1.194
13124W        W17085   1.471  19.049   2.419
13125W        W17086   1.171  18.418   1.888
13126W        W17087   0.234  21.240   0.436
13127W        W17088   2.050  20.604   1.154
13128W        W17089   0.925  21.399   3.033
13129W        W17090   0.402  20.222   0.729
13130W        W17091   0.287  18.765   1.728
13131W        W17092   1.835  20.730   1.785
13132W        W17093   0.087  18.584   0.805
13133W        W17094   2.751  19.790   2.732
13134W        W17095   2.628  19.176   0.304
13135W        W17096   3.145  20.848   1.952
13136W        W17097   1.806  21.332   1.783
13137W        W17098   1.218  21.436   0.694
13138W        W17099   2.500  18.339   0.124
13139W        W17100   0.300  21.599   1.865
13140W        W17101   2.497  19.357   3.500
13141W        W17102   0.480  18.887   3.499
13142W        W17103   0.211  19.487   0.832
13143W        W17104   0.902  19.476   0.557
13144W        W17105   2.665  19.803   3.374
13145W        W17106   1.008  20.084   2.083
13146W        W17107   2.482  18.370   1.203
13147W        W17108   1.613  21.801   1.706
13148W        W17109   2.827  21.263   2.643
13149W        W17110   2.411  21.412   1.754
13150W        W17111   2.430  20.392   1.348
13151W        W17112   1.892  18.617   0.419
13152W        W17113   3.573  18.245   1.141
13153W        W17114   1.261  19.880   0.304
13154W        W17115   3.427  19.217   1.294
13155W        W17116   2.119  20.387   0.171
13156W        W17117   3.055  20.587   2.919
13157W        W17118   2.709  21.288   0.386
13158W        W17119   1.324  18.963   3.292
13159W        W17120   1.144  19.547   2.533
13160W        W17121   3.236  21.042   2.810
13161W        W17122   2.336  18.992   3.187
13162W        W17123   0.180  19.463   2.964
13163W        W17124   1.940  19.940   2.690
13164W        W17125   0.297  20.698   1.347
13165W        W17126   0.444  19.995   2.237
13166W        W17127   2.761  20.281   2.587
13167W        W17128   2.533  21.661   3.398
13168W        W17129   2.429  19.400   2.951
13169W        W17130   2.706  21.454   1.356
13170W        W17131   1.708  21.174   2.679
13171W        W17132   1.193  21.529   1.948
13172W        W17133   2.998  20.700   2.367
13173W        W17134   2.048  20.772   3.504
13174W        W17135   0.653  20.725   1.843
13175W        W17136   2.999  20.484   1.488
13176W        W17137   2.640  21.550   2.239
13177W        W17138   0.618  21.279   2.109
13178W        W17139   1.639  19.331   3.319
13179W        W17140   2.090  21.497   0.830
13180W        W17141   1.398  20.752   3.468
13181W        W17142   1.524  20.990   0.845
13182W        W17143   0.745  19.730   0.104
13183W        W17144   0.084  21.816   7.003
13184W        W17145   0.460  20.709   6.526
13185W        W17146   3.165  20.439   4.296
13186W        W17147   3.295  21.524   6.323
13187W        W17148   1.213  21.515   3.849
13188W        W17149   1.296  19.667   4.832
13189W        W17150   0.811  19.515   4.996
13190W        W17151   1.802  20.330   4.430
13191W        W17152   1.477  21.422   6.785
13192W        W17153   0.126  18.983   6.748
13193W        W17154   0.888  18.263   6.550
13194W        W17155   2.582  18.651   5.437
13195W        W17156   2.231  19.522   4.007
13196W        W17157   2.801  18.956   7.098
13197W        W17158   0.167  18.748   6.223
13198W        W17159   0.266  21.367   7.244
13199W        W17160   1.788  20.757   3.976
13200W        W17161   0.220  19.540   5.669
13201W        W17162   1.113  19.431   6.906
13202W        W17163   3.572  19.290   5.405
13203W        W17164   3.336  20.333   6.264
13204W        W17165   1.644  19.666   5.291
13205W        W17166   2.190  21.005   5.660
13206W        W17167   0.690  20.439   5.892
13207W        W17168   0.049  19.967   5.463
13208W        W17169   1.085  19.939   6.655
13209W        W17170   3.356  19.722   6.909
13210W        W17171   0.972  21.166   5.354
13211W        W17172   2.093  20.855   6.488
13212W        W17173   1.313  19.495   5.713
13213W        W17174   1.605  20.279   5.356
13214W        W17175   2.602  21.052   7.204
13215W        W17176   1.681  20.372   7.214
13216W        W17177   1.662  20.088   6.692
13217W        W17178   0.071  19.479   7.214
13218W        W17179   2.903  21.014   6.813
13219W        W17180   0.484  18.596   4.811
13220W        W17181   1.011  20.854   5.810
13221W        W17182   3.474  20.637   5.100
13222W        W17183   2.887  19.037   5.667
13223W        W17184   3.172  18.990   3.762
13224W        W17185   3.637  19.791   6.068
13225W        W17186   1.604  21.498   5.821
13226W        W17187   3.378  20.964   4.259
13227W        W17188   0.507  21.750   4.013
13228W        W17189   0.900  21.796   4.689
13229W        W17190   0.697  18.550   6.115
13230W        W17191   3.320  19.568   6.390
13231W        W17192   2.725  19.990   4.849
13232W        W17193   2.691  19.678   3.876
13233W        W17194   1.899  20.822   6.016
13234W        W17195   1.705  19.152   5.215
13235W        W17196   2.305  21.239   6.209
13236W        W17197   3.176  20.030   4.631
13237W        W17198   2.078  18.688   4.647
13238W        W17199   0.735  21.382   4.330
13239W        W17200   0.106  18.881   4.929
13240W        W17201   2.892  19.488   5.403
13241W        W17202   0.350  21.105   5.318
13242W        W17203   1.691  21.455   4.188
13243W        W17204   3.083  19.481   3.652
13244W        W17205   0.106  21.239   5.816
13245W        W17206   0.897  20.811   6.296
13246W        W17207   1.270  20.171   4.915
13247W        W17208   1.292  18.576   6.008
13248W        W17209   3.521  18.338   5.305
13249W        W17210   0.740  20.210   3.773
13250W        W17211   0.395  19.243   3.952
13251W        W17212   0.457  21.199   4.746
13252W        W17213   1.588  20.682   4.994
13253W        W17214   2.920  21.541   6.708
13254W        W17215   1.846  19.183   4.392
13255W        W17216   3.229  21.581   5.164
13256W        W17217   2.906  19.434   6.762
13257W        W17218   3.619  21.090   4.896
13258W        W17219   2.246  20.382   6.380
13259W        W17220   0.012  19.933   4.586
13260W        W17221   1.123  20.348   6.159
13261W        W17222   2.327  19.612   4.537
13262W        W17223   2.204  20.102   4.641
13263W        W17224   0.547  19.522   6.115
13264W        W17225   0.532  19.398   7.037
13265W        W17226   0.422  18.315   5.196
13266W        W17227   2.190  18.662   5.757
13267W        W17228   1.838  18.847   6.920
13268W        W17229   2.193  18.996   4.098
13269W        W17230   3.376  21.389   6.852
13270W        W17231   2.343  18.470   6.891
13271W        W17232   3.362  20.771   7.013
13272W        W17233   2.792  18.938   6.609
13273W        W17234   2.592  18.876   4.879
13274W        W17235   2.985  20.010   7.283
13275W        W17236   0.725  21.586   5.269
13276W        W17237   1.383  19.303   4.255
13277W        W17238   0.952  18.587   6.919
13278W        W17239   3.004  19.071   4.600
13279W        W17240   3.371  19.553   4.545
13280W        W17241   1.114  21.770   7.016
13281W        W17242   1.040  18.306   4.251
13282W        W17243   3.361  18.840   5.286
13283W        W17244   3.511  21.089   3.731
13284W        W17245   0.418  20.292   5.433
13285W        W17246   2.335  18.879   3.663
13286W        W17247   3.469  21.211   5.383
13287W        W17248   3.508  18.405   6.133
13288W        W17249   1.953  19.617   6.687
13289W        W17250   2.046  20.956   4.390
13290W        W17251   2.446  20.250   7.130
13291W        W17252   2.120  18.227   5.439
13292W        W17253   0.732  19.130   5.502
13293W        W17254   0.286  20.330   6.276
13294W        W17255   2.145  21.523   4.982
13295W        W17256   3.339  19.120   5.854
13296W        W17257   1.976  21.467   6.621
13297W        W17258   3.319  20.526   3.826
13298W        W17259   1.754  20.009   4.887
13299W        W17260   3.606  18.520   6.628
13300W        W17261   1.755  20.355   6.222
13301W        W17262   1.972  19.241   5.667
13302W        W17263   2.824  19.539   4.505
13303W        W17264   3.111  19.272   4.147
13304W        W17265   2.920  21.312   4.536
13305W        W17266   2.754  20.915   5.332
13306W        W17267   2.650  19.994   4.310
13307W        W17268   2.083  20.204   5.296
13308W        W17269   2.964  19.992   5.363
13309W        W17270   0.339  19.007   5.787
13310W        W17271   3.117  20.059   6.614
13311W        W17272   3.468  21.677   5.760
13312W        W17273   1.398  21.121   5.162
13313W        W17274   2.405  21.654   6.486
13314W        W17275   2.399  18.984   6.250
13315W        W17276   1.606  21.692   6.311
13316W        W17277   3.303  18.646   4.777
13317W        W17278   3.094  19.965   6.078
13318W        W17279   0.077  19.286   6.116
13319W        W17280   2.937  19.081   5.134
13320W        W17281   3.348  19.232   6.911
13321W        W17282   2.233  20.931   5.129
13322W        W17283   1.489  21.522   4.742
13323W        W17284   0.604  18.702   4.000
13324W        W17285   1.708  18.356   5.810
13325W        W17286   0.736  21.476   3.658
13326W        W17287   1.110  19.942   4.409
13327W        W17288   1.764  20.571   6.722
13328W        W17289   1.594  18.929   4.712
13329W        W17290   2.950  18.526   5.140
13330W        W17291   2.670  21.808   5.468
13331W        W17292   2.082  21.456   5.808
13332W        W17293   1.478  20.493   5.769
13333W        W17294   3.248  21.216   5.895
13334W        W17295   0.942  18.719   4.664
13335W        W17296   1.464  21.016   5.624
13336W        W17297   0.947  18.947   3.689
13337W        W17298   1.748  19.556   6.083
13338W        W17299   2.596  18.422   5.953
13339W        W17300   0.016  20.265   5.838
13340W        W17301   1.720  20.083   3.996
13341W        W17302   0.988  18.398   3.766
13342W        W17303   1.726  19.479   4.817
13343W        W17304   2.696  18.455   6.516
13344W        W17305   1.284  20.467   6.625
13345W        W17306   2.088  20.249   6.842
13346W        W17307   2.705  20.279   6.735
13347W        W17308   1.989  18.419   7.240
13348W        W17309   1.211  19.035   5.633
13349W        W17310   0.637  18.991   5.031
13350W        W17311   0.423  21.703   4.707
13351W        W17312   1.755  21.033   6.832
13352W        W17313   0.790  20.518   4.191
13353W        W17314   2.470  19.903   5.412
13354W        W17315   2.750  19.702   5.811
13355W        W17316   1.955  20.376   5.745
13356W        W17317   2.425  20.750   3.877
13357W        W17318   2.097  18.771   5.205
13358W        W17319   3.576  19.049   4.473
13359W        W17320   0.070  21.638   6.504
13360W        W17321   0.487  20.864   6.036
13361W        W17322   0.054  21.710   4.268
13362W        W17323   1.953  18.980   6.074
13363W        W17324   1.316  21.003   3.923
13364W        W17325   3.221  21.385   4.109
13365W        W17326   2.196  20.038   4.123
13366W        W17327   1.039  19.229   4.640
13367W        W17328   1.871  19.139   3.692
13368W        W17329   2.455  20.704   6.870
13369W        W17330   2.808  18.610   4.487
13370W        W17331   0.138  18.458   3.935
13371W        W17332   1.424  20.777   6.225
13372W        W17333   1.223  20.693   5.317
13373W        W17334   0.965  20.645   3.715
13374W        W17335   0.206  20.886   4.483
13375W        W17336   0.710  19.956   6.925
13376W        W17337   1.414  18.516   7.111
13377W        W17338   2.123  18.658   6.467
13378W        W17339   1.318  18.426   4.748
13379W        W17340   2.377  18.503   4.253
13380W        W17341   0.322  18.435   5.830
13381W        W17342   0.370  19.398   5.200
13382W        W17343   3.059  18.506   5.606
13383W        W17344   0.481  19.004   4.420
13384W        W17345   3.052  18.692   6.036
13385W        W17346   3.448  19.895   3.721
13386W        W17347   0.740  18.653   5.540
13387W        W17348   1.854  19.225   6.480
13388W        W17349   0.002  18.915   3.958
13389W        W17350   0.788  20.304   6.519
13390W        W17351   2.146  19.702   5.698
13391W        W17352   2.013  21.781   3.994
13392W        W17353   0.159  20.288   3.691
13393W        W17354   0.894  20.699   6.817
13394W        W17355   0.415  19.866   6.448
13395W        W17356   1.406  19.971   6.242
13396W        W17357   3.174  18.330   6.504
13397W        W17358   3.572  19.940   6.495
13398W        W17359   3.560  20.140   4.181
13399W        W17360   2.423  20.472   4.280
13400W        W17361   2.897  21.772   3.975
13401W        W17362   2.074  19.762   7.117
13402W        W17363   0.404  20.729   7.157
13403W        W17364   3.610  18.651   7.109
13404W        W17365   3.328  19.579   5.730
13405W        W17366   1.636  21.709   7.207
13406W        W17367   1.491  18.338   3.934
13407W        W17368   3.030  20.937   3.877
13408W        W17369   0.799  19.030   6.763
13409W        W17370   1.233  21.024   6.625
13410W        W17371   3.359  19.015   6.423
13411W        W17372   2.570  21.674   4.391
13412W        W17373   2.809  20.293   5.758
13413W        W17374   1.059  18.709   6.425
13414W        W17375   1.528  19.778   7.182
13415W        W17376   1.031  20.957   4.376
13416W        W17377   2.786  20.455   4.640
13417W        W17378   0.554  19.081   6.364
13418W        W17379   1.883  21.143   4.828
13419W        W17380   3.633  19.703   5.009
13420W        W17381   1.855  18.336   6.728
13421W        W17382   2.635  21.041   5.807
13422W        W17383   2.938  21.385   5.515
13423W        W17384   2.157  21.187   3.943
13424W        W17385   0.167  21.079   6.785
13425W        W17386   0.910  19.071   6.023
13426W        W17387   0.880  18.419   5.133
13427W        W17388   2.501  19.261   5.825
13428W        W17389   1.299  20.432   4.025
13429W        W17390   3.297  20.374   5.524
13430W        W17391   0.624  21.132   6.947
13431W        W17392   3.011  21.814   4.744
13432W        W17393   1.110  18.834   5.189
13433W        W17394   0.879  20.327   5.279
13434W        W17395   1.192  21.738   6.029
13435W        W17396   3.259  21.834   7.061
13436W        W17397   2.418  20.022   5.994
13437W        W17398   0.267  19.820   3.909
13438W        W17399   3.401  21.478   4.606
13439W        W17400   3.238  18.802   4.225
13440W        W17401   1.377  18.321   6.628
13441W        W17402   3.083  21.123   5.086
13442W        W17403   3.112  19.679   4.991
13443W        W17404   1.229  19.352   5.207
13444W        W17405   1.474  19.614   6.531
13445W        W17406   2.585  20.767   6.394
13446W        W17407   1.235  19.221   6.506
13447W        W17408   1.214  21.687   5.122
13448W        W17409   0.531  21.646   6.756
13449W        W17410   0.643  21.007   3.886
13450W        W17411   3.160  20.765   4.696
13451W        W17412   0.764  19.557   6.582
13452W        W17413   3.537  19.487   4.063
13453W        W17414   1.282  20.544   4.534
13454W        W17415   2.381  19.926   6.615
13455W        W17416   2.272  19.554   6.159
13456W        W17417   0.832  19.926   6.188
13457W        W17418   3.042  21.814   6.017
13458W        W17419   2.833  18.448   7.011
13459W        W17420   0.497  18.598   6.598
13460W        W17421   0.836  19.621   5.651
13461W        W17422   1.205  19.435   3.773
13462W        W17423   0.008  21.194   6.318
13463W        W17424   1.593  19.903   5.761
13464W        W17425   1.416  18.928   3.866
13465W        W17426   0.551  19.744   4.647
13466W        W17427   0.322  21.596   6.084
13467W        W17428   3.117  19.822   4.192
13468W        W17429   3.212  18.738   6.878
13469W        W17430   2.648  20.947   4.841
13470W        W17431   0.246  19.871   7.018
13471W        W17432   3.212  18.335   4.314
13472W        W17433   2.732  20.810   4.325
13473W        W17434   1.634  19.868   4.410
13474W        W17435   2.821  18.672   3.933
13475W        W17436   2.886  19.279   6.119
13476W        W17437   0.595  19.872   5.326
13477W        W17438   0.889  20.811   4.975
13478W        W17439   2.652  19.431   4.940
13479W        W17440   1.675  18.810   5.636
13480W        W17441   3.637  20.721   6.147
13481W        W17442   3.555  18.708   5.708
13482W        W17443   0.094  21.538   5.084
13483W        W17444   0.603  20.725   4.620
13484W        W17445   0.518  18.342   7.173
13485W        W17446   1.637  21.195   7.275
13486W        W17447   3.392  20.163   5.065
13487W        W17448   2.746  20.340   3.945
13488W        W17449   2.041  21.861   6.157
13489W        W17450   2.898  20.583   7.194
13490W        W17451   1.713  18.293   4.474
13491W        W17452   2.426  19.162   5.333
13492W        W17453   0.112  20.749   5.665
13493W        W17454   1.365  18.711   4.306
13494W        W17455   1.169  20.195   7.155
13495W        W17456   2.163  19.176   4.869
13496W        W17457   2.368  20.586   5.991
13497W        W17458   0.522  21.191   6.426
13498W        W17459   1.113  21.174   7.149
13499W        W17460   0.964  18.971   4.163
13500W        W17461   2.481  19.113   4.488
13501W        W17462   2.439  21.221   6.725
13502W        W17463   1.124  19.813   5.324
13503W        W17464   0.779  21.511   6.189
13504W        W17465   3.524  21.628   3.790
13505W        W17466   0.387  20.300   6.786
13506W        W17467   2.382  20.562   5.474
13507W        W17468   0.818  20.211   4.716
13508W        W17469   1.189  21.218   6.111
13509W        W17470   1.567  18.637   5.152
13510W        W17471   0.178  20.621   4.082
13511W        W17472   1.697  19.572   3.952
13512W        W17473   0.343  20.121   4.971
13513W        W17474   1.633  18.763   6.435
13514W        W17475   3.305  18.472   3.862
13515W        W17476   3.398  20.218   6.961
13516W        W17477   2.052  21.475   7.113
13517W        W17478   3.610  20.569   6.635
13518W        W17479   3.018  21.367   7.246
13519W        W17480   0.757  21.823   5.724
13520W        W17481   3.616  20.445   4.598
13521W        W17482   2.146  19.712   5.111
13522W        W17483   1.913  18.324   5.001
13523W        W17484   0.972  21.308   4.838
13524W        W17485   1.471  19.049   6.063
13525W        W17486   1.171  18.418   5.532
13526W        W17487   0.234  21.240   4.080
13527W        W17488   2.050  20.604   4.798
13528W        W17489   0.925  21.399   6.677
13529W        W17490   0.402  20.222   4.373
13530W        W17491   0.287  18.765   5.372
13531W        W17492   1.835  20.730   5.429
13532W        W17493   0.087  18.584   4.449
13533W        W17494   2.751  19.790   6.376
13534W        W17495   2.628  19.176   3.948
13535W        W17496   3.145  20.848   5.596
13536W        W17497   1.806  21.332   5.427
13537W        W17498   1.218  21.436   4.338
13538W        W17499   2.500  18.339   3.768
13539W        W17500   0.300  21.599   5.509
13540W        W17501   2.497  19.357   7.144
13541W        W17502   0.480  18.887   7.143
13542W        W17503   0.211  19.487   4.476
13543W        W17504   0.902  19.476   4.201
13544W        W17505   2.665  19.803   7.018
13545W        W17506   1.008  20.084   5.727
13546W        W17507   2.482  18.370   4.847
13547W        W17508   1.613  21.801   5.350
13548W        W17509   2.827  21.263   6.287
13549W        W17510   2.411  21.412   5.398
13550W        W17511   2.430  20.392   4.992
13551W        W17512   1.892  18.617   4.063
13552W        W17513   3.573  18.245   4.785
13553W        W17514   1.261  19.880   3.948
13554W        W17515   3.427  19.217   4.938
13555W        W17516   2.119  20.387   3.815
13556W        W17517   3.055  20.587   6.563
13557W        W17518   2.709  21.288   4.030
13558W        W17519   1.324  18.963   6.936
13559W        W17520   1.144  19.547   6.177
13560W        W17521   3.236  21.042   6.454
13561W        W17522   2.336  18.992   6.831
13562W        W17523   0.180  19.463   6.608
13563W        W17524   1.940  19.940   6.334
13564W        W17525   0.297  20.698   4.991
13565W        W17526   0.444  19.995   5.881
13566W        W17527   2.761  20.281   6.231
13567W        W17528   2.533  21.661   7.042
13568W        W17529   2.429  19.400   6.595
13569W        W17530   2.706  21.454   5.000
13570W        W17531   1.708  21.174   6.323
13571W        W17532   1.193  21.529   5.592
13572W        W17533   2.998  20.700   6.011
13573W        W17534   2.048  20.772   7.148
13574W        W17535   0.653  20.725   5.487
13575W        W17536   2.999  20.484   5.132
13576W        W17537   2.640  21.550   5.883
13577W        W17538   0.618  21.279   5.753
13578W        W17539   1.639  19.331   6.963
13579W        W17540   2.090  21.497   4.474
13580W        W17541   1.398  20.752   7.112
13581W        W17542   1.524  20.990   4.489
13582W        W17543   0.745  19.730   3.748
13583W        W17544   0.084  21.816  10.648
13584W        W17545   0.460  20.709  10.171
13585W        W17546   3.165  20.439   7.941
13586W        W17547   3.295  21.524   9.968
13587W        W17548   1.213  21.515   7.494
13588W        W17549   1.296  19.667   8.477
13589W        W17550   0.811  19.515   8.641
13590W        W17551   1.802  20.330   8.075
13591W        W17552   1.477  21.422  10.430
13592W        W17553   0.126  18.983  10.393
13593W        W17554   0.888  18.263  10.195
13594W        W17555   2.582  18.651   9.082
13595W        W17556   2.231  19.522   7.652
13596W        W17557   2.801  18.956  10.743
13597W        W17558   0.167  18.748   9.868
13598W        W17559   0.266  21.367  10.889
13599W        W17560   1.788  20.757   7.621
13600W        W17561   0.220  19.540   9.314
13601W        W17562   1.113  19.431  10.551
13602W        W17563   3.572  19.290   9.050
13603W        W17564   3.336  20.333   9.909
13604W        W17565   1.644  19.666   8.936
13605W        W17566   2.190  21.005   9.305
13606W        W17567   0.690  20.439   9.537
13607W        W17568   0.049  19.967   9.108
13608W        W17569   1.085  19.939  10.300
13609W        W17570   3.356  19.722  10.554
13610W        W17571   0.972  21.166   8.999
13611W        W17572   2.093  20.855  10.133
13612W        W17573   1.313  19.495   9.358
13613W        W17574   1.605  20.279   9.001
13614W        W17575   2.602  21.052  10.849
13615W        W17576   1.681  20.372  10.859
13616W        W17577   1.662  20.088  10.337
13617W        W17578   0.071  19.479  10.859
13618W        W17579   2.903  21.014  10.458
13619W        W17580   0.484  18.596   8.456
13620W        W17581   1.011  20.854   9.455
13621W        W17582   3.474  20.637   8.745
13622W        W17583   2.887  19.037   9.312
13623W        W17584   3.172  18.990   7.407
13624W        W17585   3.637  19.791   9.713
13625W        W17586   1.604  21.498   9.466
13626W        W17587   3.378  20.964   7.904
13627W        W17588   0.507  21.750   7.658
13628W        W17589   0.900  21.796   8.334
13629W        W17590   0.697  18.550   9.760
13630W        W17591   3.320  19.568  10.035
13631W        W17592   2.725  19.990   8.494
13632W        W17593   2.691  19.678   7.521
13633W        W17594   1.899  20.822   9.661
13634W        W17595   1.705  19.152   8.860
13635W        W17596   2.305  21.239   9.854
13636W        W17597   3.176  20.030   8.276
13637W        W17598   2.078  18.688   8.292
13638W        W17599   0.735  21.382   7.975
13639W        W17600   0.106  18.881   8.574
13640W        W17601   2.892  19.488   9.048
13641W        W17602   0.350  21.105   8.963
13642W        W17603   1.691  21.455   7.833
13643W        W17604   3.083  19.481   7.297
13644W        W17605   0.106  21.239   9.461
13645W        W17606   0.897  20.811   9.941
13646W        W17607   1.270  20.171   8.560
13647W        W17608   1.292  18.576   9.653
13648W        W17609   3.521  18.338   8.950
13649W        W17610   0.740  20.210   7.418
13650W        W17611   0.395  19.243   7.597
13651W        W17612   0.457  21.199   8.391
13652W        W17613   1.588  20.682   8.639
13653W        W17614   1.846  19.183   8.037
13654W        W17615   3.229  21.581   8.809
13655W        W17616   2.906  19.434  10.407
13656W        W17617   3.619  21.090   8.541
13657W        W17618   2.246  20.382  10.025
13658W        W17619   0.012  19.933   8.231
13659W        W17620   1.123  20.348   9.804
13660W        W17621   2.327  19.612   8.182
13661W        W17622   2.204  20.102   8.286
13662W        W17623   0.547  19.522   9.760
13663W        W17624   0.532  19.398  10.682
13664W        W17625   0.422  18.315   8.841
13665W        W17626   2.190  18.662   9.402
13666W        W17627   1.838  18.847  10.565
13667W        W17628   2.193  18.996   7.743
13668W        W17629   3.376  21.389  10.497
13669W        W17630   2.343  18.470  10.536
13670W        W17631   3.362  20.771  10.658
13671W        W17632   2.792  18.938  10.254
13672W        W17633   2.592  18.876   8.524
13673W        W17634   2.985  20.010  10.928
13674W        W17635   0.725  21.586   8.914
13675W        W17636   1.383  19.303   7.900
13676W        W17637   0.952  18.587  10.564
13677W        W17638   3.004  19.071   8.245
13678W        W17639   3.371  19.553   8.190
13679W        W17640   1.114  21.770  10.661
13680W        W17641   1.040  18.306   7.896
13681W        W17642   3.361  18.840   8.931
13682W        W17643   3.511  21.089   7.376
13683W        W17644   0.418  20.292   9.078
13684W        W17645   2.335  18.879   7.308
13685W        W17646   3.469  21.211   9.028
13686W        W17647   3.508  18.405   9.778
13687W        W17648   1.953  19.617  10.332
13688W        W17649   2.046  20.956   8.035
13689W        W17650   2.446  20.250  10.775
13690W        W17651   2.120  18.227   9.084
13691W        W17652   0.732  19.130   9.147
13692W        W17653   0.286  20.330   9.921
13693W        W17654   2.145  21.523   8.627
13694W        W17655   3.339  19.120   9.499
13695W        W17656   1.976  21.467  10.266
13696W        W17657   3.319  20.526   7.471
13697W        W17658   1.754  20.009   8.532
13698W        W17659   3.606  18.520  10.273
13699W        W17660   1.755  20.355   9.867
13700W        W17661   1.972  19.241   9.312
13701W        W17662   2.824  19.539   8.150
13702W        W17663   3.111  19.272   7.792
13703W        W17664   2.920  21.312   8.181
13704W        W17665   2.754  20.915   8.977
13705W        W17666   2.650  19.994   7.955
13706W        W17667   2.083  20.204   8.941
13707W        W17668   2.964  19.992   9.008
13708W        W17669   0.339  19.007   9.432
13709W        W17670   3.117  20.059  10.259
13710W        W17671   3.468  21.677   9.405
13711W        W17672   1.398  21.121   8.807
13712W        W17673   2.405  21.654  10.131
13713W        W17674   2.399  18.984   9.895
13714W        W17675   1.606  21.692   9.956
13715W        W17676   3.303  18.646   8.422
13716W        W17677   3.094  19.965   9.723
13717W        W17678   0.077  19.286   9.761
13718W        W17679   2.937  19.081   8.779
13719W        W17680   3.348  19.232  10.556
13720W        W17681   2.233  20.931   8.774
13721W        W17682   1.489  21.522   8.387
13722W        W17683   0.604  18.702   7.645
13723W        W17684   1.708  18.356   9.455
13724W        W17685   0.736  21.476   7.303
13725W        W17686   1.110  19.942   8.054
13726W        W17687   1.764  20.571  10.367
13727W        W17688   1.594  18.929   8.357
13728W        W17689   2.950  18.526   8.785
13729W        W17690   2.670  21.808   9.113
13730W        W17691   2.082  21.456   9.453
13731W        W17692   1.478  20.493   9.414
13732W        W17693   3.248  21.216   9.540
13733W        W17694   0.942  18.719   8.309
13734W        W17695   1.464  21.016   9.269
13735W        W17696   0.947  18.947   7.334
13736W        W17697   1.748  19.556   9.728
13737W        W17698   2.596  18.422   9.598
13738W        W17699   0.016  20.265   9.483
13739W        W17700   1.720  20.083   7.641
13740W        W17701   0.988  18.398   7.411
13741W        W17702   1.726  19.479   8.462
13742W        W17703   2.696  18.455  10.161
13743W        W17704   1.284  20.467  10.270
13744W        W17705   2.088  20.249  10.487
13745W        W17706   2.705  20.279  10.380
13746W        W17707   1.989  18.419  10.885
13747W        W17708   1.211  19.035   9.278
13748W        W17709   0.637  18.991   8.676
13749W        W17710   0.423  21.703   8.352
13750W        W17711   1.755  21.033  10.477
13751W        W17712   0.790  20.518   7.836
13752W        W17713   2.470  19.903   9.057
13753W        W17714   2.750  19.702   9.456
13754W        W17715   1.955  20.376   9.390
13755W        W17716   2.425  20.750   7.522
13756W        W17717   2.097  18.771   8.850
13757W        W17718   3.576  19.049   8.118
13758W        W17719   0.070  21.638  10.149
13759W        W17720   0.487  20.864   9.681
13760W        W17721   0.054  21.710   7.913
13761W        W17722   1.953  18.980   9.719
13762W        W17723   1.316  21.003   7.568
13763W        W17724   3.221  21.385   7.754
13764W        W17725   2.196  20.038   7.768
13765W        W17726   1.039  19.229   8.285
13766W        W17727   1.871  19.139   7.337
13767W        W17728   2.455  20.704  10.515
13768W        W17729   2.808  18.610   8.132
13769W        W17730   0.138  18.458   7.580
13770W        W17731   1.424  20.777   9.870
13771W        W17732   1.223  20.693   8.962
13772W        W17733   0.965  20.645   7.360
13773W        W17734   0.206  20.886   8.128
13774W        W17735   0.710  19.956  10.570
13775W        W17736   1.414  18.516  10.756
13776W        W17737   2.123  18.658  10.112
13777W        W17738   1.318  18.426   8.393
13778W        W17739   2.377  18.503   7.898
13779W        W17740   0.322  18.435   9.475
13780W        W17741   0.370  19.398   8.845
13781W        W17742   3.059  18.506   9.251
13782W        W17743   0.481  19.004   8.065
13783W        W17744   3.052  18.692   9.681
13784W        W17745   3.448  19.895   7.366
13785W        W17746   0.740  18.653   9.185
13786W        W17747   1.854  19.225  10.125
13787W        W17748   0.002  18.915   7.603
13788W        W17749   0.788  20.304  10.164
13789W        W17750   2.146  19.702   9.343
13790W        W17751   2.013  21.781   7.639
13791W        W17752   0.159  20.288   7.336
13792W        W17753   0.894  20.699  10.462
13793W        W17754   0.415  19.866  10.093
13794W        W17755   1.406  19.971   9.887
13795W        W17756   3.174  18.330  10.149
13796W        W17757   3.572  19.940  10.140
13797W        W17758   3.560  20.140   7.826
13798W        W17759   2.423  20.472   7.925
13799W        W17760   2.897  21.772   7.620
13800W        W17761   2.074  19.762  10.762
13801W        W17762   0.404  20.729  10.802
13802W        W17763   3.610  18.651  10.754
13803W        W17764   3.328  19.579   9.375
13804W        W17765   1.636  21.709  10.852
13805W        W17766   1.491  18.338   7.579
13806W        W17767   3.030  20.937   7.522
13807W        W17768   0.799  19.030  10.408
13808W        W17769   1.233  21.024  10.270
13809W        W17770   3.359  19.015  10.068
13810W        W17771   2.570  21.674   8.036
13811W        W17772   2.809  20.293   9.403
13812W        W17773   1.059  18.709  10.070
13813W        W17774   1.528  19.778  10.827
13814W        W17775   1.031  20.957   8.021
13815W        W17776   2.786  20.455   8.285
13816W        W17777   0.554  19.081  10.009
13817W        W17778   1.883  21.143   8.473
13818W        W17779   3.633  19.703   8.654
13819W        W17780   1.855  18.336  10.373
13820W        W17781   2.635  21.041   9.452
13821W        W17782   2.938  21.385   9.160
13822W        W17783   2.157  21.187   7.588
13823W        W17784   0.167  21.079  10.430
13824W        W17785   0.910  19.071   9.668
13825W        W17786   0.880  18.419   8.778
13826W        W17787   2.501  19.261   9.470
13827W        W17788   1.299  20.432   7.670
13828W        W17789   3.297  20.374   9.169
13829W        W17790   0.624  21.132  10.592
13830W        W17791   3.011  21.814   8.389
13831W        W17792   1.110  18.834   8.834
13832W        W17793   0.879  20.327   8.924
13833W        W17794   1.192  21.738   9.674
13834W        W17795   3.259  21.834  10.706
13835W        W17796   2.418  20.022   9.639
13836W        W17797   0.267  19.820   7.554
13837W        W17798   3.401  21.478   8.251
13838W        W17799   3.238  18.802   7.870
13839W        W17800   1.377  18.321  10.273
13840W        W17801   3.083  21.123   8.731
13841W        W17802   3.112  19.679   8.636
13842W        W17803   1.229  19.352   8.852
13843W        W17804   1.474  19.614  10.176
13844W        W17805   2.585  20.767  10.039
13845W        W17806   1.235  19.221  10.151
13846W        W17807   1.214  21.687   8.767
13847W        W17808   0.531  21.646  10.401
13848W        W17809   0.643  21.007   7.531
13849W        W17810   3.160  20.765   8.341
13850W        W17811   0.764  19.557  10.227
13851W        W17812   3.537  19.487   7.708
13852W        W17813   1.282  20.544   8.179
13853W        W17814   2.381  19.926  10.260
13854W        W17815   2.272  19.554   9.804
13855W        W17816   0.832  19.926   9.833
13856W        W17817   3.042  21.814   9.662
13857W        W17818   2.833  18.448  10.656
13858W        W17819   0.497  18.598  10.243
13859W        W17820   0.836  19.621   9.296
13860W        W17821   1.205  19.435   7.418
13861W        W17822   0.008  21.194   9.963
13862W        W17823   1.593  19.903   9.406
13863W        W17824   1.416  18.928   7.511
13864W        W17825   0.551  19.744   8.292
13865W        W17826   0.322  21.596   9.729
13866W        W17827   3.117  19.822   7.837
13867W        W17828   3.212  18.738  10.523
13868W        W17829   2.648  20.947   8.486
13869W        W17830   0.246  19.871  10.663
13870W        W17831   3.212  18.335   7.959
13871W        W17832   2.732  20.810   7.970
13872W        W17833   1.634  19.868   8.055
13873W        W17834   2.821  18.672   7.578
13874W        W17835   2.886  19.279   9.764
13875W        W17836   0.595  19.872   8.971
13876W        W17837   0.889  20.811   8.620
13877W        W17838   2.652  19.431   8.585
13878W        W17839   1.675  18.810   9.281
13879W        W17840   3.637  20.721   9.792
13880W        W17841   3.555  18.708   9.353
13881W        W17842   0.094  21.538   8.729
13882W        W17843   0.603  20.725   8.265
13883W        W17844   0.518  18.342  10.818
13884W        W17845   1.637  21.195  10.920
13885W        W17846   3.392  20.163   8.710
13886W        W17847   2.746  20.340   7.590
13887W        W17848   2.041  21.861   9.802
13888W        W17849   2.898  20.583  10.839
13889W        W17850   1.713  18.293   8.119
13890W        W17851   2.426  19.162   8.978
13891W        W17852   0.112  20.749   9.310
13892W        W17853   1.365  18.711   7.951
13893W        W17854   1.169  20.195  10.800
13894W        W17855   2.163  19.176   8.514
13895W        W17856   2.368  20.586   9.636
13896W        W17857   0.522  21.191  10.071
13897W        W17858   1.113  21.174  10.794
13898W        W17859   0.964  18.971   7.808
13899W        W17860   2.481  19.113   8.133
13900W        W17861   2.439  21.221  10.370
13901W        W17862   1.124  19.813   8.969
13902W        W17863   0.779  21.511   9.834
13903W        W17864   3.524  21.628   7.435
13904W        W17865   0.387  20.300  10.431
13905W        W17866   2.382  20.562   9.119
13906W        W17867   0.818  20.211   8.361
13907W        W17868   1.189  21.218   9.756
13908W        W17869   1.567  18.637   8.797
13909W        W17870   0.178  20.621   7.727
13910W        W17871   1.697  19.572   7.597
13911W        W17872   0.343  20.121   8.616
13912W        W17873   1.633  18.763  10.080
13913W        W17874   3.305  18.472   7.507
13914W        W17875   3.398  20.218  10.606
13915W        W17876   3.610  20.569  10.280
13916W        W17877   0.757  21.823   9.369
13917W        W17878   3.616  20.445   8.243
13918W        W17879   2.146  19.712   8.756
13919W        W17880   1.913  18.324   8.646
13920W        W17881   0.972  21.308   8.483
13921W        W17882   1.471  19.049   9.708
13922W        W17883   1.171  18.418   9.177
13923W        W17884   0.234  21.240   7.725
13924W        W17885   2.050  20.604   8.443
13925W        W17886   0.925  21.399  10.322
13926W        W17887   0.402  20.222   8.018
13927W        W17888   0.287  18.765   9.017
13928W        W17889   1.835  20.730   9.074
13929W        W17890   0.087  18.584   8.094
13930W        W17891   2.751  19.790  10.021
13931W        W17892   2.628  19.176   7.593
13932W        W17893   3.145  20.848   9.241
13933W        W17894   1.806  21.332   9.072
13934W        W17895   1.218  21.436   7.983
13935W        W17896   2.500  18.339   7.413
13936W        W17897   0.300  21.599   9.154
13937W        W17898   2.497  19.357  10.789
13938W        W17899   0.480  18.887  10.788
13939W        W17900   0.211  19.487   8.121
13940W        W17901   0.902  19.476   7.846
13941W        W17902   2.665  19.803  10.663
13942W        W17903   1.008  20.084   9.372
13943W        W17904   2.482  18.370   8.492
13944W        W17905   1.613  21.801   8.995
13945W        W17906   2.411  21.412   9.043
13946W        W17907   2.430  20.392   8.637
13947W        W17908   1.892  18.617   7.708
13948W        W17909   3.573  18.245   8.430
13949W        W17910   1.261  19.880   7.593
13950W        W17911   3.427  19.217   8.583
13951W        W17912   2.119  20.387   7.460
13952W        W17913   3.055  20.587  10.208
13953W        W17914   2.709  21.288   7.675
13954W        W17915   1.324  18.963  10.581
13955W        W17916   1.144  19.547   9.822
13956W        W17917   3.236  21.042  10.099
13957W        W17918   2.336  18.992  10.476
13958W        W17919   0.180  19.463  10.253
13959W        W17920   1.940  19.940   9.979
13960W        W17921   0.297  20.698   8.636
13961W        W17922   0.444  19.995   9.526
13962W        W17923   2.761  20.281   9.876
13963W        W17924   2.533  21.661  10.687
13964W        W17925   2.429  19.400  10.240
13965W        W17926   2.706  21.454   8.645
13966W        W17927   1.708  21.174   9.968
13967W        W17928   1.193  21.529   9.237
13968W        W17929   2.998  20.700   9.656
13969W        W17930   2.048  20.772  10.793
13970W        W17931   0.653  20.725   9.132
13971W        W17932   2.999  20.484   8.777
13972W        W17933   2.640  21.550   9.528
13973W        W17934   0.618  21.279   9.398
13974W        W17935   1.639  19.331  10.608
13975W        W17936   2.090  21.497   8.119
13976W        W17937   1.398  20.752  10.757
13977W        W17938   1.524  20.990   8.134
13978W        W17939   0.745  19.730   7.393
13979W        W17940   0.084  21.816  14.292
13980W        W17941   0.460  20.709  13.815
13981W        W17942   3.165  20.439  11.585
13982W        W17943   3.295  21.524  13.612
13983W        W17944   1.213  21.515  11.138
13984W        W17945   1.296  19.667  12.121
13985W        W17946   0.811  19.515  12.285
13986W        W17947   1.802  20.330  11.719
13987W        W17948   1.477  21.422  14.074
13988W        W17949   0.126  18.983  14.037
13989W        W17950   0.888  18.263  13.839
13990W        W17951   2.582  18.651  12.726
13991W        W17952   2.231  19.522  11.296
13992W        W17953   2.801  18.956  14.387
13993W        W17954   0.167  18.748  13.512
13994W        W17955   0.266  21.367  14.533
13995W        W17956   1.788  20.757  11.265
13996W        W17957   0.220  19.540  12.958
13997W        W17958   1.113  19.431  14.195
13998W        W17959   3.572  19.290  12.694
13999W        W17960   3.336  20.333  13.553
14000W        W17961   1.644  19.666  12.580
14001W        W17962   2.190  21.005  12.949
14002W        W17963   0.690  20.439  13.181
14003W        W17964   0.049  19.967  12.752
14004W        W17965   1.085  19.939  13.944
14005W        W17966   3.356  19.722  14.198
14006W        W17967   0.972  21.166  12.643
14007W        W17968   2.093  20.855  13.777
14008W        W17969   1.313  19.495  13.002
14009W        W17970   1.605  20.279  12.645
14010W        W17971   2.602  21.052  14.493
14011W        W17972   1.681  20.372  14.503
14012W        W17973   1.662  20.088  13.981
14013W        W17974   0.071  19.479  14.503
14014W        W17975   2.903  21.014  14.102
14015W        W17976   0.484  18.596  12.100
14016W        W17977   1.011  20.854  13.099
14017W        W17978   3.474  20.637  12.389
14018W        W17979   2.887  19.037  12.956
14019W        W17980   3.172  18.990  11.051
14020W        W17981   3.637  19.791  13.357
14021W        W17982   1.604  21.498  13.110
14022W        W17983   3.378  20.964  11.548
14023W        W17984   0.507  21.750  11.302
14024W        W17985   0.900  21.796  11.978
14025W        W17986   0.697  18.550  13.404
14026W        W17987   3.320  19.568  13.679
14027W        W17988   2.725  19.990  12.138
14028W        W17989   2.691  19.678  11.165
14029W        W17990   1.899  20.822  13.305
14030W        W17991   1.705  19.152  12.504
14031W        W17992   2.305  21.239  13.498
14032W        W17993   3.176  20.030  11.920
14033W        W17994   2.078  18.688  11.936
14034W        W17995   0.735  21.382  11.619
14035W        W17996   0.106  18.881  12.218
14036W        W17997   2.892  19.488  12.692
14037W        W17998   0.350  21.105  12.607
14038W        W17999   1.691  21.455  11.477
14039W        W18000   3.083  19.481  10.941
14040W        W18001   0.106  21.239  13.105
14041W        W18002   0.897  20.811  13.585
14042W        W18003   1.270  20.171  12.204
14043W        W18004   1.292  18.576  13.297
14044W        W18005   3.521  18.338  12.594
14045W        W18006   0.740  20.210  11.062
14046W        W18007   0.395  19.243  11.241
14047W        W18008   0.457  21.199  12.035
14048W        W18009   1.588  20.682  12.283
14049W        W18010   2.920  21.541  13.997
14050W        W18011   1.846  19.183  11.681
14051W        W18012   3.229  21.581  12.453
14052W        W18013   2.906  19.434  14.051
14053W        W18014   3.619  21.090  12.185
14054W        W18015   2.246  20.382  13.669
14055W        W18016   0.012  19.933  11.875
14056W        W18017   1.123  20.348  13.448
14057W        W18018   2.327  19.612  11.826
14058W        W18019   2.204  20.102  11.930
14059W        W18020   0.547  19.522  13.404
14060W        W18021   0.532  19.398  14.326
14061W        W18022   0.422  18.315  12.485
14062W        W18023   2.190  18.662  13.046
14063W        W18024   1.838  18.847  14.209
14064W        W18025   2.193  18.996  11.387
14065W        W18026   3.376  21.389  14.141
14066W        W18027   2.343  18.470  14.180
14067W        W18028   3.362  20.771  14.302
14068W        W18029   2.792  18.938  13.898
14069W        W18030   2.592  18.876  12.168
14070W        W18031   2.985  20.010  14.572
14071W        W18032   0.725  21.586  12.558
14072W        W18033   1.383  19.303  11.544
14073W        W18034   0.952  18.587  14.208
14074W        W18035   3.004  19.071  11.889
14075W        W18036   3.371  19.553  11.834
14076W        W18037   1.114  21.770  14.305
14077W        W18038   1.040  18.306  11.540
14078W        W18039   3.361  18.840  12.575
14079W        W18040   0.418  20.292  12.722
14080W        W18041   2.335  18.879  10.952
14081W        W18042   3.469  21.211  12.672
14082W        W18043   3.508  18.405  13.422
14083W        W18044   1.953  19.617  13.976
14084W        W18045   2.046  20.956  11.679
14085W        W18046   2.446  20.250  14.419
14086W        W18047   2.120  18.227  12.728
14087W        W18048   0.732  19.130  12.791
14088W        W18049   0.286  20.330  13.565
14089W        W18050   2.145  21.523  12.271
14090W        W18051   3.339  19.120  13.143
14091W        W18052   1.976  21.467  13.910
14092W        W18053   3.319  20.526  11.115
14093W        W18054   1.754  20.009  12.176
14094W        W18055   3.606  18.520  13.917
14095W        W18056   1.755  20.355  13.511
14096W        W18057   1.972  19.241  12.956
14097W        W18058   2.824  19.539  11.794
14098W        W18059   3.111  19.272  11.436
14099W        W18060   2.920  21.312  11.825
14100W        W18061   2.754  20.915  12.621
14101W        W18062   2.650  19.994  11.599
14102W        W18063   2.083  20.204  12.585
14103W        W18064   2.964  19.992  12.652
14104W        W18065   0.339  19.007  13.076
14105W        W18066   3.117  20.059  13.903
14106W        W18067   3.468  21.677  13.049
14107W        W18068   1.398  21.121  12.451
14108W        W18069   2.405  21.654  13.775
14109W        W18070   2.399  18.984  13.539
14110W        W18071   1.606  21.692  13.600
14111W        W18072   3.303  18.646  12.066
14112W        W18073   3.094  19.965  13.367
14113W        W18074   0.077  19.286  13.405
14114W        W18075   2.937  19.081  12.423
14115W        W18076   3.348  19.232  14.200
14116W        W18077   2.233  20.931  12.418
14117W        W18078   1.489  21.522  12.031
14118W        W18079   0.604  18.702  11.289
14119W        W18080   1.708  18.356  13.099
14120W        W18081   0.736  21.476  10.947
14121W        W18082   1.110  19.942  11.698
14122W        W18083   1.764  20.571  14.011
14123W        W18084   1.594  18.929  12.001
14124W        W18085   2.950  18.526  12.429
14125W        W18086   2.670  21.808  12.757
14126W        W18087   2.082  21.456  13.097
14127W        W18088   1.478  20.493  13.058
14128W        W18089   3.248  21.216  13.184
14129W        W18090   0.942  18.719  11.953
14130W        W18091   1.464  21.016  12.913
14131W        W18092   0.947  18.947  10.978
14132W        W18093   1.748  19.556  13.372
14133W        W18094   2.596  18.422  13.242
14134W        W18095   0.016  20.265  13.127
14135W        W18096   1.720  20.083  11.285
14136W        W18097   0.988  18.398  11.055
14137W        W18098   1.726  19.479  12.106
14138W        W18099   2.696  18.455  13.805
14139W        W18100   1.284  20.467  13.914
14140W        W18101   2.088  20.249  14.131
14141W        W18102   2.705  20.279  14.024
14142W        W18103   1.989  18.419  14.529
14143W        W18104   1.211  19.035  12.922
14144W        W18105   0.637  18.991  12.320
14145W        W18106   0.423  21.703  11.996
14146W        W18107   1.755  21.033  14.121
14147W        W18108   0.790  20.518  11.480
14148W        W18109   2.470  19.903  12.701
14149W        W18110   2.750  19.702  13.100
14150W        W18111   1.955  20.376  13.034
14151W        W18112   2.425  20.750  11.166
14152W        W18113   2.097  18.771  12.494
14153W        W18114   3.576  19.049  11.762
14154W        W18115   0.070  21.638  13.793
14155W        W18116   0.487  20.864  13.325
14156W        W18117   0.054  21.710  11.557
14157W        W18118   1.953  18.980  13.363
14158W        W18119   1.316  21.003  11.212
14159W        W18120   3.221  21.385  11.398
14160W        W18121   2.196  20.038  11.412
14161W        W18122   1.039  19.229  11.929
14162W        W18123   1.871  19.139  10.981
14163W        W18124   2.455  20.704  14.159
14164W        W18125   2.808  18.610  11.776
14165W        W18126   0.138  18.458  11.224
14166W        W18127   1.424  20.777  13.514
14167W        W18128   1.223  20.693  12.606
14168W        W18129   0.965  20.645  11.004
14169W        W18130   0.206  20.886  11.772
14170W        W18131   0.710  19.956  14.214
14171W        W18132   1.414  18.516  14.400
14172W        W18133   2.123  18.658  13.756
14173W        W18134   1.318  18.426  12.037
14174W        W18135   2.377  18.503  11.542
14175W        W18136   0.322  18.435  13.119
14176W        W18137   0.370  19.398  12.489
14177W        W18138   3.059  18.506  12.895
14178W        W18139   0.481  19.004  11.709
14179W        W18140   3.052  18.692  13.325
14180W        W18141   3.448  19.895  11.010
14181W        W18142   0.740  18.653  12.829
14182W        W18143   1.854  19.225  13.769
14183W        W18144   0.002  18.915  11.247
14184W        W18145   0.788  20.304  13.808
14185W        W18146   2.146  19.702  12.987
14186W        W18147   2.013  21.781  11.283
14187W        W18148   0.159  20.288  10.980
14188W        W18149   0.894  20.699  14.106
14189W        W18150   0.415  19.866  13.737
14190W        W18151   1.406  19.971  13.531
14191W        W18152   3.174  18.330  13.793
14192W        W18153   3.572  19.940  13.784
14193W        W18154   3.560  20.140  11.470
14194W        W18155   2.423  20.472  11.569
14195W        W18156   2.897  21.772  11.264
14196W        W18157   2.074  19.762  14.406
14197W        W18158   0.404  20.729  14.446
14198W        W18159   3.610  18.651  14.398
14199W        W18160   3.328  19.579  13.019
14200W        W18161   1.636  21.709  14.496
14201W        W18162   1.491  18.338  11.223
14202W        W18163   3.030  20.937  11.166
14203W        W18164   0.799  19.030  14.052
14204W        W18165   1.233  21.024  13.914
14205W        W18166   3.359  19.015  13.712
14206W        W18167   2.570  21.674  11.680
14207W        W18168   2.809  20.293  13.047
14208W        W18169   1.059  18.709  13.714
14209W        W18170   1.528  19.778  14.471
14210W        W18171   1.031  20.957  11.665
14211W        W18172   2.786  20.455  11.929
14212W        W18173   0.554  19.081  13.653
14213W        W18174   1.883  21.143  12.117
14214W        W18175   3.633  19.703  12.298
14215W        W18176   1.855  18.336  14.017
14216W        W18177   2.635  21.041  13.096
14217W        W18178   2.938  21.385  12.804
14218W        W18179   2.157  21.187  11.232
14219W        W18180   0.167  21.079  14.074
14220W        W18181   0.910  19.071  13.312
14221W        W18182   0.880  18.419  12.422
14222W        W18183   2.501  19.261  13.114
14223W        W18184   1.299  20.432  11.314
14224W        W18185   3.297  20.374  12.813
14225W        W18186   0.624  21.132  14.236
14226W        W18187   3.011  21.814  12.033
14227W        W18188   1.110  18.834  12.478
14228W        W18189   0.879  20.327  12.568
14229W        W18190   1.192  21.738  13.318
14230W        W18191   3.259  21.834  14.350
14231W        W18192   2.418  20.022  13.283
14232W        W18193   0.267  19.820  11.198
14233W        W18194   3.401  21.478  11.895
14234W        W18195   3.238  18.802  11.514
14235W        W18196   1.377  18.321  13.917
14236W        W18197   3.083  21.123  12.375
14237W        W18198   3.112  19.679  12.280
14238W        W18199   1.229  19.352  12.496
14239W        W18200   1.474  19.614  13.820
14240W        W18201   2.585  20.767  13.683
14241W        W18202   1.235  19.221  13.795
14242W        W18203   1.214  21.687  12.411
14243W        W18204   0.531  21.646  14.045
14244W        W18205   0.643  21.007  11.175
14245W        W18206   3.160  20.765  11.985
14246W        W18207   0.764  19.557  13.871
14247W        W18208   3.537  19.487  11.352
14248W        W18209   1.282  20.544  11.823
14249W        W18210   2.381  19.926  13.904
14250W        W18211   2.272  19.554  13.448
14251W        W18212   0.832  19.926  13.477
14252W        W18213   3.042  21.814  13.306
14253W        W18214   2.833  18.448  14.300
14254W        W18215   0.497  18.598  13.887
14255W        W18216   0.836  19.621  12.940
14256W        W18217   1.205  19.435  11.062
14257W        W18218   0.008  21.194  13.607
14258W        W18219   1.593  19.903  13.050
14259W        W18220   1.416  18.928  11.155
14260W        W18221   0.551  19.744  11.936
14261W        W18222   0.322  21.596  13.373
14262W        W18223   3.117  19.822  11.481
14263W        W18224   3.212  18.738  14.167
14264W        W18225   2.648  20.947  12.130
14265W        W18226   0.246  19.871  14.307
14266W        W18227   3.212  18.335  11.603
14267W        W18228   2.732  20.810  11.614
14268W        W18229   1.634  19.868  11.699
14269W        W18230   2.821  18.672  11.222
14270W        W18231   2.886  19.279  13.408
14271W        W18232   0.595  19.872  12.615
14272W        W18233   0.889  20.811  12.264
14273W        W18234   2.652  19.431  12.229
14274W        W18235   1.675  18.810  12.925
14275W        W18236   3.637  20.721  13.436
14276W        W18237   3.555  18.708  12.997
14277W        W18238   0.094  21.538  12.373
14278W        W18239   0.603  20.725  11.909
14279W        W18240   0.518  18.342  14.462
14280W        W18241   1.637  21.195  14.564
14281W        W18242   3.392  20.163  12.354
14282W        W18243   2.746  20.340  11.234
14283W        W18244   2.041  21.861  13.446
14284W        W18245   2.898  20.583  14.483
14285W        W18246   1.713  18.293  11.763
14286W        W18247   2.426  19.162  12.622
14287W        W18248   0.112  20.749  12.954
14288W        W18249   1.365  18.711  11.595
14289W        W18250   1.169  20.195  14.444
14290W        W18251   2.163  19.176  12.158
14291W        W18252   2.368  20.586  13.280
14292W        W18253   0.522  21.191  13.715
14293W        W18254   1.113  21.174  14.438
14294W        W18255   0.964  18.971  11.452
14295W        W18256   2.481  19.113  11.777
14296W        W18257   2.439  21.221  14.014
14297W        W18258   1.124  19.813  12.613
14298W        W18259   0.779  21.511  13.478
14299W        W18260   3.524  21.628  11.079
14300W        W18261   0.387  20.300  14.075
14301W        W18262   2.382  20.562  12.763
14302W        W18263   0.818  20.211  12.005
14303W        W18264   1.189  21.218  13.400
14304W        W18265   1.567  18.637  12.441
14305W        W18266   0.178  20.621  11.371
14306W        W18267   1.697  19.572  11.241
14307W        W18268   0.343  20.121  12.260
14308W        W18269   1.633  18.763  13.724
14309W        W18270   3.305  18.472  11.151
14310W        W18271   3.398  20.218  14.250
14311W        W18272   2.052  21.475  14.402
14312W        W18273   3.610  20.569  13.924
14313W        W18274   3.018  21.367  14.535
14314W        W18275   0.757  21.823  13.013
14315W        W18276   3.616  20.445  11.887
14316W        W18277   2.146  19.712  12.400
14317W        W18278   1.913  18.324  12.290
14318W        W18279   0.972  21.308  12.127
14319W        W18280   1.471  19.049  13.352
14320W        W18281   1.171  18.418  12.821
14321W        W18282   0.234  21.240  11.369
14322W        W18283   2.050  20.604  12.087
14323W        W18284   0.925  21.399  13.966
14324W        W18285   0.402  20.222  11.662
14325W        W18286   0.287  18.765  12.661
14326W        W18287   1.835  20.730  12.718
14327W        W18288   0.087  18.584  11.738
14328W        W18289   2.751  19.790  13.665
14329W        W18290   2.628  19.176  11.237
14330W        W18291   3.145  20.848  12.885
14331W        W18292   1.806  21.332  12.716
14332W        W18293   1.218  21.436  11.627
14333W        W18294   2.500  18.339  11.057
14334W        W18295   0.300  21.599  12.798
14335W        W18296   2.497  19.357  14.433
14336W        W18297   0.480  18.887  14.432
14337W        W18298   0.211  19.487  11.765
14338W        W18299   0.902  19.476  11.490
14339W        W18300   2.665  19.803  14.307
14340W        W18301   1.008  20.084  13.016
14341W        W18302   2.482  18.370  12.136
14342W        W18303   1.613  21.801  12.639
14343W        W18304   2.827  21.263  13.576
14344W        W18305   2.411  21.412  12.687
14345W        W18306   2.430  20.392  12.281
14346W        W18307   1.892  18.617  11.352
14347W        W18308   3.573  18.245  12.074
14348W        W18309   1.261  19.880  11.237
14349W        W18310   3.427  19.217  12.227
14350W        W18311   2.119  20.387  11.104
14351W        W18312   3.055  20.587  13.852
14352W        W18313   2.709  21.288  11.319
14353W        W18314   1.324  18.963  14.225
14354W        W18315   1.144  19.547  13.466
14355W        W18316   3.236  21.042  13.743
14356W        W18317   2.336  18.992  14.120
14357W        W18318   0.180  19.463  13.897
14358W        W18319   1.940  19.940  13.623
14359W        W18320   0.297  20.698  12.280
14360W        W18321   0.444  19.995  13.170
14361W        W18322   2.761  20.281  13.520
14362W        W18323   2.533  21.661  14.331
14363W        W18324   2.429  19.400  13.884
14364W        W18325   2.706  21.454  12.289
14365W        W18326   1.708  21.174  13.612
14366W        W18327   1.193  21.529  12.881
14367W        W18328   2.998  20.700  13.300
14368W        W18329   2.048  20.772  14.437
14369W        W18330   0.653  20.725  12.776
14370W        W18331   2.999  20.484  12.421
14371W        W18332   2.640  21.550  13.172
14372W        W18333   0.618  21.279  13.042
14373W        W18334   1.639  19.331  14.252
14374W        W18335   2.090  21.497  11.763
14375W        W18336   1.398  20.752  14.401
14376W        W18337   1.524  20.990  11.778
14377W        W18338   0.745  19.730  11.037
14378W        W18339   0.084  21.816  17.936
14379W        W18340   0.460  20.709  17.459
14380W        W18341   3.165  20.439  15.229
14381W        W18342   3.295  21.524  17.256
14382W        W18343   1.213  21.515  14.782
14383W        W18344   1.296  19.667  15.765
14384W        W18345   0.811  19.515  15.929
14385W        W18346   1.802  20.330  15.363
14386W        W18347   1.477  21.422  17.718
14387W        W18348   0.126  18.983  17.681
14388W        W18349   0.888  18.263  17.483
14389W        W18350   2.582  18.651  16.370
14390W        W18351   2.231  19.522  14.940
14391W        W18352   2.801  18.956  18.031
14392W        W18353   0.167  18.748  17.156
14393W        W18354   0.266  21.367  18.177
14394W        W18355   1.788  20.757  14.909
14395W        W18356   0.220  19.540  16.602
14396W        W18357   1.113  19.431  17.839
14397W        W18358   3.572  19.290  16.338
14398W        W18359   3.336  20.333  17.197
14399W        W18360   1.644  19.666  16.224
14400W        W18361   2.190  21.005  16.593
14401W        W18362   0.690  20.439  16.825
14402W        W18363   0.049  19.967  16.396
14403W        W18364   1.085  19.939  17.588
14404W        W18365   3.356  19.722  17.842
14405W        W18366   0.972  21.166  16.287
14406W        W18367   2.093  20.855  17.421
14407W        W18368   1.313  19.495  16.646
14408W        W18369   1.605  20.279  16.289
14409W        W18370   2.602  21.052  18.137
14410W        W18371   1.681  20.372  18.147
14411W        W18372   1.662  20.088  17.625
14412W        W18373   0.071  19.479  18.147
14413W        W18374   2.903  21.014  17.746
14414W        W18375   0.484  18.596  15.744
14415W        W18376   1.011  20.854  16.743
14416W        W18377   3.474  20.637  16.033
14417W        W18378   2.887  19.037  16.600
14418W        W18379   3.172  18.990  14.695
14419W        W18380   3.637  19.791  17.001
14420W        W18381   1.604  21.498  16.754
14421W        W18382   3.378  20.964  15.192
14422W        W18383   0.507  21.750  14.946
14423W        W18384   0.900  21.796  15.622
14424W        W18385   0.697  18.550  17.048
14425W        W18386   3.320  19.568  17.323
14426W        W18387   2.725  19.990  15.782
14427W        W18388   2.691  19.678  14.809
14428W        W18389   1.899  20.822  16.949
14429W        W18390   1.705  19.152  16.148
14430W        W18391   2.305  21.239  17.142
14431W        W18392   3.176  20.030  15.564
14432W        W18393   2.078  18.688  15.580
14433W        W18394   0.735  21.382  15.263
14434W        W18395   0.106  18.881  15.862
14435W        W18396   2.892  19.488  16.336
14436W        W18397   0.350  21.105  16.251
14437W        W18398   1.691  21.455  15.121
14438W        W18399   3.083  19.481  14.585
14439W        W18400   0.106  21.239  16.749
14440W        W18401   0.897  20.811  17.229
14441W        W18402   1.270  20.171  15.848
14442W        W18403   1.292  18.576  16.941
14443W        W18404   3.521  18.338  16.238
14444W        W18405   0.740  20.210  14.706
14445W        W18406   0.395  19.243  14.885
14446W        W18407   0.457  21.199  15.679
14447W        W18408   1.588  20.682  15.927
14448W        W18409   2.920  21.541  17.641
14449W        W18410   1.846  19.183  15.325
14450W        W18411   3.229  21.581  16.097
14451W        W18412   2.906  19.434  17.695
14452W        W18413   3.619  21.090  15.829
14453W        W18414   2.246  20.382  17.313
14454W        W18415   0.012  19.933  15.519
14455W        W18416   1.123  20.348  17.092
14456W        W18417   2.327  19.612  15.470
14457W        W18418   2.204  20.102  15.574
14458W        W18419   0.547  19.522  17.048
14459W        W18420   0.532  19.398  17.970
14460W        W18421   0.422  18.315  16.129
14461W        W18422   2.190  18.662  16.690
14462W        W18423   1.838  18.847  17.853
14463W        W18424   2.193  18.996  15.031
14464W        W18425   3.376  21.389  17.785
14465W        W18426   2.343  18.470  17.824
14466W        W18427   3.362  20.771  17.946
14467W        W18428   2.792  18.938  17.542
14468W        W18429   2.592  18.876  15.812
14469W        W18430   2.985  20.010  18.216
14470W        W18431   0.725  21.586  16.202
14471W        W18432   1.383  19.303  15.188
14472W        W18433   0.952  18.587  17.852
14473W        W18434   3.004  19.071  15.533
14474W        W18435   3.371  19.553  15.478
14475W        W18436   1.114  21.770  17.949
14476W        W18437   1.040  18.306  15.184
14477W        W18438   3.361  18.840  16.219
14478W        W18439   3.511  21.089  14.664
14479W        W18440   0.418  20.292  16.366
14480W        W18441   2.335  18.879  14.596
14481W        W18442   3.469  21.211  16.316
14482W        W18443   3.508  18.405  17.066
14483W        W18444   1.953  19.617  17.620
14484W        W18445   2.046  20.956  15.323
14485W        W18446   2.446  20.250  18.063
14486W        W18447   2.120  18.227  16.372
14487W        W18448   0.732  19.130  16.435
14488W        W18449   0.286  20.330  17.209
14489W        W18450   2.145  21.523  15.915
14490W        W18451   3.339  19.120  16.787
14491W        W18452   1.976  21.467  17.554
14492W        W18453   3.319  20.526  14.759
14493W        W18454   1.754  20.009  15.820
14494W        W18455   3.606  18.520  17.561
14495W        W18456   1.755  20.355  17.155
14496W        W18457   1.972  19.241  16.600
14497W        W18458   2.824  19.539  15.438
14498W        W18459   3.111  19.272  15.080
14499W        W18460   2.920  21.312  15.469
14500W        W18461   2.754  20.915  16.265
14501W        W18462   2.650  19.994  15.243
14502W        W18463   2.083  20.204  16.229
14503W        W18464   2.964  19.992  16.296
14504W        W18465   0.339  19.007  16.720
14505W        W18466   3.117  20.059  17.547
14506W        W18467   3.468  21.677  16.693
14507W        W18468   1.398  21.121  16.095
14508W        W18469   2.405  21.654  17.419
14509W        W18470   2.399  18.984  17.183
14510W        W18471   1.606  21.692  17.244
14511W        W18472   3.303  18.646  15.710
14512W        W18473   3.094  19.965  17.011
14513W        W18474   0.077  19.286  17.049
14514W        W18475   2.937  19.081  16.067
14515W        W18476   3.348  19.232  17.844
14516W        W18477   2.233  20.931  16.062
14517W        W18478   1.489  21.522  15.675
14518W        W18479   0.604  18.702  14.933
14519W        W18480   1.708  18.356  16.743
14520W        W18481   0.736  21.476  14.591
14521W        W18482   1.110  19.942  15.342
14522W        W18483   1.764  20.571  17.655
14523W        W18484   1.594  18.929  15.645
14524W        W18485   2.950  18.526  16.073
14525W        W18486   2.670  21.808  16.401
14526W        W18487   2.082  21.456  16.741
14527W        W18488   1.478  20.493  16.702
14528W        W18489   3.248  21.216  16.828
14529W        W18490   0.942  18.719  15.597
14530W        W18491   1.464  21.016  16.557
14531W        W18492   0.947  18.947  14.622
14532W        W18493   1.748  19.556  17.016
14533W        W18494   2.596  18.422  16.886
14534W        W18495   0.016  20.265  16.771
14535W        W18496   1.720  20.083  14.929
14536W        W18497   0.988  18.398  14.699
14537W        W18498   1.726  19.479  15.750
14538W        W18499   2.696  18.455  17.449
14539W        W18500   1.284  20.467  17.558
14540W        W18501   2.088  20.249  17.775
14541W        W18502   2.705  20.279  17.668
14542W        W18503   1.989  18.419  18.173
14543W        W18504   1.211  19.035  16.566
14544W        W18505   0.637  18.991  15.964
14545W        W18506   0.423  21.703  15.640
14546W        W18507   1.755  21.033  17.765
14547W        W18508   0.790  20.518  15.124
14548W        W18509   2.470  19.903  16.345
14549W        W18510   2.750  19.702  16.744
14550W        W18511   1.955  20.376  16.678
14551W        W18512   2.425  20.750  14.810
14552W        W18513   2.097  18.771  16.138
14553W        W18514   3.576  19.049  15.406
14554W        W18515   0.070  21.638  17.437
14555W        W18516   0.487  20.864  16.969
14556W        W18517   0.054  21.710  15.201
14557W        W18518   1.953  18.980  17.007
14558W        W18519   1.316  21.003  14.856
14559W        W18520   3.221  21.385  15.042
14560W        W18521   2.196  20.038  15.056
14561W        W18522   1.039  19.229  15.573
14562W        W18523   1.871  19.139  14.625
14563W        W18524   2.455  20.704  17.803
14564W        W18525   2.808  18.610  15.420
14565W        W18526   0.138  18.458  14.868
14566W        W18527   1.424  20.777  17.158
14567W        W18528   1.223  20.693  16.250
14568W        W18529   0.965  20.645  14.648
14569W        W18530   0.206  20.886  15.416
14570W        W18531   0.710  19.956  17.858
14571W        W18532   1.414  18.516  18.044
14572W        W18533   2.123  18.658  17.400
14573W        W18534   1.318  18.426  15.681
14574W        W18535   2.377  18.503  15.186
14575W        W18536   0.322  18.435  16.763
14576W        W18537   0.370  19.398  16.133
14577W        W18538   3.059  18.506  16.539
14578W        W18539   0.481  19.004  15.353
14579W        W18540   3.052  18.692  16.969
14580W        W18541   3.448  19.895  14.654
14581W        W18542   0.740  18.653  16.473
14582W        W18543   1.854  19.225  17.413
14583W        W18544   0.002  18.915  14.891
14584W        W18545   0.788  20.304  17.452
14585W        W18546   2.146  19.702  16.631
14586W        W18547   2.013  21.781  14.927
14587W        W18548   0.159  20.288  14.624
14588W        W18549   0.894  20.699  17.750
14589W        W18550   0.415  19.866  17.381
14590W        W18551   1.406  19.971  17.175
14591W        W18552   3.174  18.330  17.437
14592W        W18553   3.572  19.940  17.428
14593W        W18554   3.560  20.140  15.114
14594W        W18555   2.423  20.472  15.213
14595W        W18556   2.897  21.772  14.908
14596W        W18557   2.074  19.762  18.050
14597W        W18558   0.404  20.729  18.090
14598W        W18559   3.610  18.651  18.042
14599W        W18560   3.328  19.579  16.663
14600W        W18561   1.636  21.709  18.140
14601W        W18562   1.491  18.338  14.867
14602W        W18563   3.030  20.937  14.810
14603W        W18564   0.799  19.030  17.696
14604W        W18565   1.233  21.024  17.558
14605W        W18566   3.359  19.015  17.356
14606W        W18567   2.570  21.674  15.324
14607W        W18568   2.809  20.293  16.691
14608W        W18569   1.059  18.709  17.358
14609W        W18570   1.528  19.778  18.115
14610W        W18571   1.031  20.957  15.309
14611W        W18572   2.786  20.455  15.573
14612W        W18573   0.554  19.081  17.297
14613W        W18574   1.883  21.143  15.761
14614W        W18575   3.633  19.703  15.942
14615W        W18576   1.855  18.336  17.661
14616W        W18577   2.635  21.041  16.740
14617W        W18578   2.938  21.385  16.448
14618W        W18579   2.157  21.187  14.876
14619W        W18580   0.167  21.079  17.718
14620W        W18581   0.910  19.071  16.956
14621W        W18582   0.880  18.419  16.066
14622W        W18583   2.501  19.261  16.758
14623W        W18584   1.299  20.432  14.958
14624W        W18585   3.297  20.374  16.457
14625W        W18586   0.624  21.132  17.880
14626W        W18587   3.011  21.814  15.677
14627W        W18588   1.110  18.834  16.122
14628W        W18589   0.879  20.327  16.212
14629W        W18590   1.192  21.738  16.962
14630W        W18591   3.259  21.834  17.994
14631W        W18592   2.418  20.022  16.927
14632W        W18593   0.267  19.820  14.842
14633W        W18594   3.401  21.478  15.539
14634W        W18595   3.238  18.802  15.158
14635W        W18596   1.377  18.321  17.561
14636W        W18597   3.083  21.123  16.019
14637W        W18598   3.112  19.679  15.924
14638W        W18599   1.229  19.352  16.140
14639W        W18600   1.474  19.614  17.464
14640W        W18601   2.585  20.767  17.327
14641W        W18602   1.235  19.221  17.439
14642W        W18603   1.214  21.687  16.055
14643W        W18604   0.531  21.646  17.689
14644W        W18605   0.643  21.007  14.819
14645W        W18606   3.160  20.765  15.629
14646W        W18607   0.764  19.557  17.515
14647W        W18608   3.537  19.487  14.996
14648W        W18609   1.282  20.544  15.467
14649W        W18610   2.381  19.926  17.548
14650W        W18611   2.272  19.554  17.092
14651W        W18612   0.832  19.926  17.121
14652W        W18613   3.042  21.814  16.950
14653W        W18614   2.833  18.448  17.944
14654W        W18615   0.497  18.598  17.531
14655W        W18616   0.836  19.621  16.584
14656W        W18617   1.205  19.435  14.706
14657W        W18618   0.008  21.194  17.251
14658W        W18619   1.593  19.903  16.694
14659W        W18620   1.416  18.928  14.799
14660W        W18621   0.551  19.744  15.580
14661W        W18622   0.322  21.596  17.017
14662W        W18623   3.117  19.822  15.125
14663W        W18624   3.212  18.738  17.811
14664W        W18625   2.648  20.947  15.774
14665W        W18626   0.246  19.871  17.951
14666W        W18627   3.212  18.335  15.247
14667W        W18628   2.732  20.810  15.258
14668W        W18629   1.634  19.868  15.343
14669W        W18630   2.821  18.672  14.866
14670W        W18631   2.886  19.279  17.052
14671W        W18632   0.595  19.872  16.259
14672W        W18633   0.889  20.811  15.908
14673W        W18634   2.652  19.431  15.873
14674W        W18635   1.675  18.810  16.569
14675W        W18636   3.637  20.721  17.080
14676W        W18637   3.555  18.708  16.641
14677W        W18638   0.094  21.538  16.017
14678W        W18639   0.603  20.725  15.553
14679W        W18640   0.518  18.342  18.106
14680W        W18641   1.637  21.195  18.208
14681W        W18642   3.392  20.163  15.998
14682W        W18643   2.746  20.340  14.878
14683W        W18644   2.041  21.861  17.090
14684W        W18645   2.898  20.583  18.127
14685W        W18646   1.713  18.293  15.407
14686W        W18647   2.426  19.162  16.266
14687W        W18648   0.112  20.749  16.598
14688W        W18649   1.365  18.711  15.239
14689W        W18650   1.169  20.195  18.088
14690W        W18651   2.163  19.176  15.802
14691W        W18652   2.368  20.586  16.924
14692W        W18653   0.522  21.191  17.359
14693W        W18654   1.113  21.174  18.082
14694W        W18655   0.964  18.971  15.096
14695W        W18656   2.481  19.113  15.421
14696W        W18657   2.439  21.221  17.658
14697W        W18658   1.124  19.813  16.257
14698W        W18659   0.779  21.511  17.122
14699W        W18660   3.524  21.628  14.723
14700W        W18661   0.387  20.300  17.719
14701W        W18662   2.382  20.562  16.407
14702W        W18663   0.818  20.211  15.649
14703W        W18664   1.189  21.218  17.044
14704W        W18665   1.567  18.637  16.085
14705W        W18666   0.178  20.621  15.015
14706W        W18667   1.697  19.572  14.885
14707W        W18668   0.343  20.121  15.904
14708W        W18669   1.633  18.763  17.368
14709W        W18670   3.305  18.472  14.795
14710W        W18671   3.398  20.218  17.894
14711W        W18672   2.052  21.475  18.046
14712W        W18673   3.610  20.569  17.568
14713W        W18674   3.018  21.367  18.179
14714W        W18675   0.757  21.823  16.657
14715W        W18676   3.616  20.445  15.531
14716W        W18677   2.146  19.712  16.044
14717W        W18678   1.913  18.324  15.934
14718W        W18679   0.972  21.308  15.771
14719W        W18680   1.471  19.049  16.996
14720W        W18681   1.171  18.418  16.465
14721W        W18682   0.234  21.240  15.013
14722W        W18683   2.050  20.604  15.731
14723W        W18684   0.925  21.399  17.610
14724W        W18685   0.402  20.222  15.306
14725W        W18686   0.287  18.765  16.305
14726W        W18687   1.835  20.730  16.362
14727W        W18688   0.087  18.584  15.382
14728W        W18689   2.751  19.790  17.309
14729W        W18690   2.628  19.176  14.881
14730W        W18691   3.145  20.848  16.529
14731W        W18692   1.806  21.332  16.360
14732W        W18693   1.218  21.436  15.271
14733W        W18694   2.500  18.339  14.701
14734W        W18695   0.300  21.599  16.442
14735W        W18696   2.497  19.357  18.077
14736W        W18697   0.480  18.887  18.076
14737W        W18698   0.211  19.487  15.409
14738W        W18699   0.902  19.476  15.134
14739W        W18700   2.665  19.803  17.951
14740W        W18701   1.008  20.084  16.660
14741W        W18702   2.482  18.370  15.780
14742W        W18703   1.613  21.801  16.283
14743W        W18704   2.827  21.263  17.220
14744W        W18705   2.411  21.412  16.331
14745W        W18706   2.430  20.392  15.925
14746W        W18707   1.892  18.617  14.996
14747W        W18708   3.573  18.245  15.718
14748W        W18709   1.261  19.880  14.881
14749W        W18710   3.427  19.217  15.871
14750W        W18711   2.119  20.387  14.748
14751W        W18712   3.055  20.587  17.496
14752W        W18713   2.709  21.288  14.963
14753W        W18714   1.324  18.963  17.869
14754W        W18715   1.144  19.547  17.110
14755W        W18716   3.236  21.042  17.387
14756W        W18717   2.336  18.992  17.764
14757W        W18718   0.180  19.463  17.541
14758W        W18719   1.940  19.940  17.267
14759W        W18720   0.297  20.698  15.924
14760W        W18721   0.444  19.995  16.814
14761W        W18722   2.761  20.281  17.164
14762W        W18723   2.533  21.661  17.975
14763W        W18724   2.429  19.400  17.528
14764W        W18725   2.706  21.454  15.933
14765W        W18726   1.708  21.174  17.256
14766W        W18727   1.193  21.529  16.525
14767W        W18728   2.998  20.700  16.944
14768W        W18729   2.048  20.772  18.081
14769W        W18730   0.653  20.725  16.420
14770W        W18731   2.999  20.484  16.065
14771W        W18732   2.640  21.550  16.816
14772W        W18733   0.618  21.279  16.686
14773W        W18734   1.639  19.331  17.896
14774W        W18735   2.090  21.497  15.407
14775W        W18736   1.398  20.752  18.045
14776W        W18737   1.524  20.990  15.422
14777W        W18738   0.745  19.730  14.681
14778W        W18739   0.084  21.816  21.580
14779W        W18740   0.460  20.709  21.103
14780W        W18741   3.165  20.439  18.873
14781W        W18742   3.295  21.524  20.900
14782W        W18743   1.213  21.515  18.426
14783W        W18744   1.296  19.667  19.409
14784W        W18745   0.811  19.515  19.573
14785W        W18746   1.802  20.330  19.007
14786W        W18747   1.477  21.422  21.362
14787W        W18748   0.126  18.983  21.325
14788W        W18749   0.888  18.263  21.127
14789W        W18750   2.582  18.651  20.014
14790W        W18751   2.231  19.522  18.584
14791W        W18752   2.801  18.956  21.675
14792W        W18753   0.167  18.748  20.800
14793W        W18754   0.266  21.367  21.821
14794W        W18755   1.788  20.757  18.553
14795W        W18756   0.220  19.540  20.246
14796W        W18757   1.113  19.431  21.483
14797W        W18758   3.572  19.290  19.982
14798W        W18759   3.336  20.333  20.841
14799W        W18760   1.644  19.666  19.868
14800W        W18761   2.190  21.005  20.237
14801W        W18762   0.690  20.439  20.469
14802W        W18763   0.049  19.967  20.040
14803W        W18764   1.085  19.939  21.232
14804W        W18765   3.356  19.722  21.486
14805W        W18766   0.972  21.166  19.931
14806W        W18767   2.093  20.855  21.065
14807W        W18768   1.313  19.495  20.290
14808W        W18769   1.605  20.279  19.933
14809W        W18770   2.602  21.052  21.781
14810W        W18771   1.681  20.372  21.791
14811W        W18772   1.662  20.088  21.269
14812W        W18773   0.071  19.479  21.791
14813W        W18774   2.903  21.014  21.390
14814W        W18775   0.484  18.596  19.388
14815W        W18776   1.011  20.854  20.387
14816W        W18777   3.474  20.637  19.677
14817W        W18778   2.887  19.037  20.244
14818W        W18779   3.172  18.990  18.339
14819W        W18780   3.637  19.791  20.645
14820W        W18781   1.604  21.498  20.398
14821W        W18782   3.378  20.964  18.836
14822W        W18783   0.507  21.750  18.590
14823W        W18784   0.900  21.796  19.266
14824W        W18785   0.697  18.550  20.692
14825W        W18786   3.320  19.568  20.967
14826W        W18787   2.725  19.990  19.426
14827W        W18788   2.691  19.678  18.453
14828W        W18789   1.899  20.822  20.593
14829W        W18790   1.705  19.152  19.792
14830W        W18791   2.305  21.239  20.786
14831W        W18792   3.176  20.030  19.208
14832W        W18793   2.078  18.688  19.224
14833W        W18794   0.735  21.382  18.907
14834W        W18795   0.106  18.881  19.506
14835W        W18796   2.892  19.488  19.980
14836W        W18797   0.350  21.105  19.895
14837W        W18798   1.691  21.455  18.765
14838W        W18799   3.083  19.481  18.229
14839W        W18800   0.106  21.239  20.393
14840W        W18801   0.897  20.811  20.873
14841W        W18802   1.270  20.171  19.492
14842W        W18803   1.292  18.576  20.585
14843W        W18804   3.521  18.338  19.882
14844W        W18805   0.740  20.210  18.350
14845W        W18806   0.395  19.243  18.529
14846W        W18807   0.457  21.199  19.323
14847W        W18808   1.588  20.682  19.571
14848W        W18809   2.920  21.541  21.285
14849W        W18810   1.846  19.183  18.969
14850W        W18811   3.229  21.581  19.741
14851W        W18812   2.906  19.434  21.339
14852W        W18813   3.619  21.090  19.473
14853W        W18814   2.246  20.382  20.957
14854W        W18815   0.012  19.933  19.163
14855W        W18816   1.123  20.348  20.736
14856W        W18817   2.327  19.612  19.114
14857W        W18818   2.204  20.102  19.218
14858W        W18819   0.547  19.522  20.692
14859W        W18820   0.532  19.398  21.614
14860W        W18821   0.422  18.315  19.773
14861W        W18822   2.190  18.662  20.334
14862W        W18823   1.838  18.847  21.497
14863W        W18824   2.193  18.996  18.675
14864W        W18825   3.376  21.389  21.429
14865W        W18826   2.343  18.470  21.468
14866W        W18827   3.362  20.771  21.590
14867W        W18828   2.792  18.938  21.186
14868W        W18829   2.592  18.876  19.456
14869W        W18830   2.985  20.010  21.860
14870W        W18831   0.725  21.586  19.846
14871W        W18832   1.383  19.303  18.832
14872W        W18833   0.952  18.587  21.496
14873W        W18834   3.004  19.071  19.177
14874W        W18835   3.371  19.553  19.122
14875W        W18836   1.114  21.770  21.593
14876W        W18837   1.040  18.306  18.828
14877W        W18838   3.361  18.840  19.863
14878W        W18839   3.511  21.089  18.308
14879W        W18840   0.418  20.292  20.010
14880W        W18841   2.335  18.879  18.240
14881W        W18842   3.469  21.211  19.960
14882W        W18843   3.508  18.405  20.710
14883W        W18844   1.953  19.617  21.264
14884W        W18845   2.046  20.956  18.967
14885W        W18846   2.446  20.250  21.707
14886W        W18847   2.120  18.227  20.016
14887W        W18848   0.732  19.130  20.079
14888W        W18849   0.286  20.330  20.853
14889W        W18850   2.145  21.523  19.559
14890W        W18851   3.339  19.120  20.431
14891W        W18852   1.976  21.467  21.198
14892W        W18853   3.319  20.526  18.403
14893W        W18854   1.754  20.009  19.464
14894W        W18855   3.606  18.520  21.205
14895W        W18856   1.755  20.355  20.799
14896W        W18857   1.972  19.241  20.244
14897W        W18858   2.824  19.539  19.082
14898W        W18859   3.111  19.272  18.724
14899W        W18860   2.920  21.312  19.113
14900W        W18861   2.754  20.915  19.909
14901W        W18862   2.650  19.994  18.887
14902W        W18863   2.083  20.204  19.873
14903W        W18864   2.964  19.992  19.940
14904W        W18865   0.339  19.007  20.364
14905W        W18866   3.117  20.059  21.191
14906W        W18867   3.468  21.677  20.337
14907W        W18868   1.398  21.121  19.739
14908W        W18869   2.405  21.654  21.063
14909W        W18870   2.399  18.984  20.827
14910W        W18871   1.606  21.692  20.888
14911W        W18872   3.303  18.646  19.354
14912W        W18873   3.094  19.965  20.655
14913W        W18874   0.077  19.286  20.693
14914W        W18875   2.937  19.081  19.711
14915W        W18876   3.348  19.232  21.488
14916W        W18877   2.233  20.931  19.706
14917W        W18878   1.489  21.522  19.319
14918W        W18879   0.604  18.702  18.577
14919W        W18880   1.708  18.356  20.387
14920W        W18881   0.736  21.476  18.235
14921W        W18882   1.110  19.942  18.986
14922W        W18883   1.764  20.571  21.299
14923W        W18884   1.594  18.929  19.289
14924W        W18885   2.950  18.526  19.717
14925W        W18886   2.670  21.808  20.045
14926W        W18887   2.082  21.456  20.385
14927W        W18888   1.478  20.493  20.346
14928W        W18889   3.248  21.216  20.472
14929W        W18890   0.942  18.719  19.241
14930W        W18891   1.464  21.016  20.201
14931W        W18892   0.947  18.947  18.266
14932W        W18893   1.748  19.556  20.660
14933W        W18894   2.596  18.422  20.530
14934W        W18895   0.016  20.265  20.415
14935W        W18896   1.720  20.083  18.573
14936W        W18897   0.988  18.398  18.343
14937W        W18898   1.726  19.479  19.394
14938W        W18899   2.696  18.455  21.093
14939W        W18900   1.284  20.467  21.202
14940W        W18901   2.088  20.249  21.419
14941W        W18902   2.705  20.279  21.312
14942W        W18903   1.989  18.419  21.817
14943W        W18904   1.211  19.035  20.210
14944W        W18905   0.637  18.991  19.608
14945W        W18906   0.423  21.703  19.284
14946W        W18907   1.755  21.033  21.409
14947W        W18908   0.790  20.518  18.768
14948W        W18909   2.470  19.903  19.989
14949W        W18910   2.750  19.702  20.388
14950W        W18911   1.955  20.376  20.322
14951W        W18912   2.425  20.750  18.454
14952W        W18913   2.097  18.771  19.782
14953W        W18914   3.576  19.049  19.050
14954W        W18915   0.070  21.638  21.081
14955W        W18916   0.487  20.864  20.613
14956W        W18917   0.054  21.710  18.845
14957W        W18918   1.953  18.980  20.651
14958W        W18919   1.316  21.003  18.500
14959W        W18920   3.221  21.385  18.686
14960W        W18921   2.196  20.038  18.700
14961W        W18922   1.039  19.229  19.217
14962W        W18923   1.871  19.139  18.269
14963W        W18924   2.455  20.704  21.447
14964W        W18925   2.808  18.610  19.064
14965W        W18926   0.138  18.458  18.512
14966W        W18927   1.424  20.777  20.802
14967W        W18928   1.223  20.693  19.894
14968W        W18929   0.965  20.645  18.292
14969W        W18930   0.206  20.886  19.060
14970W        W18931   0.710  19.956  21.502
14971W        W18932   1.414  18.516  21.688
14972W        W18933   2.123  18.658  21.044
14973W        W18934   1.318  18.426  19.325
14974W        W18935   2.377  18.503  18.830
14975W        W18936   0.322  18.435  20.407
14976W        W18937   0.370  19.398  19.777
14977W        W18938   3.059  18.506  20.183
14978W        W18939   0.481  19.004  18.997
14979W        W18940   3.052  18.692  20.613
14980W        W18941   3.448  19.895  18.298
14981W        W18942   0.740  18.653  20.117
14982W        W18943   1.854  19.225  21.057
14983W        W18944   0.002  18.915  18.535
14984W        W18945   0.788  20.304  21.096
14985W        W18946   2.146  19.702  20.275
14986W        W18947   2.013  21.781  18.571
14987W        W18948   0.159  20.288  18.268
14988W        W18949   0.894  20.699  21.394
14989W        W18950   0.415  19.866  21.025
14990W        W18951   1.406  19.971  20.819
14991W        W18952   3.174  18.330  21.081
14992W        W18953   3.572  19.940  21.072
14993W        W18954   3.560  20.140  18.758
14994W        W18955   2.423  20.472  18.857
14995W        W18956   2.897  21.772  18.552
14996W        W18957   2.074  19.762  21.694
14997W        W18958   0.404  20.729  21.734
14998W        W18959   3.610  18.651  21.686
14999W        W18960   3.328  19.579  20.307
15000W        W18961   1.636  21.709  21.784
15001W        W18962   1.491  18.338  18.511
15002W        W18963   3.030  20.937  18.454
15003W        W18964   0.799  19.030  21.340
15004W        W18965   1.233  21.024  21.202
15005W        W18966   3.359  19.015  21.000
15006W        W18967   2.570  21.674  18.968
15007W        W18968   2.809  20.293  20.335
15008W        W18969   1.059  18.709  21.002
15009W        W18970   1.528  19.778  21.759
15010W        W18971   1.031  20.957  18.953
15011W        W18972   2.786  20.455  19.217
15012W        W18973   0.554  19.081  20.941
15013W        W18974   1.883  21.143  19.405
15014W        W18975   3.633  19.703  19.586
15015W        W18976   1.855  18.336  21.305
15016W        W18977   2.635  21.041  20.384
15017W        W18978   2.938  21.385  20.092
15018W        W18979   2.157  21.187  18.520
15019W        W18980   0.167  21.079  21.362
15020W        W18981   0.910  19.071  20.600
15021W        W18982   0.880  18.419  19.710
15022W        W18983   2.501  19.261  20.402
15023W        W18984   1.299  20.432  18.602
15024W        W18985   3.297  20.374  20.101
15025W        W18986   0.624  21.132  21.524
15026W        W18987   3.011  21.814  19.321
15027W        W18988   1.110  18.834  19.766
15028W        W18989   0.879  20.327  19.856
15029W        W18990   1.192  21.738  20.606
15030W        W18991   3.259  21.834  21.638
15031W        W18992   2.418  20.022  20.571
15032W        W18993   0.267  19.820  18.486
15033W        W18994   3.401  21.478  19.183
15034W        W18995   3.238  18.802  18.802
15035W        W18996   1.377  18.321  21.205
15036W        W18997   3.083  21.123  19.663
15037W        W18998   3.112  19.679  19.568
15038W        W18999   1.229  19.352  19.784
15039W        W19000   1.474  19.614  21.108
15040W        W19001   2.585  20.767  20.971
15041W        W19002   1.235  19.221  21.083
15042W        W19003   1.214  21.687  19.699
15043W        W19004   0.531  21.646  21.333
15044W        W19005   0.643  21.007  18.463
15045W        W19006   3.160  20.765  19.273
15046W        W19007   0.764  19.557  21.159
15047W        W19008   3.537  19.487  18.640
15048W        W19009   1.282  20.544  19.111
15049W        W19010   2.381  19.926  21.192
15050W        W19011   2.272  19.554  20.736
15051W        W19012   0.832  19.926  20.765
15052W        W19013   3.042  21.814  20.594
15053W        W19014   2.833  18.448  21.588
15054W        W19015   0.497  18.598  21.175
15055W        W19016   0.836  19.621  20.228
15056W        W19017   1.205  19.435  18.350
15057W        W19018   0.008  21.194  20.895
15058W        W19019   1.593  19.903  20.338
15059W        W19020   1.416  18.928  18.443
15060W        W19021   0.551  19.744  19.224
15061W        W19022   0.322  21.596  20.661
15062W        W19023   3.117  19.822  18.769
15063W        W19024   3.212  18.738  21.455
15064W        W19025   2.648  20.947  19.418
15065W        W19026   0.246  19.871  21.595
15066W        W19027   3.212  18.335  18.891
15067W        W19028   2.732  20.810  18.902
15068W        W19029   1.634  19.868  18.987
15069W        W19030   2.821  18.672  18.510
15070W        W19031   2.886  19.279  20.696
15071W        W19032   0.595  19.872  19.903
15072W        W19033   0.889  20.811  19.552
15073W        W19034   2.652  19.431  19.517
15074W        W19035   1.675  18.810  20.213
15075W        W19036   3.637  20.721  20.724
15076W        W19037   3.555  18.708  20.285
15077W        W19038   0.094  21.538  19.661
15078W        W19039   0.603  20.725  19.197
15079W        W19040   0.518  18.342  21.750
15080W        W19041   1.637  21.195  21.852
15081W        W19042   3.392  20.163  19.642
15082W        W19043   2.746  20.340  18.522
15083W        W19044   2.041  21.861  20.734
15084W        W19045   2.898  20.583  21.771
15085W        W19046   1.713  18.293  19.051
15086W        W19047   2.426  19.162  19.910
15087W        W19048   0.112  20.749  20.242
15088W        W19049   1.365  18.711  18.883
15089W        W19050   1.169  20.195  21.732
15090W        W19051   2.163  19.176  19.446
15091W        W19052   2.368  20.586  20.568
15092W        W19053   0.522  21.191  21.003
15093W        W19054   1.113  21.174  21.726
15094W        W19055   0.964  18.971  18.740
15095W        W19056   2.481  19.113  19.065
15096W        W19057   2.439  21.221  21.302
15097W        W19058   1.124  19.813  19.901
15098W        W19059   0.779  21.511  20.766
15099W        W19060   3.524  21.628  18.367
15100W        W19061   0.387  20.300  21.363
15101W        W19062   2.382  20.562  20.051
15102W        W19063   0.818  20.211  19.293
15103W        W19064   1.189  21.218  20.688
15104W        W19065   1.567  18.637  19.729
15105W        W19066   0.178  20.621  18.659
15106W        W19067   1.697  19.572  18.529
15107W        W19068   0.343  20.121  19.548
15108W        W19069   1.633  18.763  21.012
15109W        W19070   3.305  18.472  18.439
15110W        W19071   3.398  20.218  21.538
15111W        W19072   2.052  21.475  21.690
15112W        W19073   3.610  20.569  21.212
15113W        W19074   3.018  21.367  21.823
15114W        W19075   0.757  21.823  20.301
15115W        W19076   3.616  20.445  19.175
15116W        W19077   2.146  19.712  19.688
15117W        W19078   1.913  18.324  19.578
15118W        W19079   0.972  21.308  19.415
15119W        W19080   1.471  19.049  20.640
15120W        W19081   1.171  18.418  20.109
15121W        W19082   0.234  21.240  18.657
15122W        W19083   2.050  20.604  19.375
15123W        W19084   0.925  21.399  21.254
15124W        W19085   0.402  20.222  18.950
15125W        W19086   0.287  18.765  19.949
15126W        W19087   1.835  20.730  20.006
15127W        W19088   0.087  18.584  19.026
15128W        W19089   2.751  19.790  20.953
15129W        W19090   2.628  19.176  18.525
15130W        W19091   3.145  20.848  20.173
15131W        W19092   1.806  21.332  20.004
15132W        W19093   1.218  21.436  18.915
15133W        W19094   2.500  18.339  18.345
15134W        W19095   0.300  21.599  20.086
15135W        W19096   2.497  19.357  21.721
15136W        W19097   0.480  18.887  21.720
15137W        W19098   0.211  19.487  19.053
15138W        W19099   0.902  19.476  18.778
15139W        W19100   2.665  19.803  21.595
15140W        W19101   1.008  20.084  20.304
15141W        W19102   2.482  18.370  19.424
15142W        W19103   1.613  21.801  19.927
15143W        W19104   2.827  21.263  20.864
15144W        W19105   2.411  21.412  19.975
15145W        W19106   2.430  20.392  19.569
15146W        W19107   1.892  18.617  18.640
15147W        W19108   3.573  18.245  19.362
15148W        W19109   1.261  19.880  18.525
15149W        W19110   3.427  19.217  19.515
15150W        W19111   2.119  20.387  18.392
15151W        W19112   3.055  20.587  21.140
15152W        W19113   2.709  21.288  18.607
15153W        W19114   1.324  18.963  21.513
15154W        W19115   1.144  19.547  20.754
15155W        W19116   3.236  21.042  21.031
15156W        W19117   2.336  18.992  21.408
15157W        W19118   0.180  19.463  21.185
15158W        W19119   1.940  19.940  20.911
15159W        W19120   0.297  20.698  19.568
15160W        W19121   0.444  19.995  20.458
15161W        W19122   2.761  20.281  20.808
15162W        W19123   2.533  21.661  21.619
15163W        W19124   2.429  19.400  21.172
15164W        W19125   2.706  21.454  19.577
15165W        W19126   1.708  21.174  20.900
15166W        W19127   1.193  21.529  20.169
15167W        W19128   2.998  20.700  20.588
15168W        W19129   2.048  20.772  21.725
15169W        W19130   0.653  20.725  20.064
15170W        W19131   2.999  20.484  19.709
15171W        W19132   2.640  21.550  20.460
15172W        W19133   0.618  21.279  20.330
15173W        W19134   1.639  19.331  21.540
15174W        W19135   2.090  21.497  19.051
15175W        W19136   1.398  20.752  21.689
15176W        W19137   1.524  20.990  19.066
15177W        W19138   0.745  19.730  18.325
15178W        W19139   3.165  20.439  22.518
15179W        W19140   1.213  21.515  22.071
15180W        W19141   1.296  19.667  23.054
15181W        W19142   0.811  19.515  23.218
15182W        W19143   1.802  20.330  22.652
15183W        W19144   2.231  19.522  22.229
15184W        W19145   1.788  20.757  22.198
15185W        W19146   0.484  18.596  23.033
15186W        W19147   3.172  18.990  21.984
15187W        W19148   3.378  20.964  22.481
15188W        W19149   0.507  21.750  22.235
15189W        W19150   0.900  21.796  22.911
15190W        W19151   2.725  19.990  23.071
15191W        W19152   2.691  19.678  22.098
15192W        W19153   2.078  18.688  22.869
15193W        W19154   0.735  21.382  22.552
15194W        W19155   1.691  21.455  22.410
15195W        W19156   1.270  20.171  23.137
15196W        W19157   0.740  20.210  21.995
15197W        W19158   0.395  19.243  22.174
15198W        W19159   0.457  21.199  22.968
15199W        W19160   1.588  20.682  23.216
15200W        W19161   1.846  19.183  22.614
15201W        W19162   0.012  19.933  22.808
15202W        W19163   2.327  19.612  22.759
15203W        W19164   2.193  18.996  22.320
15204W        W19165   2.592  18.876  23.101
15205W        W19166   1.383  19.303  22.477
15206W        W19167   3.004  19.071  22.822
15207W        W19168   3.371  19.553  22.767
15208W        W19169   1.040  18.306  22.473
15209W        W19170   3.511  21.089  21.953
15210W        W19171   2.335  18.879  21.885
15211W        W19172   2.046  20.956  22.612
15212W        W19173   2.145  21.523  23.204
15213W        W19174   3.319  20.526  22.048
15214W        W19175   1.754  20.009  23.109
15215W        W19176   3.111  19.272  22.369
15216W        W19177   2.920  21.312  22.758
15217W        W19178   3.303  18.646  22.999
15218W        W19179   1.489  21.522  22.964
15219W        W19180   0.604  18.702  22.222
15220W        W19181   0.736  21.476  21.880
15221W        W19182   1.110  19.942  22.631
15222W        W19183   1.594  18.929  22.934
15223W        W19184   0.942  18.719  22.886
15224W        W19185   0.947  18.947  21.911
15225W        W19186   1.720  20.083  22.218
15226W        W19187   0.988  18.398  21.988
15227W        W19188   1.726  19.479  23.039
15228W        W19189   0.637  18.991  23.253
15229W        W19190   0.423  21.703  22.929
15230W        W19191   0.790  20.518  22.413
15231W        W19192   2.425  20.750  22.099
15232W        W19193   3.576  19.049  22.695
15233W        W19194   0.054  21.710  22.490
15234W        W19195   1.316  21.003  22.145
15235W        W19196   3.221  21.385  22.331
15236W        W19197   2.196  20.038  22.345
15237W        W19198   1.039  19.229  22.862
15238W        W19199   1.871  19.139  21.914
15239W        W19200   2.808  18.610  22.709
15240W        W19201   0.138  18.458  22.157
15241W        W19202   0.965  20.645  21.937
15242W        W19203   0.206  20.886  22.705
15243W        W19204   1.318  18.426  22.970
15244W        W19205   2.377  18.503  22.475
15245W        W19206   0.481  19.004  22.642
15246W        W19207   3.448  19.895  21.943
15247W        W19208   0.002  18.915  22.180
15248W        W19209   2.013  21.781  22.216
15249W        W19210   0.159  20.288  21.913
15250W        W19211   3.560  20.140  22.403
15251W        W19212   2.423  20.472  22.502
15252W        W19213   2.897  21.772  22.197
15253W        W19214   1.491  18.338  22.156
15254W        W19215   3.030  20.937  22.099
15255W        W19216   2.570  21.674  22.613
15256W        W19217   1.031  20.957  22.598
15257W        W19218   2.786  20.455  22.862
15258W        W19219   1.883  21.143  23.050
15259W        W19220   3.633  19.703  23.231
15260W        W19221   2.157  21.187  22.165
15261W        W19222   1.299  20.432  22.247
15262W        W19223   3.011  21.814  22.966
15263W        W19224   0.267  19.820  22.131
15264W        W19225   3.401  21.478  22.828
15265W        W19226   3.238  18.802  22.447
15266W        W19227   0.643  21.007  22.108
15267W        W19228   3.160  20.765  22.918
15268W        W19229   3.537  19.487  22.285
15269W        W19230   1.282  20.544  22.756
15270W        W19231   1.205  19.435  21.995
15271W        W19232   1.416  18.928  22.088
15272W        W19233   0.551  19.744  22.869
15273W        W19234   2.648  20.947  23.063
15274W        W19235   3.212  18.335  22.536
15275W        W19236   2.732  20.810  22.547
15276W        W19237   1.634  19.868  22.632
15277W        W19238   2.821  18.672  22.155
15278W        W19239   0.889  20.811  23.197
15279W        W19240   2.652  19.431  23.162
15280W        W19241   0.094  21.538  23.306
15281W        W19242   0.603  20.725  22.842
15282W        W19243   3.392  20.163  23.287
15283W        W19244   2.746  20.340  22.167
15284W        W19245   1.713  18.293  22.696
15285W        W19246   1.365  18.711  22.528
15286W        W19247   2.163  19.176  23.091
15287W        W19248   0.964  18.971  22.385
15288W        W19249   2.481  19.113  22.710
15289W        W19250   3.524  21.628  22.012
15290W        W19251   0.178  20.621  22.304
15291W        W19252   1.697  19.572  22.174
15292W        W19253   0.343  20.121  23.193
15293W        W19254   3.305  18.472  22.084
15294W        W19255   3.616  20.445  22.820
15295W        W19256   1.913  18.324  23.223
15296W        W19257   0.972  21.308  23.060
15297W        W19258   0.234  21.240  22.302
15298W        W19259   2.050  20.604  23.020
15299W        W19260   0.402  20.222  22.595
15300W        W19261   0.087  18.584  22.671
15301W        W19262   2.628  19.176  22.170
15302W        W19263   1.218  21.436  22.560
15303W        W19264   2.500  18.339  21.990
15304W        W19265   0.211  19.487  22.698
15305W        W19266   0.902  19.476  22.423
15306W        W19267   2.430  20.392  23.214
15307W        W19268   1.892  18.617  22.285
15308W        W19269   3.573  18.245  23.007
15309W        W19270   1.261  19.880  22.170
15310W        W19271   3.427  19.217  23.160
15311W        W19272   2.119  20.387  22.037
15312W        W19273   2.709  21.288  22.252
15313W        W19274   0.297  20.698  23.213
15314W        W19275   2.706  21.454  23.222
15315W        W19276   2.090  21.497  22.696
15316W        W19277   1.524  20.990  22.711
15317W        W19278   0.745  19.730  21.970
15318W        W19279   0.126  22.628   3.104
15319W        W19280   0.888  21.908   2.906
15320W        W19281   2.582  22.296   1.793
15321W        W19282   2.231  23.167   0.363
15322W        W19283   2.801  22.601   3.454
15323W        W19284   0.167  22.393   2.579
15324W        W19285   1.113  23.076   3.262
15325W        W19286   3.572  22.935   1.761
15326W        W19287   1.313  23.140   2.069
15327W        W19288   0.071  23.124   3.570
15328W        W19289   0.484  22.241   1.167
15329W        W19290   2.887  22.682   2.023
15330W        W19291   3.172  22.635   0.118
15331W        W19292   0.697  22.195   2.471
15332W        W19293   3.320  23.213   2.746
15333W        W19294   1.705  22.797   1.571
15334W        W19295   2.078  22.333   1.003
15335W        W19296   0.106  22.526   1.285
15336W        W19297   2.892  23.133   1.759
15337W        W19298   3.083  23.126   0.008
15338W        W19299   1.292  22.221   2.364
15339W        W19300   3.521  21.983   1.661
15340W        W19301   0.395  22.888   0.308
15341W        W19302   1.846  22.828   0.748
15342W        W19303   2.906  23.079   3.118
15343W        W19304   2.327  23.257   0.893
15344W        W19305   0.547  23.167   2.471
15345W        W19306   0.422  21.960   1.552
15346W        W19307   2.190  22.307   2.113
15347W        W19308   1.838  22.492   3.276
15348W        W19309   2.193  22.641   0.454
15349W        W19310   2.343  22.115   3.247
15350W        W19311   2.792  22.583   2.965
15351W        W19312   2.592  22.521   1.235
15352W        W19313   1.383  22.948   0.611
15353W        W19314   0.952  22.232   3.275
15354W        W19315   3.004  22.716   0.956
15355W        W19316   3.371  23.198   0.901
15356W        W19317   1.040  21.951   0.607
15357W        W19318   3.361  22.485   1.642
15358W        W19319   2.335  22.524   0.019
15359W        W19320   3.508  22.050   2.489
15360W        W19321   2.120  21.872   1.795
15361W        W19322   0.732  22.775   1.858
15362W        W19323   3.339  22.765   2.210
15363W        W19324   3.606  22.165   2.984
15364W        W19325   1.972  22.886   2.023
15365W        W19326   3.111  22.917   0.503
15366W        W19327   0.339  22.652   2.143
15367W        W19328   2.399  22.629   2.606
15368W        W19329   3.303  22.291   1.133
15369W        W19330   0.077  22.931   2.472
15370W        W19331   2.937  22.726   1.490
15371W        W19332   3.348  22.877   3.267
15372W        W19333   0.604  22.347   0.356
15373W        W19334   1.708  22.001   2.166
15374W        W19335   1.594  22.574   1.068
15375W        W19336   2.950  22.171   1.496
15376W        W19337   0.942  22.364   1.020
15377W        W19338   0.947  22.592   0.045
15378W        W19339   1.748  23.201   2.439
15379W        W19340   2.596  22.067   2.309
15380W        W19341   0.988  22.043   0.122
15381W        W19342   1.726  23.124   1.173
15382W        W19343   2.696  22.100   2.872
15383W        W19344   1.989  22.064   3.596
15384W        W19345   1.211  22.680   1.989
15385W        W19346   0.637  22.636   1.387
15386W        W19347   2.097  22.416   1.561
15387W        W19348   3.576  22.694   0.829
15388W        W19349   1.953  22.625   2.430
15389W        W19350   1.039  22.874   0.996
15390W        W19351   1.871  22.784   0.048
15391W        W19352   2.808  22.255   0.843
15392W        W19353   0.138  22.103   0.291
15393W        W19354   1.414  22.161   3.467
15394W        W19355   2.123  22.303   2.823
15395W        W19356   1.318  22.071   1.104
15396W        W19357   2.377  22.148   0.609
15397W        W19358   0.322  22.080   2.186
15398W        W19359   3.059  22.151   1.962
15399W        W19360   0.481  22.649   0.776
15400W        W19361   3.052  22.337   2.392
15401W        W19362   0.740  22.298   1.896
15402W        W19363   1.854  22.870   2.836
15403W        W19364   0.002  22.560   0.314
15404W        W19365   3.174  21.975   2.860
15405W        W19366   3.610  22.296   3.465
15406W        W19367   3.328  23.224   2.086
15407W        W19368   1.491  21.983   0.290
15408W        W19369   0.799  22.675   3.119
15409W        W19370   3.359  22.660   2.779
15410W        W19371   1.059  22.354   2.781
15411W        W19372   0.554  22.726   2.720
15412W        W19373   1.855  21.981   3.084
15413W        W19374   0.910  22.716   2.379
15414W        W19375   0.880  22.064   1.489
15415W        W19376   2.501  22.906   2.181
15416W        W19377   1.110  22.479   1.545
15417W        W19378   3.238  22.447   0.581
15418W        W19379   1.377  21.966   2.984
15419W        W19380   1.229  22.997   1.563
15420W        W19381   1.235  22.866   2.862
15421W        W19382   3.537  23.132   0.419
15422W        W19383   2.272  23.199   2.515
15423W        W19384   2.833  22.093   3.367
15424W        W19385   0.497  22.243   2.954
15425W        W19386   0.836  23.266   2.007
15426W        W19387   1.205  23.080   0.129
15427W        W19388   1.416  22.573   0.222
15428W        W19389   3.212  22.383   3.234
15429W        W19390   3.212  21.980   0.670
15430W        W19391   2.821  22.317   0.289
15431W        W19392   2.886  22.924   2.475
15432W        W19393   1.675  22.455   1.992
15433W        W19394   3.555  22.353   2.064
15434W        W19395   0.518  21.987   3.529
15435W        W19396   1.713  21.938   0.830
15436W        W19397   2.426  22.807   1.689
15437W        W19398   1.365  22.356   0.662
15438W        W19399   2.163  22.821   1.225
15439W        W19400   0.964  22.616   0.519
15440W        W19401   2.481  22.758   0.844
15441W        W19402   1.567  22.282   1.508
15442W        W19403   1.697  23.217   0.308
15443W        W19404   1.633  22.408   2.791
15444W        W19405   3.305  22.117   0.218
15445W        W19406   1.913  21.969   1.357
15446W        W19407   1.471  22.694   2.419
15447W        W19408   1.171  22.063   1.888
15448W        W19409   0.287  22.410   1.728
15449W        W19410   0.087  22.229   0.805
15450W        W19411   2.628  22.821   0.304
15451W        W19412   2.500  21.984   0.124
15452W        W19413   2.497  23.002   3.500
15453W        W19414   0.480  22.532   3.499
15454W        W19415   0.211  23.132   0.832
15455W        W19416   2.482  22.015   1.203
15456W        W19417   1.892  22.262   0.419
15457W        W19418   3.573  21.890   1.141
15458W        W19419   3.427  22.862   1.294
15459W        W19420   1.324  22.608   3.292
15460W        W19421   1.144  23.192   2.533
15461W        W19422   2.336  22.637   3.187
15462W        W19423   0.180  23.108   2.964
15463W        W19424   2.429  23.045   2.951
15464W        W19425   1.639  22.976   3.319
15465W        W19426   0.126  22.628   6.748
15466W        W19427   0.888  21.908   6.550
15467W        W19428   2.582  22.296   5.437
15468W        W19429   2.231  23.167   4.007
15469W        W19430   2.801  22.601   7.098
15470W        W19431   0.167  22.393   6.223
15471W        W19432   1.113  23.076   6.906
15472W        W19433   3.572  22.935   5.405
15473W        W19434   1.313  23.140   5.713
15474W        W19435   0.071  23.124   7.214
15475W        W19436   0.484  22.241   4.811
15476W        W19437   2.887  22.682   5.667
15477W        W19438   3.172  22.635   3.762
15478W        W19439   0.697  22.195   6.115
15479W        W19440   3.320  23.213   6.390
15480W        W19441   1.705  22.797   5.215
15481W        W19442   2.078  22.333   4.647
15482W        W19443   0.106  22.526   4.929
15483W        W19444   2.892  23.133   5.403
15484W        W19445   3.083  23.126   3.652
15485W        W19446   1.292  22.221   6.008
15486W        W19447   3.521  21.983   5.305
15487W        W19448   0.395  22.888   3.952
15488W        W19449   1.846  22.828   4.392
15489W        W19450   2.906  23.079   6.762
15490W        W19451   2.327  23.257   4.537
15491W        W19452   0.422  21.960   5.196
15492W        W19453   2.190  22.307   5.757
15493W        W19454   1.838  22.492   6.920
15494W        W19455   2.193  22.641   4.098
15495W        W19456   2.343  22.115   6.891
15496W        W19457   2.792  22.583   6.609
15497W        W19458   2.592  22.521   4.879
15498W        W19459   1.383  22.948   4.255
15499W        W19460   0.952  22.232   6.919
15500W        W19461   3.004  22.716   4.600
15501W        W19462   3.371  23.198   4.545
15502W        W19463   1.040  21.951   4.251
15503W        W19464   3.361  22.485   5.286
15504W        W19465   2.335  22.524   3.663
15505W        W19466   3.508  22.050   6.133
15506W        W19467   2.120  21.872   5.439
15507W        W19468   0.732  22.775   5.502
15508W        W19469   3.339  22.765   5.854
15509W        W19470   3.606  22.165   6.628
15510W        W19471   1.972  22.886   5.667
15511W        W19472   3.111  22.917   4.147
15512W        W19473   0.339  22.652   5.787
15513W        W19474   2.399  22.629   6.250
15514W        W19475   3.303  22.291   4.777
15515W        W19476   2.937  22.726   5.134
15516W        W19477   3.348  22.877   6.911
15517W        W19478   0.604  22.347   4.000
15518W        W19479   1.708  22.001   5.810
15519W        W19480   1.594  22.574   4.712
15520W        W19481   2.950  22.171   5.140
15521W        W19482   0.942  22.364   4.664
15522W        W19483   0.947  22.592   3.689
15523W        W19484   1.748  23.201   6.083
15524W        W19485   2.596  22.067   5.953
15525W        W19486   0.988  22.043   3.766
15526W        W19487   1.726  23.124   4.817
15527W        W19488   2.696  22.100   6.516
15528W        W19489   1.989  22.064   7.240
15529W        W19490   1.211  22.680   5.633
15530W        W19491   0.637  22.636   5.031
15531W        W19492   2.097  22.416   5.205
15532W        W19493   3.576  22.694   4.473
15533W        W19494   1.953  22.625   6.074
15534W        W19495   1.039  22.874   4.640
15535W        W19496   1.871  22.784   3.692
15536W        W19497   2.808  22.255   4.487
15537W        W19498   0.138  22.103   3.935
15538W        W19499   1.414  22.161   7.111
15539W        W19500   2.123  22.303   6.467
15540W        W19501   1.318  22.071   4.748
15541W        W19502   2.377  22.148   4.253
15542W        W19503   0.322  22.080   5.830
15543W        W19504   3.059  22.151   5.606
15544W        W19505   0.481  22.649   4.420
15545W        W19506   3.052  22.337   6.036
15546W        W19507   0.740  22.298   5.540
15547W        W19508   1.854  22.870   6.480
15548W        W19509   0.002  22.560   3.958
15549W        W19510   3.174  21.975   6.504
15550W        W19511   3.610  22.296   7.109
15551W        W19512   3.328  23.224   5.730
15552W        W19513   1.491  21.983   3.934
15553W        W19514   0.799  22.675   6.763
15554W        W19515   3.359  22.660   6.423
15555W        W19516   1.059  22.354   6.425
15556W        W19517   0.554  22.726   6.364
15557W        W19518   1.855  21.981   6.728
15558W        W19519   0.910  22.716   6.023
15559W        W19520   0.880  22.064   5.133
15560W        W19521   2.501  22.906   5.825
15561W        W19522   1.110  22.479   5.189
15562W        W19523   3.238  22.447   4.225
15563W        W19524   1.377  21.966   6.628
15564W        W19525   1.229  22.997   5.207
15565W        W19526   1.235  22.866   6.506
15566W        W19527   3.537  23.132   4.063
15567W        W19528   2.272  23.199   6.159
15568W        W19529   2.833  22.093   7.011
15569W        W19530   0.497  22.243   6.598
15570W        W19531   0.836  23.266   5.651
15571W        W19532   1.205  23.080   3.773
15572W        W19533   1.416  22.573   3.866
15573W        W19534   3.212  22.383   6.878
15574W        W19535   3.212  21.980   4.314
15575W        W19536   2.821  22.317   3.933
15576W        W19537   2.886  22.924   6.119
15577W        W19538   1.675  22.455   5.636
15578W        W19539   3.555  22.353   5.708
15579W        W19540   0.518  21.987   7.173
15580W        W19541   1.713  21.938   4.474
15581W        W19542   2.426  22.807   5.333
15582W        W19543   1.365  22.356   4.306
15583W        W19544   2.163  22.821   4.869
15584W        W19545   0.964  22.616   4.163
15585W        W19546   2.481  22.758   4.488
15586W        W19547   1.567  22.282   5.152
15587W        W19548   1.697  23.217   3.952
15588W        W19549   1.633  22.408   6.435
15589W        W19550   3.305  22.117   3.862
15590W        W19551   1.913  21.969   5.001
15591W        W19552   1.471  22.694   6.063
15592W        W19553   1.171  22.063   5.532
15593W        W19554   0.287  22.410   5.372
15594W        W19555   0.087  22.229   4.449
15595W        W19556   2.628  22.821   3.948
15596W        W19557   2.500  21.984   3.768
15597W        W19558   2.497  23.002   7.144
15598W        W19559   0.480  22.532   7.143
15599W        W19560   0.211  23.132   4.476
15600W        W19561   2.482  22.015   4.847
15601W        W19562   1.892  22.262   4.063
15602W        W19563   3.573  21.890   4.785
15603W        W19564   3.427  22.862   4.938
15604W        W19565   1.324  22.608   6.936
15605W        W19566   1.144  23.192   6.177
15606W        W19567   2.336  22.637   6.831
15607W        W19568   2.429  23.045   6.595
15608W        W19569   1.639  22.976   6.963
15609W        W19570   0.126  22.628  10.393
15610W        W19571   0.888  21.908  10.195
15611W        W19572   2.582  22.296   9.082
15612W        W19573   2.231  23.167   7.652
15613W        W19574   2.801  22.601  10.743
15614W        W19575   0.167  22.393   9.868
15615W        W19576   1.113  23.076  10.551
15616W        W19577   3.572  22.935   9.050
15617W        W19578   1.313  23.140   9.358
15618W        W19579   0.071  23.124  10.859
15619W        W19580   0.484  22.241   8.456
15620W        W19581   2.887  22.682   9.312
15621W        W19582   3.172  22.635   7.407
15622W        W19583   0.697  22.195   9.760
15623W        W19584   3.320  23.213  10.035
15624W        W19585   1.705  22.797   8.860
15625W        W19586   2.078  22.333   8.292
15626W        W19587   0.106  22.526   8.574
15627W        W19588   2.892  23.133   9.048
15628W        W19589   3.083  23.126   7.297
15629W        W19590   1.292  22.221   9.653
15630W        W19591   3.521  21.983   8.950
15631W        W19592   0.395  22.888   7.597
15632W        W19593   1.846  22.828   8.037
15633W        W19594   2.906  23.079  10.407
15634W        W19595   2.327  23.257   8.182
15635W        W19596   0.547  23.167   9.760
15636W        W19597   0.422  21.960   8.841
15637W        W19598   2.190  22.307   9.402
15638W        W19599   1.838  22.492  10.565
15639W        W19600   2.193  22.641   7.743
15640W        W19601   2.343  22.115  10.536
15641W        W19602   2.792  22.583  10.254
15642W        W19603   2.592  22.521   8.524
15643W        W19604   1.383  22.948   7.900
15644W        W19605   0.952  22.232  10.564
15645W        W19606   3.004  22.716   8.245
15646W        W19607   3.371  23.198   8.190
15647W        W19608   1.040  21.951   7.896
15648W        W19609   3.361  22.485   8.931
15649W        W19610   2.335  22.524   7.308
15650W        W19611   3.508  22.050   9.778
15651W        W19612   2.120  21.872   9.084
15652W        W19613   0.732  22.775   9.147
15653W        W19614   3.339  22.765   9.499
15654W        W19615   3.606  22.165  10.273
15655W        W19616   1.972  22.886   9.312
15656W        W19617   3.111  22.917   7.792
15657W        W19618   0.339  22.652   9.432
15658W        W19619   2.399  22.629   9.895
15659W        W19620   3.303  22.291   8.422
15660W        W19621   0.077  22.931   9.761
15661W        W19622   2.937  22.726   8.779
15662W        W19623   3.348  22.877  10.556
15663W        W19624   0.604  22.347   7.645
15664W        W19625   1.708  22.001   9.455
15665W        W19626   1.594  22.574   8.357
15666W        W19627   2.950  22.171   8.785
15667W        W19628   0.942  22.364   8.309
15668W        W19629   0.947  22.592   7.334
15669W        W19630   1.748  23.201   9.728
15670W        W19631   2.596  22.067   9.598
15671W        W19632   0.988  22.043   7.411
15672W        W19633   1.726  23.124   8.462
15673W        W19634   2.696  22.100  10.161
15674W        W19635   1.989  22.064  10.885
15675W        W19636   1.211  22.680   9.278
15676W        W19637   0.637  22.636   8.676
15677W        W19638   2.097  22.416   8.850
15678W        W19639   3.576  22.694   8.118
15679W        W19640   1.953  22.625   9.719
15680W        W19641   1.039  22.874   8.285
15681W        W19642   1.871  22.784   7.337
15682W        W19643   2.808  22.255   8.132
15683W        W19644   0.138  22.103   7.580
15684W        W19645   1.414  22.161  10.756
15685W        W19646   2.123  22.303  10.112
15686W        W19647   1.318  22.071   8.393
15687W        W19648   2.377  22.148   7.898
15688W        W19649   0.322  22.080   9.475
15689W        W19650   3.059  22.151   9.251
15690W        W19651   0.481  22.649   8.065
15691W        W19652   3.052  22.337   9.681
15692W        W19653   0.740  22.298   9.185
15693W        W19654   1.854  22.870  10.125
15694W        W19655   0.002  22.560   7.603
15695W        W19656   3.610  22.296  10.754
15696W        W19657   3.328  23.224   9.375
15697W        W19658   1.491  21.983   7.579
15698W        W19659   0.799  22.675  10.408
15699W        W19660   3.359  22.660  10.068
15700W        W19661   1.059  22.354  10.070
15701W        W19662   0.554  22.726  10.009
15702W        W19663   1.855  21.981  10.373
15703W        W19664   0.910  22.716   9.668
15704W        W19665   0.880  22.064   8.778
15705W        W19666   2.501  22.906   9.470
15706W        W19667   1.110  22.479   8.834
15707W        W19668   3.238  22.447   7.870
15708W        W19669   1.377  21.966  10.273
15709W        W19670   1.229  22.997   8.852
15710W        W19671   1.235  22.866  10.151
15711W        W19672   3.537  23.132   7.708
15712W        W19673   2.272  23.199   9.804
15713W        W19674   2.833  22.093  10.656
15714W        W19675   0.497  22.243  10.243
15715W        W19676   0.836  23.266   9.296
15716W        W19677   1.205  23.080   7.418
15717W        W19678   1.416  22.573   7.511
15718W        W19679   3.212  22.383  10.523
15719W        W19680   3.212  21.980   7.959
15720W        W19681   2.821  22.317   7.578
15721W        W19682   2.886  22.924   9.764
15722W        W19683   1.675  22.455   9.281
15723W        W19684   3.555  22.353   9.353
15724W        W19685   0.518  21.987  10.818
15725W        W19686   1.713  21.938   8.119
15726W        W19687   2.426  22.807   8.978
15727W        W19688   1.365  22.356   7.951
15728W        W19689   2.163  22.821   8.514
15729W        W19690   0.964  22.616   7.808
15730W        W19691   2.481  22.758   8.133
15731W        W19692   1.567  22.282   8.797
15732W        W19693   1.697  23.217   7.597
15733W        W19694   1.633  22.408  10.080
15734W        W19695   3.305  22.117   7.507
15735W        W19696   1.913  21.969   8.646
15736W        W19697   1.471  22.694   9.708
15737W        W19698   1.171  22.063   9.177
15738W        W19699   0.287  22.410   9.017
15739W        W19700   0.087  22.229   8.094
15740W        W19701   2.628  22.821   7.593
15741W        W19702   2.500  21.984   7.413
15742W        W19703   2.497  23.002  10.789
15743W        W19704   0.480  22.532  10.788
15744W        W19705   0.211  23.132   8.121
15745W        W19706   2.482  22.015   8.492
15746W        W19707   1.892  22.262   7.708
15747W        W19708   3.573  21.890   8.430
15748W        W19709   3.427  22.862   8.583
15749W        W19710   1.324  22.608  10.581
15750W        W19711   1.144  23.192   9.822
15751W        W19712   2.336  22.637  10.476
15752W        W19713   0.180  23.108  10.253
15753W        W19714   2.429  23.045  10.240
15754W        W19715   1.639  22.976  10.608
15755W        W19716   0.126  22.628  14.037
15756W        W19717   0.888  21.908  13.839
15757W        W19718   2.582  22.296  12.726
15758W        W19719   2.231  23.167  11.296
15759W        W19720   2.801  22.601  14.387
15760W        W19721   0.167  22.393  13.512
15761W        W19722   1.113  23.076  14.195
15762W        W19723   3.572  22.935  12.694
15763W        W19724   1.313  23.140  13.002
15764W        W19725   0.071  23.124  14.503
15765W        W19726   0.484  22.241  12.100
15766W        W19727   2.887  22.682  12.956
15767W        W19728   3.172  22.635  11.051
15768W        W19729   0.697  22.195  13.404
15769W        W19730   3.320  23.213  13.679
15770W        W19731   1.705  22.797  12.504
15771W        W19732   2.078  22.333  11.936
15772W        W19733   0.106  22.526  12.218
15773W        W19734   2.892  23.133  12.692
15774W        W19735   3.083  23.126  10.941
15775W        W19736   1.292  22.221  13.297
15776W        W19737   3.521  21.983  12.594
15777W        W19738   0.395  22.888  11.241
15778W        W19739   1.846  22.828  11.681
15779W        W19740   2.906  23.079  14.051
15780W        W19741   2.327  23.257  11.826
15781W        W19742   0.547  23.167  13.404
15782W        W19743   0.422  21.960  12.485
15783W        W19744   2.190  22.307  13.046
15784W        W19745   1.838  22.492  14.209
15785W        W19746   2.193  22.641  11.387
15786W        W19747   2.343  22.115  14.180
15787W        W19748   2.792  22.583  13.898
15788W        W19749   2.592  22.521  12.168
15789W        W19750   1.383  22.948  11.544
15790W        W19751   0.952  22.232  14.208
15791W        W19752   3.004  22.716  11.889
15792W        W19753   3.371  23.198  11.834
15793W        W19754   1.040  21.951  11.540
15794W        W19755   3.361  22.485  12.575
15795W        W19756   2.335  22.524  10.952
15796W        W19757   3.508  22.050  13.422
15797W        W19758   2.120  21.872  12.728
15798W        W19759   0.732  22.775  12.791
15799W        W19760   3.339  22.765  13.143
15800W        W19761   3.606  22.165  13.917
15801W        W19762   1.972  22.886  12.956
15802W        W19763   3.111  22.917  11.436
15803W        W19764   0.339  22.652  13.076
15804W        W19765   2.399  22.629  13.539
15805W        W19766   3.303  22.291  12.066
15806W        W19767   0.077  22.931  13.405
15807W        W19768   2.937  22.726  12.423
15808W        W19769   3.348  22.877  14.200
15809W        W19770   0.604  22.347  11.289
15810W        W19771   1.708  22.001  13.099
15811W        W19772   1.594  22.574  12.001
15812W        W19773   2.950  22.171  12.429
15813W        W19774   0.942  22.364  11.953
15814W        W19775   0.947  22.592  10.978
15815W        W19776   1.748  23.201  13.372
15816W        W19777   2.596  22.067  13.242
15817W        W19778   0.988  22.043  11.055
15818W        W19779   1.726  23.124  12.106
15819W        W19780   2.696  22.100  13.805
15820W        W19781   1.989  22.064  14.529
15821W        W19782   1.211  22.680  12.922
15822W        W19783   0.637  22.636  12.320
15823W        W19784   2.097  22.416  12.494
15824W        W19785   3.576  22.694  11.762
15825W        W19786   1.953  22.625  13.363
15826W        W19787   1.039  22.874  11.929
15827W        W19788   1.871  22.784  10.981
15828W        W19789   2.808  22.255  11.776
15829W        W19790   0.138  22.103  11.224
15830W        W19791   1.414  22.161  14.400
15831W        W19792   2.123  22.303  13.756
15832W        W19793   1.318  22.071  12.037
15833W        W19794   2.377  22.148  11.542
15834W        W19795   0.322  22.080  13.119
15835W        W19796   3.059  22.151  12.895
15836W        W19797   0.481  22.649  11.709
15837W        W19798   3.052  22.337  13.325
15838W        W19799   0.740  22.298  12.829
15839W        W19800   1.854  22.870  13.769
15840W        W19801   0.002  22.560  11.247
15841W        W19802   3.174  21.975  13.793
15842W        W19803   3.610  22.296  14.398
15843W        W19804   3.328  23.224  13.019
15844W        W19805   1.491  21.983  11.223
15845W        W19806   0.799  22.675  14.052
15846W        W19807   3.359  22.660  13.712
15847W        W19808   1.059  22.354  13.714
15848W        W19809   0.554  22.726  13.653
15849W        W19810   1.855  21.981  14.017
15850W        W19811   0.910  22.716  13.312
15851W        W19812   0.880  22.064  12.422
15852W        W19813   2.501  22.906  13.114
15853W        W19814   1.110  22.479  12.478
15854W        W19815   3.238  22.447  11.514
15855W        W19816   1.377  21.966  13.917
15856W        W19817   1.229  22.997  12.496
15857W        W19818   1.235  22.866  13.795
15858W        W19819   3.537  23.132  11.352
15859W        W19820   2.272  23.199  13.448
15860W        W19821   2.833  22.093  14.300
15861W        W19822   0.497  22.243  13.887
15862W        W19823   0.836  23.266  12.940
15863W        W19824   1.205  23.080  11.062
15864W        W19825   1.416  22.573  11.155
15865W        W19826   3.212  22.383  14.167
15866W        W19827   3.212  21.980  11.603
15867W        W19828   2.821  22.317  11.222
15868W        W19829   2.886  22.924  13.408
15869W        W19830   1.675  22.455  12.925
15870W        W19831   3.555  22.353  12.997
15871W        W19832   0.518  21.987  14.462
15872W        W19833   1.713  21.938  11.763
15873W        W19834   2.426  22.807  12.622
15874W        W19835   1.365  22.356  11.595
15875W        W19836   2.163  22.821  12.158
15876W        W19837   0.964  22.616  11.452
15877W        W19838   2.481  22.758  11.777
15878W        W19839   1.567  22.282  12.441
15879W        W19840   1.697  23.217  11.241
15880W        W19841   1.633  22.408  13.724
15881W        W19842   3.305  22.117  11.151
15882W        W19843   1.913  21.969  12.290
15883W        W19844   1.471  22.694  13.352
15884W        W19845   1.171  22.063  12.821
15885W        W19846   0.287  22.410  12.661
15886W        W19847   0.087  22.229  11.738
15887W        W19848   2.628  22.821  11.237
15888W        W19849   2.500  21.984  11.057
15889W        W19850   2.497  23.002  14.433
15890W        W19851   0.480  22.532  14.432
15891W        W19852   0.211  23.132  11.765
15892W        W19853   2.482  22.015  12.136
15893W        W19854   1.892  22.262  11.352
15894W        W19855   3.573  21.890  12.074
15895W        W19856   3.427  22.862  12.227
15896W        W19857   1.324  22.608  14.225
15897W        W19858   1.144  23.192  13.466
15898W        W19859   2.336  22.637  14.120
15899W        W19860   0.180  23.108  13.897
15900W        W19861   2.429  23.045  13.884
15901W        W19862   1.639  22.976  14.252
15902W        W19863   0.126  22.628  17.681
15903W        W19864   0.888  21.908  17.483
15904W        W19865   2.582  22.296  16.370
15905W        W19866   2.231  23.167  14.940
15906W        W19867   2.801  22.601  18.031
15907W        W19868   0.167  22.393  17.156
15908W        W19869   1.113  23.076  17.839
15909W        W19870   3.572  22.935  16.338
15910W        W19871   1.313  23.140  16.646
15911W        W19872   0.071  23.124  18.147
15912W        W19873   0.484  22.241  15.744
15913W        W19874   2.887  22.682  16.600
15914W        W19875   3.172  22.635  14.695
15915W        W19876   0.697  22.195  17.048
15916W        W19877   3.320  23.213  17.323
15917W        W19878   1.705  22.797  16.148
15918W        W19879   2.078  22.333  15.580
15919W        W19880   0.106  22.526  15.862
15920W        W19881   2.892  23.133  16.336
15921W        W19882   3.083  23.126  14.585
15922W        W19883   1.292  22.221  16.941
15923W        W19884   3.521  21.983  16.238
15924W        W19885   0.395  22.888  14.885
15925W        W19886   1.846  22.828  15.325
15926W        W19887   2.906  23.079  17.695
15927W        W19888   2.327  23.257  15.470
15928W        W19889   0.547  23.167  17.048
15929W        W19890   0.422  21.960  16.129
15930W        W19891   2.190  22.307  16.690
15931W        W19892   1.838  22.492  17.853
15932W        W19893   2.193  22.641  15.031
15933W        W19894   2.343  22.115  17.824
15934W        W19895   2.792  22.583  17.542
15935W        W19896   2.592  22.521  15.812
15936W        W19897   1.383  22.948  15.188
15937W        W19898   0.952  22.232  17.852
15938W        W19899   3.004  22.716  15.533
15939W        W19900   3.371  23.198  15.478
15940W        W19901   1.040  21.951  15.184
15941W        W19902   3.361  22.485  16.219
15942W        W19903   2.335  22.524  14.596
15943W        W19904   3.508  22.050  17.066
15944W        W19905   2.120  21.872  16.372
15945W        W19906   0.732  22.775  16.435
15946W        W19907   3.339  22.765  16.787
15947W        W19908   3.606  22.165  17.561
15948W        W19909   1.972  22.886  16.600
15949W        W19910   3.111  22.917  15.080
15950W        W19911   0.339  22.652  16.720
15951W        W19912   2.399  22.629  17.183
15952W        W19913   3.303  22.291  15.710
15953W        W19914   0.077  22.931  17.049
15954W        W19915   2.937  22.726  16.067
15955W        W19916   3.348  22.877  17.844
15956W        W19917   0.604  22.347  14.933
15957W        W19918   1.708  22.001  16.743
15958W        W19919   1.594  22.574  15.645
15959W        W19920   2.950  22.171  16.073
15960W        W19921   0.942  22.364  15.597
15961W        W19922   0.947  22.592  14.622
15962W        W19923   1.748  23.201  17.016
15963W        W19924   2.596  22.067  16.886
15964W        W19925   0.988  22.043  14.699
15965W        W19926   1.726  23.124  15.750
15966W        W19927   2.696  22.100  17.449
15967W        W19928   1.989  22.064  18.173
15968W        W19929   1.211  22.680  16.566
15969W        W19930   0.637  22.636  15.964
15970W        W19931   2.097  22.416  16.138
15971W        W19932   3.576  22.694  15.406
15972W        W19933   1.953  22.625  17.007
15973W        W19934   1.039  22.874  15.573
15974W        W19935   1.871  22.784  14.625
15975W        W19936   2.808  22.255  15.420
15976W        W19937   0.138  22.103  14.868
15977W        W19938   1.414  22.161  18.044
15978W        W19939   2.123  22.303  17.400
15979W        W19940   1.318  22.071  15.681
15980W        W19941   2.377  22.148  15.186
15981W        W19942   0.322  22.080  16.763
15982W        W19943   3.059  22.151  16.539
15983W        W19944   0.481  22.649  15.353
15984W        W19945   3.052  22.337  16.969
15985W        W19946   0.740  22.298  16.473
15986W        W19947   1.854  22.870  17.413
15987W        W19948   0.002  22.560  14.891
15988W        W19949   3.174  21.975  17.437
15989W        W19950   3.610  22.296  18.042
15990W        W19951   3.328  23.224  16.663
15991W        W19952   1.491  21.983  14.867
15992W        W19953   0.799  22.675  17.696
15993W        W19954   3.359  22.660  17.356
15994W        W19955   1.059  22.354  17.358
15995W        W19956   0.554  22.726  17.297
15996W        W19957   1.855  21.981  17.661
15997W        W19958   0.910  22.716  16.956
15998W        W19959   0.880  22.064  16.066
15999W        W19960   2.501  22.906  16.758
16000W        W19961   1.110  22.479  16.122
16001W        W19962   3.238  22.447  15.158
16002W        W19963   1.377  21.966  17.561
16003W        W19964   1.229  22.997  16.140
16004W        W19965   1.235  22.866  17.439
16005W        W19966   3.537  23.132  14.996
16006W        W19967   2.272  23.199  17.092
16007W        W19968   2.833  22.093  17.944
16008W        W19969   0.497  22.243  17.531
16009W        W19970   0.836  23.266  16.584
16010W        W19971   1.205  23.080  14.706
16011W        W19972   1.416  22.573  14.799
16012W        W19973   3.212  22.383  17.811
16013W        W19974   3.212  21.980  15.247
16014W        W19975   2.821  22.317  14.866
16015W        W19976   2.886  22.924  17.052
16016W        W19977   1.675  22.455  16.569
16017W        W19978   3.555  22.353  16.641
16018W        W19979   0.518  21.987  18.106
16019W        W19980   1.713  21.938  15.407
16020W        W19981   2.426  22.807  16.266
16021W        W19982   1.365  22.356  15.239
16022W        W19983   2.163  22.821  15.802
16023W        W19984   0.964  22.616  15.096
16024W        W19985   2.481  22.758  15.421
16025W        W19986   1.567  22.282  16.085
16026W        W19987   1.697  23.217  14.885
16027W        W19988   1.633  22.408  17.368
16028W        W19989   3.305  22.117  14.795
16029W        W19990   1.913  21.969  15.934
16030W        W19991   1.471  22.694  16.996
16031W        W19992   1.171  22.063  16.465
16032W        W19993   0.287  22.410  16.305
16033W        W19994   0.087  22.229  15.382
16034W        W19995   2.628  22.821  14.881
16035W        W19996   2.500  21.984  14.701
16036W        W19997   2.497  23.002  18.077
16037W        W19998   0.480  22.532  18.076
16038W        W19999   0.211  23.132  15.409
16039W        W20000   2.482  22.015  15.780
16040W        W20001   1.892  22.262  14.996
16041W        W20002   3.573  21.890  15.718
16042W        W20003   3.427  22.862  15.871
16043W        W20004   1.324  22.608  17.869
16044W        W20005   1.144  23.192  17.110
16045W        W20006   2.336  22.637  17.764
16046W        W20007   0.180  23.108  17.541
16047W        W20008   2.429  23.045  17.528
16048W        W20009   1.639  22.976  17.896
16049W        W20010   0.126  22.628  21.325
16050W        W20011   0.888  21.908  21.127
16051W        W20012   2.582  22.296  20.014
16052W        W20013   2.231  23.167  18.584
16053W        W20014   2.801  22.601  21.675
16054W        W20015   0.167  22.393  20.800
16055W        W20016   1.113  23.076  21.483
16056W        W20017   3.572  22.935  19.982
16057W        W20018   1.313  23.140  20.290
16058W        W20019   0.071  23.124  21.791
16059W        W20020   0.484  22.241  19.388
16060W        W20021   2.887  22.682  20.244
16061W        W20022   3.172  22.635  18.339
16062W        W20023   0.697  22.195  20.692
16063W        W20024   3.320  23.213  20.967
16064W        W20025   1.705  22.797  19.792
16065W        W20026   2.078  22.333  19.224
16066W        W20027   0.106  22.526  19.506
16067W        W20028   2.892  23.133  19.980
16068W        W20029   3.083  23.126  18.229
16069W        W20030   1.292  22.221  20.585
16070W        W20031   3.521  21.983  19.882
16071W        W20032   0.395  22.888  18.529
16072W        W20033   1.846  22.828  18.969
16073W        W20034   2.906  23.079  21.339
16074W        W20035   2.327  23.257  19.114
16075W        W20036   0.547  23.167  20.692
16076W        W20037   0.422  21.960  19.773
16077W        W20038   2.190  22.307  20.334
16078W        W20039   1.838  22.492  21.497
16079W        W20040   2.193  22.641  18.675
16080W        W20041   2.343  22.115  21.468
16081W        W20042   2.792  22.583  21.186
16082W        W20043   2.592  22.521  19.456
16083W        W20044   1.383  22.948  18.832
16084W        W20045   0.952  22.232  21.496
16085W        W20046   3.004  22.716  19.177
16086W        W20047   3.371  23.198  19.122
16087W        W20048   1.040  21.951  18.828
16088W        W20049   3.361  22.485  19.863
16089W        W20050   2.335  22.524  18.240
16090W        W20051   3.508  22.050  20.710
16091W        W20052   2.120  21.872  20.016
16092W        W20053   0.732  22.775  20.079
16093W        W20054   3.339  22.765  20.431
16094W        W20055   3.606  22.165  21.205
16095W        W20056   1.972  22.886  20.244
16096W        W20057   3.111  22.917  18.724
16097W        W20058   0.339  22.652  20.364
16098W        W20059   2.399  22.629  20.827
16099W        W20060   3.303  22.291  19.354
16100W        W20061   0.077  22.931  20.693
16101W        W20062   2.937  22.726  19.711
16102W        W20063   3.348  22.877  21.488
16103W        W20064   0.604  22.347  18.577
16104W        W20065   1.708  22.001  20.387
16105W        W20066   1.594  22.574  19.289
16106W        W20067   2.950  22.171  19.717
16107W        W20068   0.942  22.364  19.241
16108W        W20069   0.947  22.592  18.266
16109W        W20070   1.748  23.201  20.660
16110W        W20071   2.596  22.067  20.530
16111W        W20072   0.988  22.043  18.343
16112W        W20073   1.726  23.124  19.394
16113W        W20074   2.696  22.100  21.093
16114W        W20075   1.989  22.064  21.817
16115W        W20076   1.211  22.680  20.210
16116W        W20077   0.637  22.636  19.608
16117W        W20078   2.097  22.416  19.782
16118W        W20079   3.576  22.694  19.050
16119W        W20080   1.953  22.625  20.651
16120W        W20081   1.039  22.874  19.217
16121W        W20082   1.871  22.784  18.269
16122W        W20083   2.808  22.255  19.064
16123W        W20084   0.138  22.103  18.512
16124W        W20085   1.414  22.161  21.688
16125W        W20086   2.123  22.303  21.044
16126W        W20087   1.318  22.071  19.325
16127W        W20088   2.377  22.148  18.830
16128W        W20089   0.322  22.080  20.407
16129W        W20090   3.059  22.151  20.183
16130W        W20091   0.481  22.649  18.997
16131W        W20092   3.052  22.337  20.613
16132W        W20093   0.740  22.298  20.117
16133W        W20094   1.854  22.870  21.057
16134W        W20095   0.002  22.560  18.535
16135W        W20096   3.174  21.975  21.081
16136W        W20097   3.610  22.296  21.686
16137W        W20098   3.328  23.224  20.307
16138W        W20099   1.491  21.983  18.511
16139W        W20100   0.799  22.675  21.340
16140W        W20101   3.359  22.660  21.000
16141W        W20102   1.059  22.354  21.002
16142W        W20103   0.554  22.726  20.941
16143W        W20104   1.855  21.981  21.305
16144W        W20105   0.910  22.716  20.600
16145W        W20106   0.880  22.064  19.710
16146W        W20107   2.501  22.906  20.402
16147W        W20108   1.110  22.479  19.766
16148W        W20109   3.238  22.447  18.802
16149W        W20110   1.377  21.966  21.205
16150W        W20111   1.229  22.997  19.784
16151W        W20112   1.235  22.866  21.083
16152W        W20113   3.537  23.132  18.640
16153W        W20114   2.272  23.199  20.736
16154W        W20115   2.833  22.093  21.588
16155W        W20116   0.497  22.243  21.175
16156W        W20117   0.836  23.266  20.228
16157W        W20118   1.205  23.080  18.350
16158W        W20119   1.416  22.573  18.443
16159W        W20120   3.212  22.383  21.455
16160W        W20121   3.212  21.980  18.891
16161W        W20122   2.821  22.317  18.510
16162W        W20123   2.886  22.924  20.696
16163W        W20124   1.675  22.455  20.213
16164W        W20125   3.555  22.353  20.285
16165W        W20126   0.518  21.987  21.750
16166W        W20127   1.713  21.938  19.051
16167W        W20128   2.426  22.807  19.910
16168W        W20129   1.365  22.356  18.883
16169W        W20130   2.163  22.821  19.446
16170W        W20131   0.964  22.616  18.740
16171W        W20132   2.481  22.758  19.065
16172W        W20133   1.567  22.282  19.729
16173W        W20134   1.697  23.217  18.529
16174W        W20135   1.633  22.408  21.012
16175W        W20136   3.305  22.117  18.439
16176W        W20137   1.913  21.969  19.578
16177W        W20138   1.471  22.694  20.640
16178W        W20139   1.171  22.063  20.109
16179W        W20140   0.287  22.410  19.949
16180W        W20141   0.087  22.229  19.026
16181W        W20142   2.628  22.821  18.525
16182W        W20143   2.500  21.984  18.345
16183W        W20144   2.497  23.002  21.721
16184W        W20145   0.480  22.532  21.720
16185W        W20146   0.211  23.132  19.053
16186W        W20147   2.482  22.015  19.424
16187W        W20148   1.892  22.262  18.640
16188W        W20149   3.573  21.890  19.362
16189W        W20150   3.427  22.862  19.515
16190W        W20151   1.324  22.608  21.513
16191W        W20152   1.144  23.192  20.754
16192W        W20153   2.336  22.637  21.408
16193W        W20154   0.180  23.108  21.185
16194W        W20155   2.429  23.045  21.172
16195W        W20156   1.639  22.976  21.540
16196W        W20157   2.231  23.167  22.229
16197W        W20158   0.484  22.241  23.033
16198W        W20159   3.172  22.635  21.984
16199W        W20160   2.078  22.333  22.869
16200W        W20161   3.083  23.126  21.874
16201W        W20162   0.395  22.888  22.174
16202W        W20163   1.846  22.828  22.614
16203W        W20164   2.327  23.257  22.759
16204W        W20165   2.193  22.641  22.320
16205W        W20166   2.592  22.521  23.101
16206W        W20167   1.383  22.948  22.477
16207W        W20168   3.004  22.716  22.822
16208W        W20169   3.371  23.198  22.767
16209W        W20170   1.040  21.951  22.473
16210W        W20171   2.335  22.524  21.885
16211W        W20172   3.111  22.917  22.369
16212W        W20173   3.303  22.291  22.999
16213W        W20174   0.604  22.347  22.222
16214W        W20175   1.594  22.574  22.934
16215W        W20176   0.942  22.364  22.886
16216W        W20177   0.947  22.592  21.911
16217W        W20178   0.988  22.043  21.988
16218W        W20179   1.726  23.124  23.039
16219W        W20180   0.637  22.636  23.253
16220W        W20181   3.576  22.694  22.695
16221W        W20182   1.039  22.874  22.862
16222W        W20183   1.871  22.784  21.914
16223W        W20184   2.808  22.255  22.709
16224W        W20185   0.138  22.103  22.157
16225W        W20186   1.318  22.071  22.970
16226W        W20187   2.377  22.148  22.475
16227W        W20188   0.481  22.649  22.642
16228W        W20189   0.002  22.560  22.180
16229W        W20190   1.491  21.983  22.156
16230W        W20191   3.238  22.447  22.447
16231W        W20192   3.537  23.132  22.285
16232W        W20193   1.205  23.080  21.995
16233W        W20194   1.416  22.573  22.088
16234W        W20195   3.212  21.980  22.536
16235W        W20196   2.821  22.317  22.155
16236W        W20197   1.713  21.938  22.696
16237W        W20198   1.365  22.356  22.528
16238W        W20199   2.163  22.821  23.091
16239W        W20200   0.964  22.616  22.385
16240W        W20201   2.481  22.758  22.710
16241W        W20202   1.697  23.217  22.174
16242W        W20203   3.305  22.117  22.084
16243W        W20204   1.913  21.969  23.223
16244W        W20205   0.087  22.229  22.671
16245W        W20206   2.628  22.821  22.170
16246W        W20207   2.500  21.984  21.990
16247W        W20208   0.211  23.132  22.698
16248W        W20209   1.892  22.262  22.285
16249W        W20210   3.573  21.890  23.007
16250W        W20211   3.427  22.862  23.160
16251W        W20212   3.728   3.595   3.359
16252W        W20213   4.104   2.488   2.882
16253W        W20214   6.809   2.218   0.652
16254W        W20215   6.939   3.303   2.679
16255W        W20216   4.857   3.294   0.205
16256W        W20217   4.940   1.446   1.188
16257W        W20218   4.455   1.294   1.352
16258W        W20219   5.446   2.109   0.786
16259W        W20220   5.121   3.201   3.141
16260W        W20221   3.770   0.762   3.104
16261W        W20222   4.532   0.042   2.906
16262W        W20223   6.226   0.430   1.793
16263W        W20224   5.875   1.301   0.363
16264W        W20225   6.445   0.735   3.454
16265W        W20226   3.811   0.527   2.579
16266W        W20227   3.910   3.146   3.600
16267W        W20228   5.432   2.536   0.332
16268W        W20229   3.864   1.319   2.025
16269W        W20230   4.757   1.210   3.262
16270W        W20231   7.216   1.069   1.761
16271W        W20232   6.980   2.112   2.620
16272W        W20233   5.288   1.445   1.647
16273W        W20234   5.834   2.784   2.016
16274W        W20235   4.334   2.218   2.248
16275W        W20236   3.693   1.746   1.819
16276W        W20237   4.729   1.718   3.011
16277W        W20238   7.000   1.501   3.265
16278W        W20239   4.616   2.945   1.710
16279W        W20240   5.737   2.634   2.844
16280W        W20241   4.957   1.274   2.069
16281W        W20242   5.249   2.058   1.712
16282W        W20243   6.246   2.831   3.560
16283W        W20244   5.325   2.151   3.570
16284W        W20245   5.306   1.867   3.048
16285W        W20246   3.715   1.258   3.570
16286W        W20247   6.547   2.793   3.169
16287W        W20248   4.128   0.375   1.167
16288W        W20249   4.655   2.633   2.166
16289W        W20250   7.118   2.416   1.456
16290W        W20251   6.531   0.816   2.023
16291W        W20252   6.816   0.769   0.118
16292W        W20253   7.281   1.570   2.424
16293W        W20254   5.248   3.277   2.177
16294W        W20255   7.022   2.743   0.615
16295W        W20256   4.151   3.529   0.369
16296W        W20257   4.544   3.575   1.045
16297W        W20258   4.341   0.329   2.471
16298W        W20259   6.964   1.347   2.746
16299W        W20260   6.369   1.769   1.205
16300W        W20261   6.335   1.457   0.232
16301W        W20262   5.543   2.601   2.372
16302W        W20263   5.349   0.931   1.571
16303W        W20264   5.949   3.018   2.565
16304W        W20265   6.820   1.809   0.987
16305W        W20266   5.722   0.467   1.003
16306W        W20267   4.379   3.161   0.686
16307W        W20268   3.750   0.660   1.285
16308W        W20269   6.536   1.267   1.759
16309W        W20270   3.994   2.884   1.674
16310W        W20271   5.335   3.234   0.544
16311W        W20272   6.727   1.260   0.008
16312W        W20273   3.750   3.018   2.172
16313W        W20274   4.541   2.590   2.652
16314W        W20275   4.914   1.950   1.271
16315W        W20276   4.936   0.355   2.364
16316W        W20277   7.165   0.117   1.661
16317W        W20278   4.384   1.989   0.129
16318W        W20279   4.039   1.022   0.308
16319W        W20280   4.101   2.978   1.102
16320W        W20281   5.232   2.461   1.350
16321W        W20282   6.564   3.320   3.064
16322W        W20283   5.490   0.962   0.748
16323W        W20284   6.873   3.360   1.520
16324W        W20285   6.550   1.213   3.118
16325W        W20286   7.263   2.869   1.252
16326W        W20287   5.890   2.161   2.736
16327W        W20288   3.656   1.712   0.942
16328W        W20289   4.767   2.127   2.515
16329W        W20290   5.971   1.391   0.893
16330W        W20291   5.848   1.881   0.997
16331W        W20292   4.191   1.301   2.471
16332W        W20293   4.176   1.177   3.393
16333W        W20294   4.066   0.094   1.552
16334W        W20295   5.834   0.441   2.113
16335W        W20296   5.482   0.626   3.276
16336W        W20297   5.837   0.775   0.454
16337W        W20298   7.020   3.168   3.208
16338W        W20299   5.987   0.249   3.247
16339W        W20300   7.006   2.550   3.369
16340W        W20301   6.436   0.717   2.965
16341W        W20302   6.236   0.655   1.235
16342W        W20303   4.369   3.365   1.625
16343W        W20304   5.027   1.082   0.611
16344W        W20305   4.596   0.366   3.275
16345W        W20306   6.648   0.850   0.956
16346W        W20307   7.015   1.332   0.901
16347W        W20308   4.758   3.549   3.372
16348W        W20309   4.684   0.085   0.607
16349W        W20310   7.005   0.619   1.642
16350W        W20311   7.155   2.868   0.087
16351W        W20312   4.062   2.071   1.789
16352W        W20313   5.979   0.658   0.019
16353W        W20314   7.113   2.990   1.739
16354W        W20315   7.152   0.184   2.489
16355W        W20316   5.597   1.396   3.043
16356W        W20317   5.690   2.735   0.746
16357W        W20318   6.090   2.029   3.486
16358W        W20319   5.764   0.006   1.795
16359W        W20320   4.376   0.909   1.858
16360W        W20321   3.930   2.109   2.632
16361W        W20322   5.789   3.302   1.338
16362W        W20323   6.983   0.899   2.210
16363W        W20324   5.620   3.246   2.977
16364W        W20325   6.963   2.305   0.182
16365W        W20326   5.398   1.788   1.243
16366W        W20327   7.250   0.299   2.984
16367W        W20328   5.399   2.134   2.578
16368W        W20329   5.616   1.020   2.023
16369W        W20330   6.468   1.318   0.861
16370W        W20331   6.755   1.051   0.503
16371W        W20332   6.564   3.091   0.892
16372W        W20333   6.398   2.694   1.688
16373W        W20334   6.294   1.773   0.666
16374W        W20335   5.727   1.983   1.652
16375W        W20336   6.608   1.771   1.719
16376W        W20337   3.983   0.786   2.143
16377W        W20338   6.761   1.838   2.970
16378W        W20339   7.112   3.456   2.116
16379W        W20340   5.042   2.900   1.518
16380W        W20341   6.049   3.433   2.842
16381W        W20342   6.043   0.763   2.606
16382W        W20343   5.250   3.471   2.667
16383W        W20344   6.947   0.425   1.133
16384W        W20345   6.738   1.744   2.434
16385W        W20346   3.721   1.065   2.472
16386W        W20347   6.581   0.860   1.490
16387W        W20348   6.992   1.011   3.267
16388W        W20349   5.877   2.710   1.485
16389W        W20350   5.133   3.301   1.098
16390W        W20351   4.248   0.481   0.356
16391W        W20352   5.352   0.135   2.166
16392W        W20353   4.380   3.255   0.014
16393W        W20354   4.754   1.721   0.765
16394W        W20355   5.408   2.350   3.078
16395W        W20356   5.238   0.708   1.068
16396W        W20357   6.594   0.305   1.496
16397W        W20358   6.314   3.587   1.824
16398W        W20359   5.726   3.235   2.164
16399W        W20360   5.122   2.272   2.125
16400W        W20361   6.892   2.995   2.251
16401W        W20362   4.586   0.498   1.020
16402W        W20363   5.108   2.795   1.980
16403W        W20364   4.591   0.726   0.045
16404W        W20365   5.392   1.335   2.439
16405W        W20366   6.240   0.201   2.309
16406W        W20367   3.660   2.044   2.194
16407W        W20368   5.364   1.862   0.352
16408W        W20369   4.632   0.177   0.122
16409W        W20370   5.370   1.258   1.173
16410W        W20371   6.340   0.234   2.872
16411W        W20372   4.928   2.246   2.981
16412W        W20373   5.732   2.028   3.198
16413W        W20374   5.633   0.198   3.596
16414W        W20375   4.855   0.814   1.989
16415W        W20376   4.281   0.770   1.387
16416W        W20377   4.067   3.482   1.063
16417W        W20378   5.399   2.812   3.188
16418W        W20379   4.434   2.297   0.547
16419W        W20380   6.114   1.682   1.768
16420W        W20381   6.394   1.481   2.167
16421W        W20382   5.599   2.155   2.101
16422W        W20383   6.069   2.529   0.233
16423W        W20384   5.741   0.550   1.561
16424W        W20385   7.220   0.828   0.829
16425W        W20386   3.714   3.417   2.860
16426W        W20387   4.131   2.643   2.392
16427W        W20388   3.698   3.489   0.624
16428W        W20389   5.597   0.759   2.430
16429W        W20390   4.960   2.782   0.279
16430W        W20391   6.865   3.164   0.465
16431W        W20392   5.840   1.817   0.479
16432W        W20393   4.683   1.008   0.996
16433W        W20394   5.515   0.918   0.048
16434W        W20395   6.099   2.483   3.226
16435W        W20396   6.452   0.389   0.843
16436W        W20397   3.782   0.237   0.291
16437W        W20398   5.068   2.556   2.581
16438W        W20399   4.867   2.472   1.673
16439W        W20400   4.609   2.424   0.071
16440W        W20401   3.850   2.665   0.839
16441W        W20402   4.354   1.735   3.281
16442W        W20403   5.058   0.295   3.467
16443W        W20404   5.767   0.437   2.823
16444W        W20405   4.962   0.205   1.104
16445W        W20406   6.021   0.282   0.609
16446W        W20407   3.966   0.214   2.186
16447W        W20408   4.014   1.177   1.556
16448W        W20409   6.703   0.285   1.962
16449W        W20410   4.125   0.783   0.776
16450W        W20411   6.696   0.471   2.392
16451W        W20412   7.092   1.674   0.077
16452W        W20413   4.384   0.432   1.896
16453W        W20414   5.498   1.004   2.836
16454W        W20415   3.646   0.694   0.314
16455W        W20416   4.432   2.083   2.875
16456W        W20417   5.790   1.481   2.054
16457W        W20418   5.657   3.560   0.350
16458W        W20419   3.803   2.067   0.047
16459W        W20420   4.538   2.478   3.173
16460W        W20421   4.059   1.645   2.804
16461W        W20422   5.050   1.750   2.598
16462W        W20423   6.818   0.109   2.860
16463W        W20424   7.216   1.719   2.851
16464W        W20425   7.204   1.919   0.537
16465W        W20426   6.067   2.251   0.636
16466W        W20427   6.541   3.551   0.331
16467W        W20428   5.718   1.541   3.473
16468W        W20429   4.048   2.508   3.513
16469W        W20430   7.254   0.430   3.465
16470W        W20431   6.972   1.358   2.086
16471W        W20432   5.280   3.488   3.563
16472W        W20433   5.135   0.117   0.290
16473W        W20434   6.674   2.716   0.233
16474W        W20435   4.443   0.809   3.119
16475W        W20436   4.877   2.803   2.981
16476W        W20437   7.003   0.794   2.779
16477W        W20438   6.214   3.453   0.747
16478W        W20439   6.453   2.072   2.114
16479W        W20440   4.703   0.488   2.781
16480W        W20441   5.172   1.557   3.538
16481W        W20442   4.675   2.736   0.732
16482W        W20443   6.430   2.234   0.996
16483W        W20444   4.198   0.860   2.720
16484W        W20445   5.527   2.922   1.184
16485W        W20446   7.277   1.482   1.365
16486W        W20447   5.499   0.115   3.084
16487W        W20448   6.279   2.820   2.163
16488W        W20449   6.582   3.164   1.871
16489W        W20450   5.801   2.966   0.299
16490W        W20451   3.811   2.858   3.141
16491W        W20452   4.554   0.850   2.379
16492W        W20453   4.524   0.198   1.489
16493W        W20454   6.145   1.040   2.181
16494W        W20455   4.943   2.211   0.381
16495W        W20456   6.941   2.153   1.880
16496W        W20457   4.268   2.911   3.303
16497W        W20458   6.655   3.593   1.100
16498W        W20459   4.754   0.613   1.545
16499W        W20460   4.523   2.106   1.635
16500W        W20461   4.836   3.517   2.385
16501W        W20462   6.903   3.613   3.417
16502W        W20463   6.062   1.801   2.350
16503W        W20464   3.911   1.599   0.265
16504W        W20465   7.045   3.257   0.962
16505W        W20466   6.882   0.581   0.581
16506W        W20467   5.021   0.100   2.984
16507W        W20468   6.727   2.902   1.442
16508W        W20469   6.756   1.458   1.347
16509W        W20470   4.873   1.131   1.563
16510W        W20471   5.118   1.393   2.887
16511W        W20472   6.229   2.546   2.750
16512W        W20473   4.879   1.000   2.862
16513W        W20474   4.858   3.466   1.478
16514W        W20475   4.175   3.425   3.112
16515W        W20476   4.287   2.786   0.242
16516W        W20477   6.804   2.544   1.052
16517W        W20478   4.408   1.336   2.938
16518W        W20479   7.181   1.266   0.419
16519W        W20480   4.926   2.323   0.890
16520W        W20481   6.025   1.705   2.971
16521W        W20482   5.916   1.333   2.515
16522W        W20483   4.476   1.705   2.544
16523W        W20484   6.686   3.593   2.373
16524W        W20485   6.477   0.227   3.367
16525W        W20486   4.141   0.377   2.954
16526W        W20487   4.480   1.400   2.007
16527W        W20488   4.849   1.214   0.129
16528W        W20489   3.652   2.973   2.674
16529W        W20490   5.237   1.682   2.117
16530W        W20491   5.060   0.707   0.222
16531W        W20492   4.195   1.523   1.003
16532W        W20493   3.966   3.375   2.440
16533W        W20494   6.761   1.601   0.548
16534W        W20495   6.856   0.517   3.234
16535W        W20496   6.292   2.726   1.197
16536W        W20497   3.890   1.650   3.374
16537W        W20498   6.856   0.114   0.670
16538W        W20499   6.376   2.589   0.681
16539W        W20500   5.278   1.647   0.766
16540W        W20501   6.465   0.451   0.289
16541W        W20502   6.530   1.058   2.475
16542W        W20503   4.239   1.651   1.682
16543W        W20504   4.533   2.590   1.331
16544W        W20505   6.296   1.210   1.296
16545W        W20506   5.319   0.589   1.992
16546W        W20507   7.281   2.500   2.503
16547W        W20508   7.199   0.487   2.064
16548W        W20509   3.738   3.317   1.440
16549W        W20510   4.247   2.504   0.976
16550W        W20511   4.162   0.121   3.529
16551W        W20512   5.281   2.974   3.631
16552W        W20513   7.036   1.942   1.421
16553W        W20514   6.390   2.119   0.301
16554W        W20515   5.685   3.640   2.513
16555W        W20516   5.357   0.072   0.830
16556W        W20517   6.070   0.941   1.689
16557W        W20518   3.756   2.528   2.021
16558W        W20519   5.009   0.490   0.662
16559W        W20520   4.813   1.974   3.511
16560W        W20521   5.807   0.955   1.225
16561W        W20522   6.012   2.365   2.347
16562W        W20523   4.166   2.970   2.782
16563W        W20524   4.757   2.953   3.505
16564W        W20525   4.608   0.750   0.519
16565W        W20526   6.125   0.892   0.844
16566W        W20527   6.083   3.000   3.081
16567W        W20528   4.768   1.592   1.680
16568W        W20529   4.423   3.290   2.545
16569W        W20530   7.168   3.407   0.146
16570W        W20531   4.031   2.079   3.142
16571W        W20532   6.026   2.341   1.830
16572W        W20533   4.462   1.990   1.072
16573W        W20534   4.833   2.997   2.467
16574W        W20535   5.211   0.416   1.508
16575W        W20536   3.822   2.400   0.438
16576W        W20537   5.341   1.351   0.308
16577W        W20538   3.987   1.900   1.327
16578W        W20539   5.277   0.542   2.791
16579W        W20540   6.949   0.251   0.218
16580W        W20541   5.696   3.254   3.469
16581W        W20542   7.254   2.348   2.991
16582W        W20543   6.662   3.146   3.602
16583W        W20544   4.401   3.602   2.080
16584W        W20545   7.260   2.224   0.954
16585W        W20546   5.790   1.491   1.467
16586W        W20547   5.557   0.103   1.357
16587W        W20548   4.616   3.087   1.194
16588W        W20549   5.115   0.828   2.419
16589W        W20550   4.815   0.197   1.888
16590W        W20551   3.878   3.019   0.436
16591W        W20552   5.694   2.383   1.154
16592W        W20553   4.569   3.178   3.033
16593W        W20554   4.046   2.001   0.729
16594W        W20555   3.931   0.544   1.728
16595W        W20556   5.479   2.509   1.785
16596W        W20557   3.731   0.363   0.805
16597W        W20558   6.395   1.569   2.732
16598W        W20559   6.272   0.955   0.304
16599W        W20560   6.789   2.627   1.952
16600W        W20561   5.450   3.111   1.783
16601W        W20562   4.862   3.215   0.694
16602W        W20563   6.144   0.118   0.124
16603W        W20564   3.944   3.378   1.865
16604W        W20565   6.141   1.136   3.500
16605W        W20566   4.124   0.666   3.499
16606W        W20567   3.855   1.266   0.832
16607W        W20568   4.546   1.255   0.557
16608W        W20569   4.652   1.863   2.083
16609W        W20570   6.126   0.149   1.203
16610W        W20571   5.257   3.580   1.706
16611W        W20572   6.471   3.042   2.643
16612W        W20573   6.055   3.191   1.754
16613W        W20574   6.074   2.171   1.348
16614W        W20575   5.536   0.396   0.419
16615W        W20576   7.217   0.024   1.141
16616W        W20577   4.905   1.659   0.304
16617W        W20578   7.071   0.996   1.294
16618W        W20579   5.763   2.166   0.171
16619W        W20580   6.699   2.366   2.919
16620W        W20581   6.353   3.067   0.386
16621W        W20582   4.968   0.742   3.292
16622W        W20583   4.788   1.326   2.533
16623W        W20584   6.880   2.821   2.810
16624W        W20585   5.980   0.771   3.187
16625W        W20586   3.824   1.242   2.964
16626W        W20587   5.584   1.719   2.690
16627W        W20588   3.941   2.477   1.347
16628W        W20589   4.088   1.774   2.237
16629W        W20590   6.405   2.060   2.587
16630W        W20591   6.177   3.440   3.398
16631W        W20592   6.073   1.179   2.951
16632W        W20593   6.350   3.233   1.356
16633W        W20594   5.352   2.953   2.679
16634W        W20595   4.837   3.308   1.948
16635W        W20596   6.642   2.479   2.367
16636W        W20597   5.692   2.551   3.504
16637W        W20598   4.297   2.504   1.843
16638W        W20599   6.643   2.263   1.488
16639W        W20600   6.284   3.329   2.239
16640W        W20601   4.262   3.058   2.109
16641W        W20602   5.283   1.110   3.319
16642W        W20603   5.734   3.276   0.830
16643W        W20604   5.042   2.531   3.468
16644W        W20605   5.168   2.769   0.845
16645W        W20606   4.389   1.509   0.104
16646W        W20607   3.728   3.595   7.003
16647W        W20608   4.104   2.488   6.526
16648W        W20609   6.809   2.218   4.296
16649W        W20610   6.939   3.303   6.323
16650W        W20611   4.857   3.294   3.849
16651W        W20612   4.940   1.446   4.832
16652W        W20613   4.455   1.294   4.996
16653W        W20614   5.446   2.109   4.430
16654W        W20615   5.121   3.201   6.785
16655W        W20616   3.770   0.762   6.748
16656W        W20617   4.532   0.042   6.550
16657W        W20618   6.226   0.430   5.437
16658W        W20619   5.875   1.301   4.007
16659W        W20620   6.445   0.735   7.098
16660W        W20621   3.811   0.527   6.223
16661W        W20622   3.910   3.146   7.244
16662W        W20623   5.432   2.536   3.976
16663W        W20624   3.864   1.319   5.669
16664W        W20625   4.757   1.210   6.906
16665W        W20626   7.216   1.069   5.405
16666W        W20627   6.980   2.112   6.264
16667W        W20628   5.288   1.445   5.291
16668W        W20629   5.834   2.784   5.660
16669W        W20630   4.334   2.218   5.892
16670W        W20631   3.693   1.746   5.463
16671W        W20632   4.729   1.718   6.655
16672W        W20633   7.000   1.501   6.909
16673W        W20634   4.616   2.945   5.354
16674W        W20635   5.737   2.634   6.488
16675W        W20636   4.957   1.274   5.713
16676W        W20637   5.249   2.058   5.356
16677W        W20638   6.246   2.831   7.204
16678W        W20639   5.325   2.151   7.214
16679W        W20640   5.306   1.867   6.692
16680W        W20641   3.715   1.258   7.214
16681W        W20642   6.547   2.793   6.813
16682W        W20643   4.128   0.375   4.811
16683W        W20644   4.655   2.633   5.810
16684W        W20645   7.118   2.416   5.100
16685W        W20646   6.531   0.816   5.667
16686W        W20647   6.816   0.769   3.762
16687W        W20648   7.281   1.570   6.068
16688W        W20649   5.248   3.277   5.821
16689W        W20650   7.022   2.743   4.259
16690W        W20651   4.151   3.529   4.013
16691W        W20652   4.544   3.575   4.689
16692W        W20653   4.341   0.329   6.115
16693W        W20654   6.964   1.347   6.390
16694W        W20655   6.369   1.769   4.849
16695W        W20656   6.335   1.457   3.876
16696W        W20657   5.543   2.601   6.016
16697W        W20658   5.349   0.931   5.215
16698W        W20659   5.949   3.018   6.209
16699W        W20660   6.820   1.809   4.631
16700W        W20661   5.722   0.467   4.647
16701W        W20662   4.379   3.161   4.330
16702W        W20663   3.750   0.660   4.929
16703W        W20664   6.536   1.267   5.403
16704W        W20665   3.994   2.884   5.318
16705W        W20666   5.335   3.234   4.188
16706W        W20667   6.727   1.260   3.652
16707W        W20668   3.750   3.018   5.816
16708W        W20669   4.541   2.590   6.296
16709W        W20670   4.914   1.950   4.915
16710W        W20671   4.936   0.355   6.008
16711W        W20672   7.165   0.117   5.305
16712W        W20673   4.384   1.989   3.773
16713W        W20674   4.039   1.022   3.952
16714W        W20675   4.101   2.978   4.746
16715W        W20676   5.232   2.461   4.994
16716W        W20677   6.564   3.320   6.708
16717W        W20678   5.490   0.962   4.392
16718W        W20679   6.873   3.360   5.164
16719W        W20680   6.550   1.213   6.762
16720W        W20681   7.263   2.869   4.896
16721W        W20682   5.890   2.161   6.380
16722W        W20683   3.656   1.712   4.586
16723W        W20684   4.767   2.127   6.159
16724W        W20685   5.971   1.391   4.537
16725W        W20686   5.848   1.881   4.641
16726W        W20687   4.191   1.301   6.115
16727W        W20688   4.176   1.177   7.037
16728W        W20689   4.066   0.094   5.196
16729W        W20690   5.834   0.441   5.757
16730W        W20691   5.482   0.626   6.920
16731W        W20692   5.837   0.775   4.098
16732W        W20693   7.020   3.168   6.852
16733W        W20694   5.987   0.249   6.891
16734W        W20695   7.006   2.550   7.013
16735W        W20696   6.436   0.717   6.609
16736W        W20697   6.236   0.655   4.879
16737W        W20698   6.629   1.789   7.283
16738W        W20699   4.369   3.365   5.269
16739W        W20700   5.027   1.082   4.255
16740W        W20701   4.596   0.366   6.919
16741W        W20702   6.648   0.850   4.600
16742W        W20703   7.015   1.332   4.545
16743W        W20704   4.758   3.549   7.016
16744W        W20705   4.684   0.085   4.251
16745W        W20706   7.005   0.619   5.286
16746W        W20707   7.155   2.868   3.731
16747W        W20708   4.062   2.071   5.433
16748W        W20709   5.979   0.658   3.663
16749W        W20710   7.113   2.990   5.383
16750W        W20711   7.152   0.184   6.133
16751W        W20712   5.597   1.396   6.687
16752W        W20713   5.690   2.735   4.390
16753W        W20714   6.090   2.029   7.130
16754W        W20715   5.764   0.006   5.439
16755W        W20716   4.376   0.909   5.502
16756W        W20717   3.930   2.109   6.276
16757W        W20718   5.789   3.302   4.982
16758W        W20719   6.983   0.899   5.854
16759W        W20720   5.620   3.246   6.621
16760W        W20721   6.963   2.305   3.826
16761W        W20722   5.398   1.788   4.887
16762W        W20723   7.250   0.299   6.628
16763W        W20724   5.399   2.134   6.222
16764W        W20725   5.616   1.020   5.667
16765W        W20726   6.468   1.318   4.505
16766W        W20727   6.755   1.051   4.147
16767W        W20728   6.564   3.091   4.536
16768W        W20729   6.398   2.694   5.332
16769W        W20730   6.294   1.773   4.310
16770W        W20731   5.727   1.983   5.296
16771W        W20732   6.608   1.771   5.363
16772W        W20733   3.983   0.786   5.787
16773W        W20734   6.761   1.838   6.614
16774W        W20735   7.112   3.456   5.760
16775W        W20736   5.042   2.900   5.162
16776W        W20737   6.049   3.433   6.486
16777W        W20738   6.043   0.763   6.250
16778W        W20739   5.250   3.471   6.311
16779W        W20740   6.947   0.425   4.777
16780W        W20741   6.738   1.744   6.078
16781W        W20742   3.721   1.065   6.116
16782W        W20743   6.581   0.860   5.134
16783W        W20744   6.992   1.011   6.911
16784W        W20745   5.877   2.710   5.129
16785W        W20746   5.133   3.301   4.742
16786W        W20747   4.248   0.481   4.000
16787W        W20748   5.352   0.135   5.810
16788W        W20749   4.380   3.255   3.658
16789W        W20750   4.754   1.721   4.409
16790W        W20751   5.408   2.350   6.722
16791W        W20752   5.238   0.708   4.712
16792W        W20753   6.594   0.305   5.140
16793W        W20754   6.314   3.587   5.468
16794W        W20755   5.726   3.235   5.808
16795W        W20756   5.122   2.272   5.769
16796W        W20757   6.892   2.995   5.895
16797W        W20758   4.586   0.498   4.664
16798W        W20759   5.108   2.795   5.624
16799W        W20760   4.591   0.726   3.689
16800W        W20761   5.392   1.335   6.083
16801W        W20762   6.240   0.201   5.953
16802W        W20763   3.660   2.044   5.838
16803W        W20764   5.364   1.862   3.996
16804W        W20765   4.632   0.177   3.766
16805W        W20766   5.370   1.258   4.817
16806W        W20767   6.340   0.234   6.516
16807W        W20768   4.928   2.246   6.625
16808W        W20769   5.732   2.028   6.842
16809W        W20770   6.349   2.058   6.735
16810W        W20771   5.633   0.198   7.240
16811W        W20772   4.855   0.814   5.633
16812W        W20773   4.281   0.770   5.031
16813W        W20774   4.067   3.482   4.707
16814W        W20775   5.399   2.812   6.832
16815W        W20776   4.434   2.297   4.191
16816W        W20777   6.114   1.682   5.412
16817W        W20778   6.394   1.481   5.811
16818W        W20779   5.599   2.155   5.745
16819W        W20780   6.069   2.529   3.877
16820W        W20781   5.741   0.550   5.205
16821W        W20782   7.220   0.828   4.473
16822W        W20783   3.714   3.417   6.504
16823W        W20784   4.131   2.643   6.036
16824W        W20785   3.698   3.489   4.268
16825W        W20786   5.597   0.759   6.074
16826W        W20787   4.960   2.782   3.923
16827W        W20788   6.865   3.164   4.109
16828W        W20789   5.840   1.817   4.123
16829W        W20790   4.683   1.008   4.640
16830W        W20791   5.515   0.918   3.692
16831W        W20792   6.099   2.483   6.870
16832W        W20793   6.452   0.389   4.487
16833W        W20794   3.782   0.237   3.935
16834W        W20795   5.068   2.556   6.225
16835W        W20796   4.867   2.472   5.317
16836W        W20797   4.609   2.424   3.715
16837W        W20798   3.850   2.665   4.483
16838W        W20799   4.354   1.735   6.925
16839W        W20800   5.058   0.295   7.111
16840W        W20801   5.767   0.437   6.467
16841W        W20802   4.962   0.205   4.748
16842W        W20803   6.021   0.282   4.253
16843W        W20804   3.966   0.214   5.830
16844W        W20805   4.014   1.177   5.200
16845W        W20806   6.703   0.285   5.606
16846W        W20807   4.125   0.783   4.420
16847W        W20808   6.696   0.471   6.036
16848W        W20809   7.092   1.674   3.721
16849W        W20810   4.384   0.432   5.540
16850W        W20811   5.498   1.004   6.480
16851W        W20812   3.646   0.694   3.958
16852W        W20813   4.432   2.083   6.519
16853W        W20814   5.790   1.481   5.698
16854W        W20815   5.657   3.560   3.994
16855W        W20816   3.803   2.067   3.691
16856W        W20817   4.538   2.478   6.817
16857W        W20818   4.059   1.645   6.448
16858W        W20819   5.050   1.750   6.242
16859W        W20820   6.818   0.109   6.504
16860W        W20821   7.216   1.719   6.495
16861W        W20822   7.204   1.919   4.181
16862W        W20823   6.541   3.551   3.975
16863W        W20824   5.718   1.541   7.117
16864W        W20825   4.048   2.508   7.157
16865W        W20826   7.254   0.430   7.109
16866W        W20827   6.972   1.358   5.730
16867W        W20828   5.280   3.488   7.207
16868W        W20829   5.135   0.117   3.934
16869W        W20830   6.674   2.716   3.877
16870W        W20831   4.443   0.809   6.763
16871W        W20832   4.877   2.803   6.625
16872W        W20833   7.003   0.794   6.423
16873W        W20834   6.214   3.453   4.391
16874W        W20835   6.453   2.072   5.758
16875W        W20836   4.703   0.488   6.425
16876W        W20837   5.172   1.557   7.182
16877W        W20838   4.675   2.736   4.376
16878W        W20839   6.430   2.234   4.640
16879W        W20840   4.198   0.860   6.364
16880W        W20841   5.527   2.922   4.828
16881W        W20842   7.277   1.482   5.009
16882W        W20843   5.499   0.115   6.728
16883W        W20844   6.279   2.820   5.807
16884W        W20845   6.582   3.164   5.515
16885W        W20846   5.801   2.966   3.943
16886W        W20847   3.811   2.858   6.785
16887W        W20848   4.554   0.850   6.023
16888W        W20849   4.524   0.198   5.133
16889W        W20850   6.145   1.040   5.825
16890W        W20851   4.943   2.211   4.025
16891W        W20852   6.941   2.153   5.524
16892W        W20853   4.268   2.911   6.947
16893W        W20854   6.655   3.593   4.744
16894W        W20855   4.754   0.613   5.189
16895W        W20856   4.523   2.106   5.279
16896W        W20857   4.836   3.517   6.029
16897W        W20858   6.903   3.613   7.061
16898W        W20859   6.062   1.801   5.994
16899W        W20860   3.911   1.599   3.909
16900W        W20861   7.045   3.257   4.606
16901W        W20862   6.882   0.581   4.225
16902W        W20863   5.021   0.100   6.628
16903W        W20864   6.727   2.902   5.086
16904W        W20865   6.756   1.458   4.991
16905W        W20866   4.873   1.131   5.207
16906W        W20867   5.118   1.393   6.531
16907W        W20868   6.229   2.546   6.394
16908W        W20869   4.879   1.000   6.506
16909W        W20870   4.858   3.466   5.122
16910W        W20871   4.175   3.425   6.756
16911W        W20872   4.287   2.786   3.886
16912W        W20873   6.804   2.544   4.696
16913W        W20874   4.408   1.336   6.582
16914W        W20875   7.181   1.266   4.063
16915W        W20876   4.926   2.323   4.534
16916W        W20877   6.025   1.705   6.615
16917W        W20878   5.916   1.333   6.159
16918W        W20879   4.476   1.705   6.188
16919W        W20880   6.686   3.593   6.017
16920W        W20881   6.477   0.227   7.011
16921W        W20882   4.141   0.377   6.598
16922W        W20883   4.480   1.400   5.651
16923W        W20884   4.849   1.214   3.773
16924W        W20885   3.652   2.973   6.318
16925W        W20886   5.237   1.682   5.761
16926W        W20887   5.060   0.707   3.866
16927W        W20888   4.195   1.523   4.647
16928W        W20889   3.966   3.375   6.084
16929W        W20890   6.761   1.601   4.192
16930W        W20891   6.856   0.517   6.878
16931W        W20892   6.292   2.726   4.841
16932W        W20893   3.890   1.650   7.018
16933W        W20894   6.856   0.114   4.314
16934W        W20895   6.376   2.589   4.325
16935W        W20896   5.278   1.647   4.410
16936W        W20897   6.465   0.451   3.933
16937W        W20898   6.530   1.058   6.119
16938W        W20899   4.239   1.651   5.326
16939W        W20900   4.533   2.590   4.975
16940W        W20901   6.296   1.210   4.940
16941W        W20902   5.319   0.589   5.636
16942W        W20903   7.281   2.500   6.147
16943W        W20904   7.199   0.487   5.708
16944W        W20905   3.738   3.317   5.084
16945W        W20906   4.247   2.504   4.620
16946W        W20907   4.162   0.121   7.173
16947W        W20908   5.281   2.974   7.275
16948W        W20909   7.036   1.942   5.065
16949W        W20910   5.685   3.640   6.157
16950W        W20911   6.542   2.362   7.194
16951W        W20912   5.357   0.072   4.474
16952W        W20913   6.070   0.941   5.333
16953W        W20914   3.756   2.528   5.665
16954W        W20915   5.009   0.490   4.306
16955W        W20916   4.813   1.974   7.155
16956W        W20917   5.807   0.955   4.869
16957W        W20918   6.012   2.365   5.991
16958W        W20919   4.166   2.970   6.426
16959W        W20920   4.757   2.953   7.149
16960W        W20921   4.608   0.750   4.163
16961W        W20922   6.125   0.892   4.488
16962W        W20923   6.083   3.000   6.725
16963W        W20924   4.768   1.592   5.324
16964W        W20925   4.423   3.290   6.189
16965W        W20926   7.168   3.407   3.790
16966W        W20927   4.031   2.079   6.786
16967W        W20928   6.026   2.341   5.474
16968W        W20929   4.462   1.990   4.716
16969W        W20930   4.833   2.997   6.111
16970W        W20931   5.211   0.416   5.152
16971W        W20932   3.822   2.400   4.082
16972W        W20933   5.341   1.351   3.952
16973W        W20934   3.987   1.900   4.971
16974W        W20935   5.277   0.542   6.435
16975W        W20936   6.949   0.251   3.862
16976W        W20937   7.042   1.997   6.961
16977W        W20938   5.696   3.254   7.113
16978W        W20939   7.254   2.348   6.635
16979W        W20940   6.662   3.146   7.246
16980W        W20941   4.401   3.602   5.724
16981W        W20942   7.260   2.224   4.598
16982W        W20943   5.790   1.491   5.111
16983W        W20944   5.557   0.103   5.001
16984W        W20945   4.616   3.087   4.838
16985W        W20946   5.115   0.828   6.063
16986W        W20947   4.815   0.197   5.532
16987W        W20948   3.878   3.019   4.080
16988W        W20949   5.694   2.383   4.798
16989W        W20950   4.569   3.178   6.677
16990W        W20951   4.046   2.001   4.373
16991W        W20952   3.931   0.544   5.372
16992W        W20953   5.479   2.509   5.429
16993W        W20954   3.731   0.363   4.449
16994W        W20955   6.395   1.569   6.376
16995W        W20956   6.272   0.955   3.948
16996W        W20957   6.789   2.627   5.596
16997W        W20958   5.450   3.111   5.427
16998W        W20959   4.862   3.215   4.338
16999W        W20960   6.144   0.118   3.768
17000W        W20961   3.944   3.378   5.509
17001W        W20962   6.141   1.136   7.144
17002W        W20963   4.124   0.666   7.143
17003W        W20964   3.855   1.266   4.476
17004W        W20965   4.546   1.255   4.201
17005W        W20966   6.309   1.582   7.018
17006W        W20967   4.652   1.863   5.727
17007W        W20968   5.257   3.580   5.350
17008W        W20969   6.471   3.042   6.287
17009W        W20970   6.055   3.191   5.398
17010W        W20971   6.074   2.171   4.992
17011W        W20972   5.536   0.396   4.063
17012W        W20973   7.217   0.024   4.785
17013W        W20974   4.905   1.659   3.948
17014W        W20975   7.071   0.996   4.938
17015W        W20976   5.763   2.166   3.815
17016W        W20977   6.699   2.366   6.563
17017W        W20978   6.353   3.067   4.030
17018W        W20979   4.968   0.742   6.936
17019W        W20980   4.788   1.326   6.177
17020W        W20981   6.880   2.821   6.454
17021W        W20982   5.980   0.771   6.831
17022W        W20983   3.824   1.242   6.608
17023W        W20984   5.584   1.719   6.334
17024W        W20985   3.941   2.477   4.991
17025W        W20986   4.088   1.774   5.881
17026W        W20987   6.405   2.060   6.231
17027W        W20988   6.177   3.440   7.042
17028W        W20989   6.073   1.179   6.595
17029W        W20990   6.350   3.233   5.000
17030W        W20991   5.352   2.953   6.323
17031W        W20992   4.837   3.308   5.592
17032W        W20993   6.642   2.479   6.011
17033W        W20994   5.692   2.551   7.148
17034W        W20995   4.297   2.504   5.487
17035W        W20996   6.643   2.263   5.132
17036W        W20997   6.284   3.329   5.883
17037W        W20998   4.262   3.058   5.753
17038W        W20999   5.283   1.110   6.963
17039W        W21000   5.734   3.276   4.474
17040W        W21001   5.042   2.531   7.112
17041W        W21002   5.168   2.769   4.489
17042W        W21003   4.389   1.509   3.748
17043W        W21004   3.728   3.595  10.648
17044W        W21005   4.104   2.488  10.171
17045W        W21006   6.809   2.218   7.941
17046W        W21007   6.939   3.303   9.968
17047W        W21008   4.857   3.294   7.494
17048W        W21009   4.940   1.446   8.477
17049W        W21010   4.455   1.294   8.641
17050W        W21011   5.446   2.109   8.075
17051W        W21012   5.121   3.201  10.430
17052W        W21013   3.770   0.762  10.393
17053W        W21014   4.532   0.042  10.195
17054W        W21015   6.226   0.430   9.082
17055W        W21016   5.875   1.301   7.652
17056W        W21017   6.445   0.735  10.743
17057W        W21018   3.811   0.527   9.868
17058W        W21019   3.910   3.146  10.889
17059W        W21020   5.432   2.536   7.621
17060W        W21021   3.864   1.319   9.314
17061W        W21022   4.757   1.210  10.551
17062W        W21023   7.216   1.069   9.050
17063W        W21024   6.980   2.112   9.909
17064W        W21025   5.288   1.445   8.936
17065W        W21026   5.834   2.784   9.305
17066W        W21027   4.334   2.218   9.537
17067W        W21028   3.693   1.746   9.108
17068W        W21029   4.729   1.718  10.300
17069W        W21030   7.000   1.501  10.554
17070W        W21031   4.616   2.945   8.999
17071W        W21032   5.737   2.634  10.133
17072W        W21033   4.957   1.274   9.358
17073W        W21034   5.249   2.058   9.001
17074W        W21035   6.246   2.831  10.849
17075W        W21036   5.325   2.151  10.859
17076W        W21037   5.306   1.867  10.337
17077W        W21038   3.715   1.258  10.859
17078W        W21039   6.547   2.793  10.458
17079W        W21040   4.128   0.375   8.456
17080W        W21041   4.655   2.633   9.455
17081W        W21042   7.118   2.416   8.745
17082W        W21043   6.531   0.816   9.312
17083W        W21044   6.816   0.769   7.407
17084W        W21045   7.281   1.570   9.713
17085W        W21046   5.248   3.277   9.466
17086W        W21047   7.022   2.743   7.904
17087W        W21048   4.151   3.529   7.658
17088W        W21049   4.544   3.575   8.334
17089W        W21050   4.341   0.329   9.760
17090W        W21051   6.964   1.347  10.035
17091W        W21052   6.369   1.769   8.494
17092W        W21053   6.335   1.457   7.521
17093W        W21054   5.543   2.601   9.661
17094W        W21055   5.349   0.931   8.860
17095W        W21056   5.949   3.018   9.854
17096W        W21057   6.820   1.809   8.276
17097W        W21058   5.722   0.467   8.292
17098W        W21059   4.379   3.161   7.975
17099W        W21060   3.750   0.660   8.574
17100W        W21061   6.536   1.267   9.048
17101W        W21062   3.994   2.884   8.963
17102W        W21063   5.335   3.234   7.833
17103W        W21064   6.727   1.260   7.297
17104W        W21065   3.750   3.018   9.461
17105W        W21066   4.541   2.590   9.941
17106W        W21067   4.914   1.950   8.560
17107W        W21068   4.936   0.355   9.653
17108W        W21069   7.165   0.117   8.950
17109W        W21070   4.384   1.989   7.418
17110W        W21071   4.039   1.022   7.597
17111W        W21072   4.101   2.978   8.391
17112W        W21073   5.232   2.461   8.639
17113W        W21074   6.564   3.320  10.353
17114W        W21075   5.490   0.962   8.037
17115W        W21076   6.873   3.360   8.809
17116W        W21077   6.550   1.213  10.407
17117W        W21078   7.263   2.869   8.541
17118W        W21079   5.890   2.161  10.025
17119W        W21080   3.656   1.712   8.231
17120W        W21081   4.767   2.127   9.804
17121W        W21082   5.848   1.881   8.286
17122W        W21083   4.191   1.301   9.760
17123W        W21084   4.176   1.177  10.682
17124W        W21085   4.066   0.094   8.841
17125W        W21086   5.834   0.441   9.402
17126W        W21087   5.482   0.626  10.565
17127W        W21088   5.837   0.775   7.743
17128W        W21089   7.020   3.168  10.497
17129W        W21090   5.987   0.249  10.536
17130W        W21091   7.006   2.550  10.658
17131W        W21092   6.436   0.717  10.254
17132W        W21093   6.236   0.655   8.524
17133W        W21094   6.629   1.789  10.928
17134W        W21095   4.369   3.365   8.914
17135W        W21096   5.027   1.082   7.900
17136W        W21097   4.596   0.366  10.564
17137W        W21098   6.648   0.850   8.245
17138W        W21099   7.015   1.332   8.190
17139W        W21100   4.758   3.549  10.661
17140W        W21101   4.684   0.085   7.896
17141W        W21102   7.005   0.619   8.931
17142W        W21103   7.155   2.868   7.376
17143W        W21104   4.062   2.071   9.078
17144W        W21105   5.979   0.658   7.308
17145W        W21106   7.113   2.990   9.028
17146W        W21107   7.152   0.184   9.778
17147W        W21108   5.597   1.396  10.332
17148W        W21109   5.690   2.735   8.035
17149W        W21110   6.090   2.029  10.775
17150W        W21111   5.764   0.006   9.084
17151W        W21112   4.376   0.909   9.147
17152W        W21113   3.930   2.109   9.921
17153W        W21114   5.789   3.302   8.627
17154W        W21115   6.983   0.899   9.499
17155W        W21116   5.620   3.246  10.266
17156W        W21117   6.963   2.305   7.471
17157W        W21118   5.398   1.788   8.532
17158W        W21119   7.250   0.299  10.273
17159W        W21120   5.399   2.134   9.867
17160W        W21121   5.616   1.020   9.312
17161W        W21122   6.468   1.318   8.150
17162W        W21123   6.755   1.051   7.792
17163W        W21124   6.564   3.091   8.181
17164W        W21125   6.398   2.694   8.977
17165W        W21126   5.727   1.983   8.941
17166W        W21127   6.608   1.771   9.008
17167W        W21128   3.983   0.786   9.432
17168W        W21129   6.761   1.838  10.259
17169W        W21130   7.112   3.456   9.405
17170W        W21131   5.042   2.900   8.807
17171W        W21132   6.049   3.433  10.131
17172W        W21133   6.043   0.763   9.895
17173W        W21134   5.250   3.471   9.956
17174W        W21135   6.947   0.425   8.422
17175W        W21136   6.738   1.744   9.723
17176W        W21137   3.721   1.065   9.761
17177W        W21138   6.581   0.860   8.779
17178W        W21139   6.992   1.011  10.556
17179W        W21140   5.877   2.710   8.774
17180W        W21141   5.133   3.301   8.387
17181W        W21142   4.248   0.481   7.645
17182W        W21143   5.352   0.135   9.455
17183W        W21144   4.380   3.255   7.303
17184W        W21145   4.754   1.721   8.054
17185W        W21146   5.408   2.350  10.367
17186W        W21147   5.238   0.708   8.357
17187W        W21148   6.594   0.305   8.785
17188W        W21149   6.314   3.587   9.113
17189W        W21150   5.726   3.235   9.453
17190W        W21151   5.122   2.272   9.414
17191W        W21152   6.892   2.995   9.540
17192W        W21153   4.586   0.498   8.309
17193W        W21154   5.108   2.795   9.269
17194W        W21155   4.591   0.726   7.334
17195W        W21156   5.392   1.335   9.728
17196W        W21157   6.240   0.201   9.598
17197W        W21158   3.660   2.044   9.483
17198W        W21159   5.364   1.862   7.641
17199W        W21160   4.632   0.177   7.411
17200W        W21161   5.370   1.258   8.462
17201W        W21162   4.928   2.246  10.270
17202W        W21163   5.732   2.028  10.487
17203W        W21164   6.349   2.058  10.380
17204W        W21165   5.633   0.198  10.885
17205W        W21166   4.855   0.814   9.278
17206W        W21167   4.281   0.770   8.676
17207W        W21168   4.067   3.482   8.352
17208W        W21169   5.399   2.812  10.477
17209W        W21170   4.434   2.297   7.836
17210W        W21171   6.114   1.682   9.057
17211W        W21172   6.394   1.481   9.456
17212W        W21173   5.599   2.155   9.390
17213W        W21174   6.069   2.529   7.522
17214W        W21175   5.741   0.550   8.850
17215W        W21176   7.220   0.828   8.118
17216W        W21177   3.714   3.417  10.149
17217W        W21178   4.131   2.643   9.681
17218W        W21179   3.698   3.489   7.913
17219W        W21180   5.597   0.759   9.719
17220W        W21181   4.960   2.782   7.568
17221W        W21182   6.865   3.164   7.754
17222W        W21183   5.840   1.817   7.768
17223W        W21184   4.683   1.008   8.285
17224W        W21185   5.515   0.918   7.337
17225W        W21186   6.099   2.483  10.515
17226W        W21187   6.452   0.389   8.132
17227W        W21188   3.782   0.237   7.580
17228W        W21189   5.068   2.556   9.870
17229W        W21190   4.867   2.472   8.962
17230W        W21191   4.609   2.424   7.360
17231W        W21192   3.850   2.665   8.128
17232W        W21193   4.354   1.735  10.570
17233W        W21194   5.058   0.295  10.756
17234W        W21195   5.767   0.437  10.112
17235W        W21196   4.962   0.205   8.393
17236W        W21197   6.021   0.282   7.898
17237W        W21198   3.966   0.214   9.475
17238W        W21199   4.014   1.177   8.845
17239W        W21200   6.703   0.285   9.251
17240W        W21201   4.125   0.783   8.065
17241W        W21202   6.696   0.471   9.681
17242W        W21203   7.092   1.674   7.366
17243W        W21204   4.384   0.432   9.185
17244W        W21205   5.498   1.004  10.125
17245W        W21206   3.646   0.694   7.603
17246W        W21207   4.432   2.083  10.164
17247W        W21208   5.790   1.481   9.343
17248W        W21209   5.657   3.560   7.639
17249W        W21210   3.803   2.067   7.336
17250W        W21211   4.538   2.478  10.462
17251W        W21212   4.059   1.645  10.093
17252W        W21213   5.050   1.750   9.887
17253W        W21214   6.818   0.109  10.149
17254W        W21215   7.216   1.719  10.140
17255W        W21216   7.204   1.919   7.826
17256W        W21217   6.067   2.251   7.925
17257W        W21218   6.541   3.551   7.620
17258W        W21219   5.718   1.541  10.762
17259W        W21220   4.048   2.508  10.802
17260W        W21221   7.254   0.430  10.754
17261W        W21222   6.972   1.358   9.375
17262W        W21223   5.280   3.488  10.852
17263W        W21224   5.135   0.117   7.579
17264W        W21225   6.674   2.716   7.522
17265W        W21226   4.443   0.809  10.408
17266W        W21227   4.877   2.803  10.270
17267W        W21228   7.003   0.794  10.068
17268W        W21229   6.214   3.453   8.036
17269W        W21230   6.453   2.072   9.403
17270W        W21231   4.703   0.488  10.070
17271W        W21232   5.172   1.557  10.827
17272W        W21233   4.675   2.736   8.021
17273W        W21234   4.198   0.860  10.009
17274W        W21235   5.527   2.922   8.473
17275W        W21236   7.277   1.482   8.654
17276W        W21237   5.499   0.115  10.373
17277W        W21238   6.279   2.820   9.452
17278W        W21239   6.582   3.164   9.160
17279W        W21240   5.801   2.966   7.588
17280W        W21241   3.811   2.858  10.430
17281W        W21242   4.554   0.850   9.668
17282W        W21243   4.524   0.198   8.778
17283W        W21244   6.145   1.040   9.470
17284W        W21245   4.943   2.211   7.670
17285W        W21246   6.941   2.153   9.169
17286W        W21247   4.268   2.911  10.592
17287W        W21248   6.655   3.593   8.389
17288W        W21249   4.754   0.613   8.834
17289W        W21250   4.523   2.106   8.924
17290W        W21251   4.836   3.517   9.674
17291W        W21252   6.903   3.613  10.706
17292W        W21253   6.062   1.801   9.639
17293W        W21254   3.911   1.599   7.554
17294W        W21255   7.045   3.257   8.251
17295W        W21256   6.882   0.581   7.870
17296W        W21257   5.021   0.100  10.273
17297W        W21258   6.727   2.902   8.731
17298W        W21259   6.756   1.458   8.636
17299W        W21260   4.873   1.131   8.852
17300W        W21261   5.118   1.393  10.176
17301W        W21262   6.229   2.546  10.039
17302W        W21263   4.879   1.000  10.151
17303W        W21264   4.858   3.466   8.767
17304W        W21265   4.175   3.425  10.401
17305W        W21266   4.287   2.786   7.531
17306W        W21267   6.804   2.544   8.341
17307W        W21268   4.408   1.336  10.227
17308W        W21269   7.181   1.266   7.708
17309W        W21270   4.926   2.323   8.179
17310W        W21271   6.025   1.705  10.260
17311W        W21272   5.916   1.333   9.804
17312W        W21273   4.476   1.705   9.833
17313W        W21274   6.686   3.593   9.662
17314W        W21275   6.477   0.227  10.656
17315W        W21276   4.141   0.377  10.243
17316W        W21277   4.480   1.400   9.296
17317W        W21278   4.849   1.214   7.418
17318W        W21279   3.652   2.973   9.963
17319W        W21280   5.237   1.682   9.406
17320W        W21281   5.060   0.707   7.511
17321W        W21282   4.195   1.523   8.292
17322W        W21283   3.966   3.375   9.729
17323W        W21284   6.761   1.601   7.837
17324W        W21285   6.856   0.517  10.523
17325W        W21286   6.292   2.726   8.486
17326W        W21287   3.890   1.650  10.663
17327W        W21288   6.856   0.114   7.959
17328W        W21289   6.376   2.589   7.970
17329W        W21290   5.278   1.647   8.055
17330W        W21291   6.465   0.451   7.578
17331W        W21292   6.530   1.058   9.764
17332W        W21293   4.239   1.651   8.971
17333W        W21294   4.533   2.590   8.620
17334W        W21295   6.296   1.210   8.585
17335W        W21296   5.319   0.589   9.281
17336W        W21297   7.281   2.500   9.792
17337W        W21298   7.199   0.487   9.353
17338W        W21299   3.738   3.317   8.729
17339W        W21300   4.247   2.504   8.265
17340W        W21301   4.162   0.121  10.818
17341W        W21302   5.281   2.974  10.920
17342W        W21303   6.390   2.119   7.590
17343W        W21304   5.685   3.640   9.802
17344W        W21305   6.542   2.362  10.839
17345W        W21306   5.357   0.072   8.119
17346W        W21307   6.070   0.941   8.978
17347W        W21308   3.756   2.528   9.310
17348W        W21309   5.009   0.490   7.951
17349W        W21310   4.813   1.974  10.800
17350W        W21311   5.807   0.955   8.514
17351W        W21312   6.012   2.365   9.636
17352W        W21313   4.166   2.970  10.071
17353W        W21314   4.757   2.953  10.794
17354W        W21315   4.608   0.750   7.808
17355W        W21316   6.125   0.892   8.133
17356W        W21317   6.083   3.000  10.370
17357W        W21318   4.768   1.592   8.969
17358W        W21319   4.423   3.290   9.834
17359W        W21320   7.168   3.407   7.435
17360W        W21321   4.031   2.079  10.431
17361W        W21322   6.026   2.341   9.119
17362W        W21323   4.462   1.990   8.361
17363W        W21324   4.833   2.997   9.756
17364W        W21325   5.211   0.416   8.797
17365W        W21326   3.822   2.400   7.727
17366W        W21327   5.341   1.351   7.597
17367W        W21328   3.987   1.900   8.616
17368W        W21329   5.277   0.542  10.080
17369W        W21330   6.949   0.251   7.507
17370W        W21331   7.042   1.997  10.606
17371W        W21332   5.696   3.254  10.758
17372W        W21333   7.254   2.348  10.280
17373W        W21334   6.662   3.146  10.891
17374W        W21335   4.401   3.602   9.369
17375W        W21336   7.260   2.224   8.243
17376W        W21337   5.790   1.491   8.756
17377W        W21338   5.557   0.103   8.646
17378W        W21339   4.616   3.087   8.483
17379W        W21340   5.115   0.828   9.708
17380W        W21341   4.815   0.197   9.177
17381W        W21342   3.878   3.019   7.725
17382W        W21343   5.694   2.383   8.443
17383W        W21344   4.569   3.178  10.322
17384W        W21345   4.046   2.001   8.018
17385W        W21346   3.931   0.544   9.017
17386W        W21347   5.479   2.509   9.074
17387W        W21348   3.731   0.363   8.094
17388W        W21349   6.395   1.569  10.021
17389W        W21350   6.272   0.955   7.593
17390W        W21351   6.789   2.627   9.241
17391W        W21352   5.450   3.111   9.072
17392W        W21353   4.862   3.215   7.983
17393W        W21354   6.144   0.118   7.413
17394W        W21355   3.944   3.378   9.154
17395W        W21356   6.141   1.136  10.789
17396W        W21357   4.124   0.666  10.788
17397W        W21358   3.855   1.266   8.121
17398W        W21359   4.546   1.255   7.846
17399W        W21360   6.309   1.582  10.663
17400W        W21361   4.652   1.863   9.372
17401W        W21362   6.126   0.149   8.492
17402W        W21363   5.257   3.580   8.995
17403W        W21364   6.471   3.042   9.932
17404W        W21365   6.055   3.191   9.043
17405W        W21366   6.074   2.171   8.637
17406W        W21367   5.536   0.396   7.708
17407W        W21368   7.217   0.024   8.430
17408W        W21369   4.905   1.659   7.593
17409W        W21370   7.071   0.996   8.583
17410W        W21371   5.763   2.166   7.460
17411W        W21372   6.699   2.366  10.208
17412W        W21373   6.353   3.067   7.675
17413W        W21374   4.968   0.742  10.581
17414W        W21375   4.788   1.326   9.822
17415W        W21376   6.880   2.821  10.099
17416W        W21377   5.980   0.771  10.476
17417W        W21378   3.824   1.242  10.253
17418W        W21379   5.584   1.719   9.979
17419W        W21380   3.941   2.477   8.636
17420W        W21381   4.088   1.774   9.526
17421W        W21382   6.405   2.060   9.876
17422W        W21383   6.177   3.440  10.687
17423W        W21384   6.073   1.179  10.240
17424W        W21385   6.350   3.233   8.645
17425W        W21386   5.352   2.953   9.968
17426W        W21387   4.837   3.308   9.237
17427W        W21388   6.642   2.479   9.656
17428W        W21389   5.692   2.551  10.793
17429W        W21390   4.297   2.504   9.132
17430W        W21391   6.643   2.263   8.777
17431W        W21392   6.284   3.329   9.528
17432W        W21393   4.262   3.058   9.398
17433W        W21394   5.283   1.110  10.608
17434W        W21395   5.734   3.276   8.119
17435W        W21396   5.042   2.531  10.757
17436W        W21397   5.168   2.769   8.134
17437W        W21398   4.389   1.509   7.393
17438W        W21399   3.728   3.595  14.292
17439W        W21400   4.104   2.488  13.815
17440W        W21401   6.809   2.218  11.585
17441W        W21402   6.939   3.303  13.612
17442W        W21403   4.857   3.294  11.138
17443W        W21404   4.940   1.446  12.121
17444W        W21405   4.455   1.294  12.285
17445W        W21406   5.446   2.109  11.719
17446W        W21407   5.121   3.201  14.074
17447W        W21408   3.770   0.762  14.037
17448W        W21409   4.532   0.042  13.839
17449W        W21410   6.226   0.430  12.726
17450W        W21411   5.875   1.301  11.296
17451W        W21412   6.445   0.735  14.387
17452W        W21413   3.811   0.527  13.512
17453W        W21414   3.910   3.146  14.533
17454W        W21415   5.432   2.536  11.265
17455W        W21416   3.864   1.319  12.958
17456W        W21417   4.757   1.210  14.195
17457W        W21418   7.216   1.069  12.694
17458W        W21419   6.980   2.112  13.553
17459W        W21420   5.288   1.445  12.580
17460W        W21421   5.834   2.784  12.949
17461W        W21422   4.334   2.218  13.181
17462W        W21423   3.693   1.746  12.752
17463W        W21424   4.729   1.718  13.944
17464W        W21425   7.000   1.501  14.198
17465W        W21426   4.616   2.945  12.643
17466W        W21427   5.737   2.634  13.777
17467W        W21428   4.957   1.274  13.002
17468W        W21429   5.249   2.058  12.645
17469W        W21430   6.246   2.831  14.493
17470W        W21431   5.325   2.151  14.503
17471W        W21432   5.306   1.867  13.981
17472W        W21433   3.715   1.258  14.503
17473W        W21434   6.547   2.793  14.102
17474W        W21435   4.128   0.375  12.100
17475W        W21436   4.655   2.633  13.099
17476W        W21437   7.118   2.416  12.389
17477W        W21438   6.531   0.816  12.956
17478W        W21439   6.816   0.769  11.051
17479W        W21440   7.281   1.570  13.357
17480W        W21441   5.248   3.277  13.110
17481W        W21442   7.022   2.743  11.548
17482W        W21443   4.151   3.529  11.302
17483W        W21444   4.544   3.575  11.978
17484W        W21445   4.341   0.329  13.404
17485W        W21446   6.964   1.347  13.679
17486W        W21447   6.369   1.769  12.138
17487W        W21448   6.335   1.457  11.165
17488W        W21449   5.543   2.601  13.305
17489W        W21450   5.349   0.931  12.504
17490W        W21451   5.949   3.018  13.498
17491W        W21452   6.820   1.809  11.920
17492W        W21453   5.722   0.467  11.936
17493W        W21454   4.379   3.161  11.619
17494W        W21455   3.750   0.660  12.218
17495W        W21456   6.536   1.267  12.692
17496W        W21457   3.994   2.884  12.607
17497W        W21458   5.335   3.234  11.477
17498W        W21459   6.727   1.260  10.941
17499W        W21460   3.750   3.018  13.105
17500W        W21461   4.541   2.590  13.585
17501W        W21462   4.914   1.950  12.204
17502W        W21463   4.936   0.355  13.297
17503W        W21464   7.165   0.117  12.594
17504W        W21465   4.384   1.989  11.062
17505W        W21466   4.039   1.022  11.241
17506W        W21467   4.101   2.978  12.035
17507W        W21468   5.232   2.461  12.283
17508W        W21469   6.564   3.320  13.997
17509W        W21470   5.490   0.962  11.681
17510W        W21471   6.873   3.360  12.453
17511W        W21472   6.550   1.213  14.051
17512W        W21473   7.263   2.869  12.185
17513W        W21474   5.890   2.161  13.669
17514W        W21475   3.656   1.712  11.875
17515W        W21476   4.767   2.127  13.448
17516W        W21477   5.971   1.391  11.826
17517W        W21478   5.848   1.881  11.930
17518W        W21479   4.191   1.301  13.404
17519W        W21480   4.176   1.177  14.326
17520W        W21481   4.066   0.094  12.485
17521W        W21482   5.834   0.441  13.046
17522W        W21483   5.482   0.626  14.209
17523W        W21484   5.837   0.775  11.387
17524W        W21485   7.020   3.168  14.141
17525W        W21486   5.987   0.249  14.180
17526W        W21487   7.006   2.550  14.302
17527W        W21488   6.436   0.717  13.898
17528W        W21489   6.236   0.655  12.168
17529W        W21490   6.629   1.789  14.572
17530W        W21491   4.369   3.365  12.558
17531W        W21492   5.027   1.082  11.544
17532W        W21493   4.596   0.366  14.208
17533W        W21494   6.648   0.850  11.889
17534W        W21495   7.015   1.332  11.834
17535W        W21496   4.758   3.549  14.305
17536W        W21497   4.684   0.085  11.540
17537W        W21498   7.005   0.619  12.575
17538W        W21499   7.155   2.868  11.020
17539W        W21500   4.062   2.071  12.722
17540W        W21501   5.979   0.658  10.952
17541W        W21502   7.113   2.990  12.672
17542W        W21503   7.152   0.184  13.422
17543W        W21504   5.597   1.396  13.976
17544W        W21505   5.690   2.735  11.679
17545W        W21506   6.090   2.029  14.419
17546W        W21507   5.764   0.006  12.728
17547W        W21508   4.376   0.909  12.791
17548W        W21509   3.930   2.109  13.565
17549W        W21510   5.789   3.302  12.271
17550W        W21511   6.983   0.899  13.143
17551W        W21512   5.620   3.246  13.910
17552W        W21513   6.963   2.305  11.115
17553W        W21514   5.398   1.788  12.176
17554W        W21515   7.250   0.299  13.917
17555W        W21516   5.399   2.134  13.511
17556W        W21517   5.616   1.020  12.956
17557W        W21518   6.468   1.318  11.794
17558W        W21519   6.755   1.051  11.436
17559W        W21520   6.564   3.091  11.825
17560W        W21521   6.398   2.694  12.621
17561W        W21522   6.294   1.773  11.599
17562W        W21523   5.727   1.983  12.585
17563W        W21524   6.608   1.771  12.652
17564W        W21525   3.983   0.786  13.076
17565W        W21526   6.761   1.838  13.903
17566W        W21527   7.112   3.456  13.049
17567W        W21528   5.042   2.900  12.451
17568W        W21529   6.049   3.433  13.775
17569W        W21530   6.043   0.763  13.539
17570W        W21531   5.250   3.471  13.600
17571W        W21532   6.947   0.425  12.066
17572W        W21533   6.738   1.744  13.367
17573W        W21534   3.721   1.065  13.405
17574W        W21535   6.581   0.860  12.423
17575W        W21536   6.992   1.011  14.200
17576W        W21537   5.877   2.710  12.418
17577W        W21538   5.133   3.301  12.031
17578W        W21539   4.248   0.481  11.289
17579W        W21540   5.352   0.135  13.099
17580W        W21541   4.380   3.255  10.947
17581W        W21542   4.754   1.721  11.698
17582W        W21543   5.408   2.350  14.011
17583W        W21544   5.238   0.708  12.001
17584W        W21545   6.594   0.305  12.429
17585W        W21546   6.314   3.587  12.757
17586W        W21547   5.726   3.235  13.097
17587W        W21548   5.122   2.272  13.058
17588W        W21549   6.892   2.995  13.184
17589W        W21550   4.586   0.498  11.953
17590W        W21551   5.108   2.795  12.913
17591W        W21552   4.591   0.726  10.978
17592W        W21553   5.392   1.335  13.372
17593W        W21554   6.240   0.201  13.242
17594W        W21555   3.660   2.044  13.127
17595W        W21556   5.364   1.862  11.285
17596W        W21557   4.632   0.177  11.055
17597W        W21558   5.370   1.258  12.106
17598W        W21559   6.340   0.234  13.805
17599W        W21560   4.928   2.246  13.914
17600W        W21561   5.732   2.028  14.131
17601W        W21562   6.349   2.058  14.024
17602W        W21563   5.633   0.198  14.529
17603W        W21564   4.855   0.814  12.922
17604W        W21565   4.281   0.770  12.320
17605W        W21566   4.067   3.482  11.996
17606W        W21567   5.399   2.812  14.121
17607W        W21568   4.434   2.297  11.480
17608W        W21569   6.114   1.682  12.701
17609W        W21570   6.394   1.481  13.100
17610W        W21571   5.599   2.155  13.034
17611W        W21572   6.069   2.529  11.166
17612W        W21573   5.741   0.550  12.494
17613W        W21574   7.220   0.828  11.762
17614W        W21575   3.714   3.417  13.793
17615W        W21576   4.131   2.643  13.325
17616W        W21577   3.698   3.489  11.557
17617W        W21578   5.597   0.759  13.363
17618W        W21579   4.960   2.782  11.212
17619W        W21580   6.865   3.164  11.398
17620W        W21581   5.840   1.817  11.412
17621W        W21582   4.683   1.008  11.929
17622W        W21583   5.515   0.918  10.981
17623W        W21584   6.099   2.483  14.159
17624W        W21585   6.452   0.389  11.776
17625W        W21586   3.782   0.237  11.224
17626W        W21587   5.068   2.556  13.514
17627W        W21588   4.867   2.472  12.606
17628W        W21589   4.609   2.424  11.004
17629W        W21590   3.850   2.665  11.772
17630W        W21591   4.354   1.735  14.214
17631W        W21592   5.058   0.295  14.400
17632W        W21593   5.767   0.437  13.756
17633W        W21594   4.962   0.205  12.037
17634W        W21595   6.021   0.282  11.542
17635W        W21596   3.966   0.214  13.119
17636W        W21597   4.014   1.177  12.489
17637W        W21598   6.703   0.285  12.895
17638W        W21599   4.125   0.783  11.709
17639W        W21600   6.696   0.471  13.325
17640W        W21601   7.092   1.674  11.010
17641W        W21602   4.384   0.432  12.829
17642W        W21603   5.498   1.004  13.769
17643W        W21604   3.646   0.694  11.247
17644W        W21605   4.432   2.083  13.808
17645W        W21606   5.790   1.481  12.987
17646W        W21607   5.657   3.560  11.283
17647W        W21608   3.803   2.067  10.980
17648W        W21609   4.538   2.478  14.106
17649W        W21610   4.059   1.645  13.737
17650W        W21611   5.050   1.750  13.531
17651W        W21612   6.818   0.109  13.793
17652W        W21613   7.216   1.719  13.784
17653W        W21614   7.204   1.919  11.470
17654W        W21615   6.067   2.251  11.569
17655W        W21616   6.541   3.551  11.264
17656W        W21617   5.718   1.541  14.406
17657W        W21618   4.048   2.508  14.446
17658W        W21619   7.254   0.430  14.398
17659W        W21620   6.972   1.358  13.019
17660W        W21621   5.280   3.488  14.496
17661W        W21622   5.135   0.117  11.223
17662W        W21623   6.674   2.716  11.166
17663W        W21624   4.443   0.809  14.052
17664W        W21625   4.877   2.803  13.914
17665W        W21626   7.003   0.794  13.712
17666W        W21627   6.214   3.453  11.680
17667W        W21628   6.453   2.072  13.047
17668W        W21629   4.703   0.488  13.714
17669W        W21630   5.172   1.557  14.471
17670W        W21631   4.675   2.736  11.665
17671W        W21632   6.430   2.234  11.929
17672W        W21633   4.198   0.860  13.653
17673W        W21634   5.527   2.922  12.117
17674W        W21635   7.277   1.482  12.298
17675W        W21636   5.499   0.115  14.017
17676W        W21637   6.279   2.820  13.096
17677W        W21638   6.582   3.164  12.804
17678W        W21639   5.801   2.966  11.232
17679W        W21640   3.811   2.858  14.074
17680W        W21641   4.554   0.850  13.312
17681W        W21642   4.524   0.198  12.422
17682W        W21643   6.145   1.040  13.114
17683W        W21644   4.943   2.211  11.314
17684W        W21645   6.941   2.153  12.813
17685W        W21646   4.268   2.911  14.236
17686W        W21647   6.655   3.593  12.033
17687W        W21648   4.754   0.613  12.478
17688W        W21649   4.523   2.106  12.568
17689W        W21650   4.836   3.517  13.318
17690W        W21651   6.903   3.613  14.350
17691W        W21652   6.062   1.801  13.283
17692W        W21653   3.911   1.599  11.198
17693W        W21654   7.045   3.257  11.895
17694W        W21655   6.882   0.581  11.514
17695W        W21656   5.021   0.100  13.917
17696W        W21657   6.727   2.902  12.375
17697W        W21658   6.756   1.458  12.280
17698W        W21659   4.873   1.131  12.496
17699W        W21660   5.118   1.393  13.820
17700W        W21661   6.229   2.546  13.683
17701W        W21662   4.879   1.000  13.795
17702W        W21663   4.858   3.466  12.411
17703W        W21664   4.175   3.425  14.045
17704W        W21665   4.287   2.786  11.175
17705W        W21666   6.804   2.544  11.985
17706W        W21667   4.408   1.336  13.871
17707W        W21668   7.181   1.266  11.352
17708W        W21669   4.926   2.323  11.823
17709W        W21670   6.025   1.705  13.904
17710W        W21671   5.916   1.333  13.448
17711W        W21672   4.476   1.705  13.477
17712W        W21673   6.686   3.593  13.306
17713W        W21674   6.477   0.227  14.300
17714W        W21675   4.141   0.377  13.887
17715W        W21676   4.480   1.400  12.940
17716W        W21677   4.849   1.214  11.062
17717W        W21678   3.652   2.973  13.607
17718W        W21679   5.237   1.682  13.050
17719W        W21680   5.060   0.707  11.155
17720W        W21681   4.195   1.523  11.936
17721W        W21682   3.966   3.375  13.373
17722W        W21683   6.761   1.601  11.481
17723W        W21684   6.856   0.517  14.167
17724W        W21685   6.292   2.726  12.130
17725W        W21686   3.890   1.650  14.307
17726W        W21687   6.856   0.114  11.603
17727W        W21688   6.376   2.589  11.614
17728W        W21689   5.278   1.647  11.699
17729W        W21690   6.465   0.451  11.222
17730W        W21691   6.530   1.058  13.408
17731W        W21692   4.239   1.651  12.615
17732W        W21693   4.533   2.590  12.264
17733W        W21694   6.296   1.210  12.229
17734W        W21695   5.319   0.589  12.925
17735W        W21696   7.199   0.487  12.997
17736W        W21697   3.738   3.317  12.373
17737W        W21698   4.247   2.504  11.909
17738W        W21699   4.162   0.121  14.462
17739W        W21700   5.281   2.974  14.564
17740W        W21701   7.036   1.942  12.354
17741W        W21702   6.390   2.119  11.234
17742W        W21703   5.685   3.640  13.446
17743W        W21704   6.542   2.362  14.483
17744W        W21705   5.357   0.072  11.763
17745W        W21706   6.070   0.941  12.622
17746W        W21707   3.756   2.528  12.954
17747W        W21708   5.009   0.490  11.595
17748W        W21709   4.813   1.974  14.444
17749W        W21710   5.807   0.955  12.158
17750W        W21711   6.012   2.365  13.280
17751W        W21712   4.166   2.970  13.715
17752W        W21713   4.757   2.953  14.438
17753W        W21714   4.608   0.750  11.452
17754W        W21715   6.125   0.892  11.777
17755W        W21716   6.083   3.000  14.014
17756W        W21717   4.768   1.592  12.613
17757W        W21718   4.423   3.290  13.478
17758W        W21719   7.168   3.407  11.079
17759W        W21720   4.031   2.079  14.075
17760W        W21721   6.026   2.341  12.763
17761W        W21722   4.462   1.990  12.005
17762W        W21723   4.833   2.997  13.400
17763W        W21724   5.211   0.416  12.441
17764W        W21725   3.822   2.400  11.371
17765W        W21726   5.341   1.351  11.241
17766W        W21727   3.987   1.900  12.260
17767W        W21728   5.277   0.542  13.724
17768W        W21729   6.949   0.251  11.151
17769W        W21730   7.042   1.997  14.250
17770W        W21731   5.696   3.254  14.402
17771W        W21732   7.254   2.348  13.924
17772W        W21733   6.662   3.146  14.535
17773W        W21734   4.401   3.602  13.013
17774W        W21735   7.260   2.224  11.887
17775W        W21736   5.790   1.491  12.400
17776W        W21737   5.557   0.103  12.290
17777W        W21738   4.616   3.087  12.127
17778W        W21739   5.115   0.828  13.352
17779W        W21740   4.815   0.197  12.821
17780W        W21741   3.878   3.019  11.369
17781W        W21742   5.694   2.383  12.087
17782W        W21743   4.569   3.178  13.966
17783W        W21744   4.046   2.001  11.662
17784W        W21745   3.931   0.544  12.661
17785W        W21746   5.479   2.509  12.718
17786W        W21747   3.731   0.363  11.738
17787W        W21748   6.395   1.569  13.665
17788W        W21749   6.272   0.955  11.237
17789W        W21750   6.789   2.627  12.885
17790W        W21751   5.450   3.111  12.716
17791W        W21752   4.862   3.215  11.627
17792W        W21753   6.144   0.118  11.057
17793W        W21754   3.944   3.378  12.798
17794W        W21755   6.141   1.136  14.433
17795W        W21756   4.124   0.666  14.432
17796W        W21757   3.855   1.266  11.765
17797W        W21758   4.546   1.255  11.490
17798W        W21759   6.309   1.582  14.307
17799W        W21760   4.652   1.863  13.016
17800W        W21761   6.126   0.149  12.136
17801W        W21762   5.257   3.580  12.639
17802W        W21763   6.471   3.042  13.576
17803W        W21764   6.055   3.191  12.687
17804W        W21765   6.074   2.171  12.281
17805W        W21766   5.536   0.396  11.352
17806W        W21767   7.217   0.024  12.074
17807W        W21768   4.905   1.659  11.237
17808W        W21769   7.071   0.996  12.227
17809W        W21770   5.763   2.166  11.104
17810W        W21771   6.699   2.366  13.852
17811W        W21772   6.353   3.067  11.319
17812W        W21773   4.968   0.742  14.225
17813W        W21774   4.788   1.326  13.466
17814W        W21775   6.880   2.821  13.743
17815W        W21776   5.980   0.771  14.120
17816W        W21777   3.824   1.242  13.897
17817W        W21778   5.584   1.719  13.623
17818W        W21779   3.941   2.477  12.280
17819W        W21780   4.088   1.774  13.170
17820W        W21781   6.405   2.060  13.520
17821W        W21782   6.177   3.440  14.331
17822W        W21783   6.073   1.179  13.884
17823W        W21784   6.350   3.233  12.289
17824W        W21785   5.352   2.953  13.612
17825W        W21786   4.837   3.308  12.881
17826W        W21787   6.642   2.479  13.300
17827W        W21788   5.692   2.551  14.437
17828W        W21789   4.297   2.504  12.776
17829W        W21790   6.643   2.263  12.421
17830W        W21791   6.284   3.329  13.172
17831W        W21792   4.262   3.058  13.042
17832W        W21793   5.283   1.110  14.252
17833W        W21794   5.734   3.276  11.763
17834W        W21795   5.042   2.531  14.401
17835W        W21796   5.168   2.769  11.778
17836W        W21797   4.389   1.509  11.037
17837W        W21798   3.728   3.595  17.936
17838W        W21799   4.104   2.488  17.459
17839W        W21800   6.809   2.218  15.229
17840W        W21801   6.939   3.303  17.256
17841W        W21802   4.857   3.294  14.782
17842W        W21803   4.940   1.446  15.765
17843W        W21804   4.455   1.294  15.929
17844W        W21805   5.446   2.109  15.363
17845W        W21806   5.121   3.201  17.718
17846W        W21807   3.770   0.762  17.681
17847W        W21808   4.532   0.042  17.483
17848W        W21809   6.226   0.430  16.370
17849W        W21810   5.875   1.301  14.940
17850W        W21811   6.445   0.735  18.031
17851W        W21812   3.811   0.527  17.156
17852W        W21813   3.910   3.146  18.177
17853W        W21814   5.432   2.536  14.909
17854W        W21815   3.864   1.319  16.602
17855W        W21816   4.757   1.210  17.839
17856W        W21817   7.216   1.069  16.338
17857W        W21818   6.980   2.112  17.197
17858W        W21819   5.288   1.445  16.224
17859W        W21820   5.834   2.784  16.593
17860W        W21821   4.334   2.218  16.825
17861W        W21822   3.693   1.746  16.396
17862W        W21823   4.729   1.718  17.588
17863W        W21824   7.000   1.501  17.842
17864W        W21825   4.616   2.945  16.287
17865W        W21826   5.737   2.634  17.421
17866W        W21827   4.957   1.274  16.646
17867W        W21828   5.249   2.058  16.289
17868W        W21829   6.246   2.831  18.137
17869W        W21830   5.325   2.151  18.147
17870W        W21831   5.306   1.867  17.625
17871W        W21832   3.715   1.258  18.147
17872W        W21833   6.547   2.793  17.746
17873W        W21834   4.128   0.375  15.744
17874W        W21835   4.655   2.633  16.743
17875W        W21836   7.118   2.416  16.033
17876W        W21837   6.531   0.816  16.600
17877W        W21838   6.816   0.769  14.695
17878W        W21839   7.281   1.570  17.001
17879W        W21840   5.248   3.277  16.754
17880W        W21841   7.022   2.743  15.192
17881W        W21842   4.151   3.529  14.946
17882W        W21843   4.544   3.575  15.622
17883W        W21844   4.341   0.329  17.048
17884W        W21845   6.964   1.347  17.323
17885W        W21846   6.369   1.769  15.782
17886W        W21847   6.335   1.457  14.809
17887W        W21848   5.543   2.601  16.949
17888W        W21849   5.349   0.931  16.148
17889W        W21850   5.949   3.018  17.142
17890W        W21851   6.820   1.809  15.564
17891W        W21852   5.722   0.467  15.580
17892W        W21853   4.379   3.161  15.263
17893W        W21854   3.750   0.660  15.862
17894W        W21855   6.536   1.267  16.336
17895W        W21856   3.994   2.884  16.251
17896W        W21857   5.335   3.234  15.121
17897W        W21858   6.727   1.260  14.585
17898W        W21859   3.750   3.018  16.749
17899W        W21860   4.541   2.590  17.229
17900W        W21861   4.914   1.950  15.848
17901W        W21862   4.936   0.355  16.941
17902W        W21863   7.165   0.117  16.238
17903W        W21864   4.384   1.989  14.706
17904W        W21865   4.039   1.022  14.885
17905W        W21866   4.101   2.978  15.679
17906W        W21867   5.232   2.461  15.927
17907W        W21868   6.564   3.320  17.641
17908W        W21869   5.490   0.962  15.325
17909W        W21870   6.873   3.360  16.097
17910W        W21871   6.550   1.213  17.695
17911W        W21872   7.263   2.869  15.829
17912W        W21873   5.890   2.161  17.313
17913W        W21874   3.656   1.712  15.519
17914W        W21875   4.767   2.127  17.092
17915W        W21876   5.971   1.391  15.470
17916W        W21877   5.848   1.881  15.574
17917W        W21878   4.191   1.301  17.048
17918W        W21879   4.176   1.177  17.970
17919W        W21880   4.066   0.094  16.129
17920W        W21881   5.834   0.441  16.690
17921W        W21882   5.482   0.626  17.853
17922W        W21883   5.837   0.775  15.031
17923W        W21884   7.020   3.168  17.785
17924W        W21885   5.987   0.249  17.824
17925W        W21886   7.006   2.550  17.946
17926W        W21887   6.436   0.717  17.542
17927W        W21888   6.236   0.655  15.812
17928W        W21889   6.629   1.789  18.216
17929W        W21890   4.369   3.365  16.202
17930W        W21891   5.027   1.082  15.188
17931W        W21892   4.596   0.366  17.852
17932W        W21893   6.648   0.850  15.533
17933W        W21894   7.015   1.332  15.478
17934W        W21895   4.758   3.549  17.949
17935W        W21896   4.684   0.085  15.184
17936W        W21897   7.005   0.619  16.219
17937W        W21898   7.155   2.868  14.664
17938W        W21899   4.062   2.071  16.366
17939W        W21900   5.979   0.658  14.596
17940W        W21901   7.113   2.990  16.316
17941W        W21902   7.152   0.184  17.066
17942W        W21903   5.597   1.396  17.620
17943W        W21904   5.690   2.735  15.323
17944W        W21905   6.090   2.029  18.063
17945W        W21906   5.764   0.006  16.372
17946W        W21907   4.376   0.909  16.435
17947W        W21908   3.930   2.109  17.209
17948W        W21909   5.789   3.302  15.915
17949W        W21910   6.983   0.899  16.787
17950W        W21911   5.620   3.246  17.554
17951W        W21912   6.963   2.305  14.759
17952W        W21913   5.398   1.788  15.820
17953W        W21914   7.250   0.299  17.561
17954W        W21915   5.399   2.134  17.155
17955W        W21916   5.616   1.020  16.600
17956W        W21917   6.468   1.318  15.438
17957W        W21918   6.755   1.051  15.080
17958W        W21919   6.564   3.091  15.469
17959W        W21920   6.398   2.694  16.265
17960W        W21921   6.294   1.773  15.243
17961W        W21922   5.727   1.983  16.229
17962W        W21923   6.608   1.771  16.296
17963W        W21924   3.983   0.786  16.720
17964W        W21925   6.761   1.838  17.547
17965W        W21926   7.112   3.456  16.693
17966W        W21927   5.042   2.900  16.095
17967W        W21928   6.049   3.433  17.419
17968W        W21929   6.043   0.763  17.183
17969W        W21930   5.250   3.471  17.244
17970W        W21931   6.947   0.425  15.710
17971W        W21932   6.738   1.744  17.011
17972W        W21933   3.721   1.065  17.049
17973W        W21934   6.581   0.860  16.067
17974W        W21935   6.992   1.011  17.844
17975W        W21936   5.877   2.710  16.062
17976W        W21937   5.133   3.301  15.675
17977W        W21938   4.248   0.481  14.933
17978W        W21939   5.352   0.135  16.743
17979W        W21940   4.380   3.255  14.591
17980W        W21941   4.754   1.721  15.342
17981W        W21942   5.408   2.350  17.655
17982W        W21943   5.238   0.708  15.645
17983W        W21944   6.594   0.305  16.073
17984W        W21945   6.314   3.587  16.401
17985W        W21946   5.726   3.235  16.741
17986W        W21947   5.122   2.272  16.702
17987W        W21948   6.892   2.995  16.828
17988W        W21949   4.586   0.498  15.597
17989W        W21950   5.108   2.795  16.557
17990W        W21951   4.591   0.726  14.622
17991W        W21952   5.392   1.335  17.016
17992W        W21953   6.240   0.201  16.886
17993W        W21954   3.660   2.044  16.771
17994W        W21955   5.364   1.862  14.929
17995W        W21956   4.632   0.177  14.699
17996W        W21957   5.370   1.258  15.750
17997W        W21958   6.340   0.234  17.449
17998W        W21959   4.928   2.246  17.558
17999W        W21960   5.732   2.028  17.775
18000W        W21961   6.349   2.058  17.668
18001W        W21962   5.633   0.198  18.173
18002W        W21963   4.855   0.814  16.566
18003W        W21964   4.281   0.770  15.964
18004W        W21965   4.067   3.482  15.640
18005W        W21966   5.399   2.812  17.765
18006W        W21967   4.434   2.297  15.124
18007W        W21968   6.114   1.682  16.345
18008W        W21969   6.394   1.481  16.744
18009W        W21970   5.599   2.155  16.678
18010W        W21971   6.069   2.529  14.810
18011W        W21972   5.741   0.550  16.138
18012W        W21973   7.220   0.828  15.406
18013W        W21974   3.714   3.417  17.437
18014W        W21975   4.131   2.643  16.969
18015W        W21976   3.698   3.489  15.201
18016W        W21977   5.597   0.759  17.007
18017W        W21978   4.960   2.782  14.856
18018W        W21979   6.865   3.164  15.042
18019W        W21980   5.840   1.817  15.056
18020W        W21981   4.683   1.008  15.573
18021W        W21982   5.515   0.918  14.625
18022W        W21983   6.099   2.483  17.803
18023W        W21984   6.452   0.389  15.420
18024W        W21985   3.782   0.237  14.868
18025W        W21986   5.068   2.556  17.158
18026W        W21987   4.867   2.472  16.250
18027W        W21988   4.609   2.424  14.648
18028W        W21989   3.850   2.665  15.416
18029W        W21990   4.354   1.735  17.858
18030W        W21991   5.058   0.295  18.044
18031W        W21992   5.767   0.437  17.400
18032W        W21993   4.962   0.205  15.681
18033W        W21994   6.021   0.282  15.186
18034W        W21995   3.966   0.214  16.763
18035W        W21996   4.014   1.177  16.133
18036W        W21997   6.703   0.285  16.539
18037W        W21998   4.125   0.783  15.353
18038W        W21999   6.696   0.471  16.969
18039W        W22000   7.092   1.674  14.654
18040W        W22001   4.384   0.432  16.473
18041W        W22002   5.498   1.004  17.413
18042W        W22003   3.646   0.694  14.891
18043W        W22004   4.432   2.083  17.452
18044W        W22005   5.790   1.481  16.631
18045W        W22006   5.657   3.560  14.927
18046W        W22007   3.803   2.067  14.624
18047W        W22008   4.538   2.478  17.750
18048W        W22009   4.059   1.645  17.381
18049W        W22010   5.050   1.750  17.175
18050W        W22011   6.818   0.109  17.437
18051W        W22012   7.216   1.719  17.428
18052W        W22013   7.204   1.919  15.114
18053W        W22014   6.067   2.251  15.213
18054W        W22015   6.541   3.551  14.908
18055W        W22016   5.718   1.541  18.050
18056W        W22017   4.048   2.508  18.090
18057W        W22018   7.254   0.430  18.042
18058W        W22019   6.972   1.358  16.663
18059W        W22020   5.280   3.488  18.140
18060W        W22021   5.135   0.117  14.867
18061W        W22022   6.674   2.716  14.810
18062W        W22023   4.443   0.809  17.696
18063W        W22024   4.877   2.803  17.558
18064W        W22025   7.003   0.794  17.356
18065W        W22026   6.214   3.453  15.324
18066W        W22027   6.453   2.072  16.691
18067W        W22028   4.703   0.488  17.358
18068W        W22029   5.172   1.557  18.115
18069W        W22030   4.675   2.736  15.309
18070W        W22031   6.430   2.234  15.573
18071W        W22032   4.198   0.860  17.297
18072W        W22033   5.527   2.922  15.761
18073W        W22034   7.277   1.482  15.942
18074W        W22035   5.499   0.115  17.661
18075W        W22036   6.279   2.820  16.740
18076W        W22037   6.582   3.164  16.448
18077W        W22038   5.801   2.966  14.876
18078W        W22039   3.811   2.858  17.718
18079W        W22040   4.554   0.850  16.956
18080W        W22041   4.524   0.198  16.066
18081W        W22042   6.145   1.040  16.758
18082W        W22043   4.943   2.211  14.958
18083W        W22044   6.941   2.153  16.457
18084W        W22045   4.268   2.911  17.880
18085W        W22046   6.655   3.593  15.677
18086W        W22047   4.754   0.613  16.122
18087W        W22048   4.523   2.106  16.212
18088W        W22049   4.836   3.517  16.962
18089W        W22050   6.903   3.613  17.994
18090W        W22051   6.062   1.801  16.927
18091W        W22052   3.911   1.599  14.842
18092W        W22053   7.045   3.257  15.539
18093W        W22054   6.882   0.581  15.158
18094W        W22055   5.021   0.100  17.561
18095W        W22056   6.727   2.902  16.019
18096W        W22057   6.756   1.458  15.924
18097W        W22058   4.873   1.131  16.140
18098W        W22059   5.118   1.393  17.464
18099W        W22060   6.229   2.546  17.327
18100W        W22061   4.879   1.000  17.439
18101W        W22062   4.858   3.466  16.055
18102W        W22063   4.175   3.425  17.689
18103W        W22064   4.287   2.786  14.819
18104W        W22065   6.804   2.544  15.629
18105W        W22066   4.408   1.336  17.515
18106W        W22067   7.181   1.266  14.996
18107W        W22068   4.926   2.323  15.467
18108W        W22069   6.025   1.705  17.548
18109W        W22070   5.916   1.333  17.092
18110W        W22071   4.476   1.705  17.121
18111W        W22072   6.686   3.593  16.950
18112W        W22073   6.477   0.227  17.944
18113W        W22074   4.141   0.377  17.531
18114W        W22075   4.480   1.400  16.584
18115W        W22076   4.849   1.214  14.706
18116W        W22077   3.652   2.973  17.251
18117W        W22078   5.237   1.682  16.694
18118W        W22079   5.060   0.707  14.799
18119W        W22080   4.195   1.523  15.580
18120W        W22081   3.966   3.375  17.017
18121W        W22082   6.761   1.601  15.125
18122W        W22083   6.856   0.517  17.811
18123W        W22084   6.292   2.726  15.774
18124W        W22085   3.890   1.650  17.951
18125W        W22086   6.856   0.114  15.247
18126W        W22087   6.376   2.589  15.258
18127W        W22088   5.278   1.647  15.343
18128W        W22089   6.465   0.451  14.866
18129W        W22090   6.530   1.058  17.052
18130W        W22091   4.239   1.651  16.259
18131W        W22092   4.533   2.590  15.908
18132W        W22093   6.296   1.210  15.873
18133W        W22094   5.319   0.589  16.569
18134W        W22095   7.281   2.500  17.080
18135W        W22096   7.199   0.487  16.641
18136W        W22097   3.738   3.317  16.017
18137W        W22098   4.247   2.504  15.553
18138W        W22099   4.162   0.121  18.106
18139W        W22100   5.281   2.974  18.208
18140W        W22101   7.036   1.942  15.998
18141W        W22102   6.390   2.119  14.878
18142W        W22103   5.685   3.640  17.090
18143W        W22104   6.542   2.362  18.127
18144W        W22105   5.357   0.072  15.407
18145W        W22106   6.070   0.941  16.266
18146W        W22107   3.756   2.528  16.598
18147W        W22108   5.009   0.490  15.239
18148W        W22109   4.813   1.974  18.088
18149W        W22110   5.807   0.955  15.802
18150W        W22111   6.012   2.365  16.924
18151W        W22112   4.166   2.970  17.359
18152W        W22113   4.757   2.953  18.082
18153W        W22114   4.608   0.750  15.096
18154W        W22115   6.125   0.892  15.421
18155W        W22116   6.083   3.000  17.658
18156W        W22117   4.768   1.592  16.257
18157W        W22118   4.423   3.290  17.122
18158W        W22119   7.168   3.407  14.723
18159W        W22120   4.031   2.079  17.719
18160W        W22121   6.026   2.341  16.407
18161W        W22122   4.462   1.990  15.649
18162W        W22123   4.833   2.997  17.044
18163W        W22124   5.211   0.416  16.085
18164W        W22125   3.822   2.400  15.015
18165W        W22126   5.341   1.351  14.885
18166W        W22127   3.987   1.900  15.904
18167W        W22128   5.277   0.542  17.368
18168W        W22129   6.949   0.251  14.795
18169W        W22130   7.042   1.997  17.894
18170W        W22131   5.696   3.254  18.046
18171W        W22132   7.254   2.348  17.568
18172W        W22133   6.662   3.146  18.179
18173W        W22134   4.401   3.602  16.657
18174W        W22135   7.260   2.224  15.531
18175W        W22136   5.790   1.491  16.044
18176W        W22137   5.557   0.103  15.934
18177W        W22138   4.616   3.087  15.771
18178W        W22139   5.115   0.828  16.996
18179W        W22140   4.815   0.197  16.465
18180W        W22141   3.878   3.019  15.013
18181W        W22142   5.694   2.383  15.731
18182W        W22143   4.569   3.178  17.610
18183W        W22144   4.046   2.001  15.306
18184W        W22145   3.931   0.544  16.305
18185W        W22146   5.479   2.509  16.362
18186W        W22147   3.731   0.363  15.382
18187W        W22148   6.395   1.569  17.309
18188W        W22149   6.272   0.955  14.881
18189W        W22150   6.789   2.627  16.529
18190W        W22151   5.450   3.111  16.360
18191W        W22152   4.862   3.215  15.271
18192W        W22153   6.144   0.118  14.701
18193W        W22154   3.944   3.378  16.442
18194W        W22155   6.141   1.136  18.077
18195W        W22156   4.124   0.666  18.076
18196W        W22157   3.855   1.266  15.409
18197W        W22158   4.546   1.255  15.134
18198W        W22159   6.309   1.582  17.951
18199W        W22160   4.652   1.863  16.660
18200W        W22161   6.126   0.149  15.780
18201W        W22162   5.257   3.580  16.283
18202W        W22163   6.471   3.042  17.220
18203W        W22164   6.055   3.191  16.331
18204W        W22165   6.074   2.171  15.925
18205W        W22166   5.536   0.396  14.996
18206W        W22167   7.217   0.024  15.718
18207W        W22168   4.905   1.659  14.881
18208W        W22169   7.071   0.996  15.871
18209W        W22170   5.763   2.166  14.748
18210W        W22171   6.699   2.366  17.496
18211W        W22172   6.353   3.067  14.963
18212W        W22173   4.968   0.742  17.869
18213W        W22174   4.788   1.326  17.110
18214W        W22175   6.880   2.821  17.387
18215W        W22176   5.980   0.771  17.764
18216W        W22177   3.824   1.242  17.541
18217W        W22178   5.584   1.719  17.267
18218W        W22179   3.941   2.477  15.924
18219W        W22180   4.088   1.774  16.814
18220W        W22181   6.405   2.060  17.164
18221W        W22182   6.177   3.440  17.975
18222W        W22183   6.073   1.179  17.528
18223W        W22184   6.350   3.233  15.933
18224W        W22185   5.352   2.953  17.256
18225W        W22186   4.837   3.308  16.525
18226W        W22187   6.642   2.479  16.944
18227W        W22188   5.692   2.551  18.081
18228W        W22189   4.297   2.504  16.420
18229W        W22190   6.643   2.263  16.065
18230W        W22191   6.284   3.329  16.816
18231W        W22192   4.262   3.058  16.686
18232W        W22193   5.283   1.110  17.896
18233W        W22194   5.734   3.276  15.407
18234W        W22195   5.042   2.531  18.045
18235W        W22196   5.168   2.769  15.422
18236W        W22197   4.389   1.509  14.681
18237W        W22198   3.728   3.595  21.580
18238W        W22199   4.104   2.488  21.103
18239W        W22200   6.809   2.218  18.873
18240W        W22201   6.939   3.303  20.900
18241W        W22202   4.857   3.294  18.426
18242W        W22203   4.940   1.446  19.409
18243W        W22204   4.455   1.294  19.573
18244W        W22205   5.446   2.109  19.007
18245W        W22206   5.121   3.201  21.362
18246W        W22207   3.770   0.762  21.325
18247W        W22208   4.532   0.042  21.127
18248W        W22209   6.226   0.430  20.014
18249W        W22210   5.875   1.301  18.584
18250W        W22211   6.445   0.735  21.675
18251W        W22212   3.811   0.527  20.800
18252W        W22213   3.910   3.146  21.821
18253W        W22214   5.432   2.536  18.553
18254W        W22215   3.864   1.319  20.246
18255W        W22216   4.757   1.210  21.483
18256W        W22217   7.216   1.069  19.982
18257W        W22218   6.980   2.112  20.841
18258W        W22219   5.288   1.445  19.868
18259W        W22220   5.834   2.784  20.237
18260W        W22221   4.334   2.218  20.469
18261W        W22222   3.693   1.746  20.040
18262W        W22223   4.729   1.718  21.232
18263W        W22224   7.000   1.501  21.486
18264W        W22225   4.616   2.945  19.931
18265W        W22226   5.737   2.634  21.065
18266W        W22227   4.957   1.274  20.290
18267W        W22228   5.249   2.058  19.933
18268W        W22229   6.246   2.831  21.781
18269W        W22230   5.325   2.151  21.791
18270W        W22231   5.306   1.867  21.269
18271W        W22232   3.715   1.258  21.791
18272W        W22233   6.547   2.793  21.390
18273W        W22234   4.128   0.375  19.388
18274W        W22235   4.655   2.633  20.387
18275W        W22236   7.118   2.416  19.677
18276W        W22237   6.531   0.816  20.244
18277W        W22238   6.816   0.769  18.339
18278W        W22239   7.281   1.570  20.645
18279W        W22240   5.248   3.277  20.398
18280W        W22241   7.022   2.743  18.836
18281W        W22242   4.151   3.529  18.590
18282W        W22243   4.544   3.575  19.266
18283W        W22244   4.341   0.329  20.692
18284W        W22245   6.964   1.347  20.967
18285W        W22246   6.369   1.769  19.426
18286W        W22247   6.335   1.457  18.453
18287W        W22248   5.543   2.601  20.593
18288W        W22249   5.349   0.931  19.792
18289W        W22250   5.949   3.018  20.786
18290W        W22251   6.820   1.809  19.208
18291W        W22252   5.722   0.467  19.224
18292W        W22253   4.379   3.161  18.907
18293W        W22254   3.750   0.660  19.506
18294W        W22255   6.536   1.267  19.980
18295W        W22256   3.994   2.884  19.895
18296W        W22257   6.727   1.260  18.229
18297W        W22258   3.750   3.018  20.393
18298W        W22259   4.541   2.590  20.873
18299W        W22260   4.914   1.950  19.492
18300W        W22261   4.936   0.355  20.585
18301W        W22262   7.165   0.117  19.882
18302W        W22263   4.384   1.989  18.350
18303W        W22264   4.039   1.022  18.529
18304W        W22265   4.101   2.978  19.323
18305W        W22266   5.232   2.461  19.571
18306W        W22267   6.564   3.320  21.285
18307W        W22268   5.490   0.962  18.969
18308W        W22269   6.873   3.360  19.741
18309W        W22270   6.550   1.213  21.339
18310W        W22271   7.263   2.869  19.473
18311W        W22272   5.890   2.161  20.957
18312W        W22273   3.656   1.712  19.163
18313W        W22274   4.767   2.127  20.736
18314W        W22275   5.971   1.391  19.114
18315W        W22276   5.848   1.881  19.218
18316W        W22277   4.191   1.301  20.692
18317W        W22278   4.176   1.177  21.614
18318W        W22279   4.066   0.094  19.773
18319W        W22280   5.834   0.441  20.334
18320W        W22281   5.482   0.626  21.497
18321W        W22282   5.837   0.775  18.675
18322W        W22283   7.020   3.168  21.429
18323W        W22284   5.987   0.249  21.468
18324W        W22285   7.006   2.550  21.590
18325W        W22286   6.436   0.717  21.186
18326W        W22287   6.236   0.655  19.456
18327W        W22288   6.629   1.789  21.860
18328W        W22289   4.369   3.365  19.846
18329W        W22290   5.027   1.082  18.832
18330W        W22291   4.596   0.366  21.496
18331W        W22292   6.648   0.850  19.177
18332W        W22293   7.015   1.332  19.122
18333W        W22294   4.758   3.549  21.593
18334W        W22295   4.684   0.085  18.828
18335W        W22296   7.005   0.619  19.863
18336W        W22297   7.155   2.868  18.308
18337W        W22298   4.062   2.071  20.010
18338W        W22299   5.979   0.658  18.240
18339W        W22300   7.113   2.990  19.960
18340W        W22301   7.152   0.184  20.710
18341W        W22302   5.597   1.396  21.264
18342W        W22303   5.690   2.735  18.967
18343W        W22304   6.090   2.029  21.707
18344W        W22305   5.764   0.006  20.016
18345W        W22306   4.376   0.909  20.079
18346W        W22307   3.930   2.109  20.853
18347W        W22308   6.983   0.899  20.431
18348W        W22309   5.620   3.246  21.198
18349W        W22310   6.963   2.305  18.403
18350W        W22311   5.398   1.788  19.464
18351W        W22312   7.250   0.299  21.205
18352W        W22313   5.399   2.134  20.799
18353W        W22314   5.616   1.020  20.244
18354W        W22315   6.468   1.318  19.082
18355W        W22316   6.755   1.051  18.724
18356W        W22317   6.564   3.091  19.113
18357W        W22318   6.398   2.694  19.909
18358W        W22319   6.294   1.773  18.887
18359W        W22320   5.727   1.983  19.873
18360W        W22321   6.608   1.771  19.940
18361W        W22322   3.983   0.786  20.364
18362W        W22323   6.761   1.838  21.191
18363W        W22324   7.112   3.456  20.337
18364W        W22325   5.042   2.900  19.739
18365W        W22326   6.049   3.433  21.063
18366W        W22327   6.043   0.763  20.827
18367W        W22328   5.250   3.471  20.888
18368W        W22329   6.947   0.425  19.354
18369W        W22330   6.738   1.744  20.655
18370W        W22331   3.721   1.065  20.693
18371W        W22332   6.581   0.860  19.711
18372W        W22333   6.992   1.011  21.488
18373W        W22334   5.877   2.710  19.706
18374W        W22335   5.133   3.301  19.319
18375W        W22336   4.248   0.481  18.577
18376W        W22337   5.352   0.135  20.387
18377W        W22338   4.380   3.255  18.235
18378W        W22339   4.754   1.721  18.986
18379W        W22340   5.408   2.350  21.299
18380W        W22341   5.238   0.708  19.289
18381W        W22342   6.594   0.305  19.717
18382W        W22343   6.314   3.587  20.045
18383W        W22344   5.726   3.235  20.385
18384W        W22345   5.122   2.272  20.346
18385W        W22346   6.892   2.995  20.472
18386W        W22347   4.586   0.498  19.241
18387W        W22348   5.108   2.795  20.201
18388W        W22349   4.591   0.726  18.266
18389W        W22350   5.392   1.335  20.660
18390W        W22351   6.240   0.201  20.530
18391W        W22352   3.660   2.044  20.415
18392W        W22353   5.364   1.862  18.573
18393W        W22354   4.632   0.177  18.343
18394W        W22355   5.370   1.258  19.394
18395W        W22356   6.340   0.234  21.093
18396W        W22357   4.928   2.246  21.202
18397W        W22358   5.732   2.028  21.419
18398W        W22359   6.349   2.058  21.312
18399W        W22360   5.633   0.198  21.817
18400W        W22361   4.855   0.814  20.210
18401W        W22362   4.281   0.770  19.608
18402W        W22363   4.067   3.482  19.284
18403W        W22364   5.399   2.812  21.409
18404W        W22365   4.434   2.297  18.768
18405W        W22366   6.114   1.682  19.989
18406W        W22367   6.394   1.481  20.388
18407W        W22368   5.599   2.155  20.322
18408W        W22369   6.069   2.529  18.454
18409W        W22370   5.741   0.550  19.782
18410W        W22371   7.220   0.828  19.050
18411W        W22372   3.714   3.417  21.081
18412W        W22373   4.131   2.643  20.613
18413W        W22374   3.698   3.489  18.845
18414W        W22375   5.597   0.759  20.651
18415W        W22376   4.960   2.782  18.500
18416W        W22377   6.865   3.164  18.686
18417W        W22378   5.840   1.817  18.700
18418W        W22379   4.683   1.008  19.217
18419W        W22380   5.515   0.918  18.269
18420W        W22381   6.099   2.483  21.447
18421W        W22382   6.452   0.389  19.064
18422W        W22383   3.782   0.237  18.512
18423W        W22384   5.068   2.556  20.802
18424W        W22385   4.867   2.472  19.894
18425W        W22386   4.609   2.424  18.292
18426W        W22387   3.850   2.665  19.060
18427W        W22388   4.354   1.735  21.502
18428W        W22389   5.058   0.295  21.688
18429W        W22390   5.767   0.437  21.044
18430W        W22391   4.962   0.205  19.325
18431W        W22392   6.021   0.282  18.830
18432W        W22393   3.966   0.214  20.407
18433W        W22394   4.014   1.177  19.777
18434W        W22395   6.703   0.285  20.183
18435W        W22396   4.125   0.783  18.997
18436W        W22397   6.696   0.471  20.613
18437W        W22398   7.092   1.674  18.298
18438W        W22399   4.384   0.432  20.117
18439W        W22400   5.498   1.004  21.057
18440W        W22401   3.646   0.694  18.535
18441W        W22402   4.432   2.083  21.096
18442W        W22403   5.790   1.481  20.275
18443W        W22404   5.657   3.560  18.571
18444W        W22405   3.803   2.067  18.268
18445W        W22406   4.538   2.478  21.394
18446W        W22407   4.059   1.645  21.025
18447W        W22408   5.050   1.750  20.819
18448W        W22409   6.818   0.109  21.081
18449W        W22410   7.216   1.719  21.072
18450W        W22411   7.204   1.919  18.758
18451W        W22412   6.067   2.251  18.857
18452W        W22413   6.541   3.551  18.552
18453W        W22414   5.718   1.541  21.694
18454W        W22415   4.048   2.508  21.734
18455W        W22416   7.254   0.430  21.686
18456W        W22417   6.972   1.358  20.307
18457W        W22418   5.280   3.488  21.784
18458W        W22419   5.135   0.117  18.511
18459W        W22420   6.674   2.716  18.454
18460W        W22421   4.443   0.809  21.340
18461W        W22422   4.877   2.803  21.202
18462W        W22423   7.003   0.794  21.000
18463W        W22424   6.214   3.453  18.968
18464W        W22425   6.453   2.072  20.335
18465W        W22426   4.703   0.488  21.002
18466W        W22427   5.172   1.557  21.759
18467W        W22428   4.675   2.736  18.953
18468W        W22429   6.430   2.234  19.217
18469W        W22430   4.198   0.860  20.941
18470W        W22431   7.277   1.482  19.586
18471W        W22432   5.499   0.115  21.305
18472W        W22433   6.279   2.820  20.384
18473W        W22434   6.582   3.164  20.092
18474W        W22435   5.801   2.966  18.520
18475W        W22436   3.811   2.858  21.362
18476W        W22437   4.554   0.850  20.600
18477W        W22438   4.524   0.198  19.710
18478W        W22439   6.145   1.040  20.402
18479W        W22440   4.943   2.211  18.602
18480W        W22441   6.941   2.153  20.101
18481W        W22442   4.268   2.911  21.524
18482W        W22443   6.655   3.593  19.321
18483W        W22444   4.754   0.613  19.766
18484W        W22445   4.523   2.106  19.856
18485W        W22446   4.836   3.517  20.606
18486W        W22447   6.903   3.613  21.638
18487W        W22448   6.062   1.801  20.571
18488W        W22449   3.911   1.599  18.486
18489W        W22450   7.045   3.257  19.183
18490W        W22451   6.882   0.581  18.802
18491W        W22452   5.021   0.100  21.205
18492W        W22453   6.727   2.902  19.663
18493W        W22454   6.756   1.458  19.568
18494W        W22455   4.873   1.131  19.784
18495W        W22456   5.118   1.393  21.108
18496W        W22457   6.229   2.546  20.971
18497W        W22458   4.879   1.000  21.083
18498W        W22459   4.858   3.466  19.699
18499W        W22460   4.175   3.425  21.333
18500W        W22461   4.287   2.786  18.463
18501W        W22462   6.804   2.544  19.273
18502W        W22463   4.408   1.336  21.159
18503W        W22464   7.181   1.266  18.640
18504W        W22465   4.926   2.323  19.111
18505W        W22466   6.025   1.705  21.192
18506W        W22467   5.916   1.333  20.736
18507W        W22468   4.476   1.705  20.765
18508W        W22469   6.686   3.593  20.594
18509W        W22470   6.477   0.227  21.588
18510W        W22471   4.141   0.377  21.175
18511W        W22472   4.480   1.400  20.228
18512W        W22473   4.849   1.214  18.350
18513W        W22474   3.652   2.973  20.895
18514W        W22475   5.237   1.682  20.338
18515W        W22476   5.060   0.707  18.443
18516W        W22477   4.195   1.523  19.224
18517W        W22478   3.966   3.375  20.661
18518W        W22479   6.761   1.601  18.769
18519W        W22480   6.856   0.517  21.455
18520W        W22481   6.292   2.726  19.418
18521W        W22482   3.890   1.650  21.595
18522W        W22483   6.856   0.114  18.891
18523W        W22484   6.376   2.589  18.902
18524W        W22485   5.278   1.647  18.987
18525W        W22486   6.465   0.451  18.510
18526W        W22487   6.530   1.058  20.696
18527W        W22488   4.239   1.651  19.903
18528W        W22489   4.533   2.590  19.552
18529W        W22490   6.296   1.210  19.517
18530W        W22491   5.319   0.589  20.213
18531W        W22492   7.281   2.500  20.724
18532W        W22493   7.199   0.487  20.285
18533W        W22494   3.738   3.317  19.661
18534W        W22495   4.247   2.504  19.197
18535W        W22496   4.162   0.121  21.750
18536W        W22497   5.281   2.974  21.852
18537W        W22498   7.036   1.942  19.642
18538W        W22499   6.390   2.119  18.522
18539W        W22500   5.685   3.640  20.734
18540W        W22501   6.542   2.362  21.771
18541W        W22502   5.357   0.072  19.051
18542W        W22503   6.070   0.941  19.910
18543W        W22504   3.756   2.528  20.242
18544W        W22505   5.009   0.490  18.883
18545W        W22506   4.813   1.974  21.732
18546W        W22507   5.807   0.955  19.446
18547W        W22508   6.012   2.365  20.568
18548W        W22509   4.166   2.970  21.003
18549W        W22510   4.757   2.953  21.726
18550W        W22511   4.608   0.750  18.740
18551W        W22512   6.125   0.892  19.065
18552W        W22513   6.083   3.000  21.302
18553W        W22514   4.768   1.592  19.901
18554W        W22515   4.423   3.290  20.766
18555W        W22516   7.168   3.407  18.367
18556W        W22517   4.031   2.079  21.363
18557W        W22518   6.026   2.341  20.051
18558W        W22519   4.462   1.990  19.293
18559W        W22520   4.833   2.997  20.688
18560W        W22521   5.211   0.416  19.729
18561W        W22522   3.822   2.400  18.659
18562W        W22523   5.341   1.351  18.529
18563W        W22524   3.987   1.900  19.548
18564W        W22525   5.277   0.542  21.012
18565W        W22526   6.949   0.251  18.439
18566W        W22527   7.042   1.997  21.538
18567W        W22528   5.696   3.254  21.690
18568W        W22529   7.254   2.348  21.212
18569W        W22530   6.662   3.146  21.823
18570W        W22531   4.401   3.602  20.301
18571W        W22532   7.260   2.224  19.175
18572W        W22533   5.790   1.491  19.688
18573W        W22534   5.557   0.103  19.578
18574W        W22535   4.616   3.087  19.415
18575W        W22536   5.115   0.828  20.640
18576W        W22537   4.815   0.197  20.109
18577W        W22538   3.878   3.019  18.657
18578W        W22539   5.694   2.383  19.375
18579W        W22540   4.569   3.178  21.254
18580W        W22541   4.046   2.001  18.950
18581W        W22542   3.931   0.544  19.949
18582W        W22543   5.479   2.509  20.006
18583W        W22544   3.731   0.363  19.026
18584W        W22545   6.395   1.569  20.953
18585W        W22546   6.272   0.955  18.525
18586W        W22547   6.789   2.627  20.173
18587W        W22548   5.450   3.111  20.004
18588W        W22549   4.862   3.215  18.915
18589W        W22550   6.144   0.118  18.345
18590W        W22551   3.944   3.378  20.086
18591W        W22552   6.141   1.136  21.721
18592W        W22553   4.124   0.666  21.720
18593W        W22554   3.855   1.266  19.053
18594W        W22555   4.546   1.255  18.778
18595W        W22556   6.309   1.582  21.595
18596W        W22557   4.652   1.863  20.304
18597W        W22558   6.126   0.149  19.424
18598W        W22559   5.257   3.580  19.927
18599W        W22560   6.471   3.042  20.864
18600W        W22561   6.055   3.191  19.975
18601W        W22562   6.074   2.171  19.569
18602W        W22563   5.536   0.396  18.640
18603W        W22564   7.217   0.024  19.362
18604W        W22565   4.905   1.659  18.525
18605W        W22566   7.071   0.996  19.515
18606W        W22567   5.763   2.166  18.392
18607W        W22568   6.699   2.366  21.140
18608W        W22569   6.353   3.067  18.607
18609W        W22570   4.968   0.742  21.513
18610W        W22571   4.788   1.326  20.754
18611W        W22572   6.880   2.821  21.031
18612W        W22573   5.980   0.771  21.408
18613W        W22574   3.824   1.242  21.185
18614W        W22575   5.584   1.719  20.911
18615W        W22576   3.941   2.477  19.568
18616W        W22577   4.088   1.774  20.458
18617W        W22578   6.405   2.060  20.808
18618W        W22579   6.177   3.440  21.619
18619W        W22580   6.073   1.179  21.172
18620W        W22581   6.350   3.233  19.577
18621W        W22582   5.352   2.953  20.900
18622W        W22583   4.837   3.308  20.169
18623W        W22584   6.642   2.479  20.588
18624W        W22585   5.692   2.551  21.725
18625W        W22586   4.297   2.504  20.064
18626W        W22587   6.643   2.263  19.709
18627W        W22588   6.284   3.329  20.460
18628W        W22589   4.262   3.058  20.330
18629W        W22590   5.283   1.110  21.540
18630W        W22591   5.042   2.531  21.689
18631W        W22592   5.168   2.769  19.066
18632W        W22593   4.389   1.509  18.325
18633W        W22594   6.809   2.218  22.518
18634W        W22595   4.857   3.294  22.071
18635W        W22596   4.940   1.446  23.054
18636W        W22597   4.455   1.294  23.218
18637W        W22598   5.446   2.109  22.652
18638W        W22599   5.875   1.301  22.229
18639W        W22600   5.432   2.536  22.198
18640W        W22601   4.128   0.375  23.033
18641W        W22602   6.816   0.769  21.984
18642W        W22603   7.022   2.743  22.481
18643W        W22604   4.151   3.529  22.235
18644W        W22605   4.544   3.575  22.911
18645W        W22606   6.369   1.769  23.071
18646W        W22607   6.335   1.457  22.098
18647W        W22608   6.820   1.809  22.853
18648W        W22609   5.722   0.467  22.869
18649W        W22610   4.379   3.161  22.552
18650W        W22611   5.335   3.234  22.410
18651W        W22612   6.727   1.260  21.874
18652W        W22613   4.914   1.950  23.137
18653W        W22614   4.384   1.989  21.995
18654W        W22615   4.039   1.022  22.174
18655W        W22616   4.101   2.978  22.968
18656W        W22617   5.232   2.461  23.216
18657W        W22618   5.490   0.962  22.614
18658W        W22619   3.656   1.712  22.808
18659W        W22620   5.971   1.391  22.759
18660W        W22621   5.848   1.881  22.863
18661W        W22622   5.837   0.775  22.320
18662W        W22623   6.236   0.655  23.101
18663W        W22624   5.027   1.082  22.477
18664W        W22625   6.648   0.850  22.822
18665W        W22626   7.015   1.332  22.767
18666W        W22627   4.684   0.085  22.473
18667W        W22628   7.155   2.868  21.953
18668W        W22629   5.979   0.658  21.885
18669W        W22630   5.690   2.735  22.612
18670W        W22631   5.789   3.302  23.204
18671W        W22632   6.963   2.305  22.048
18672W        W22633   5.398   1.788  23.109
18673W        W22634   6.468   1.318  22.727
18674W        W22635   6.755   1.051  22.369
18675W        W22636   6.564   3.091  22.758
18676W        W22637   6.294   1.773  22.532
18677W        W22638   6.947   0.425  22.999
18678W        W22639   5.133   3.301  22.964
18679W        W22640   4.248   0.481  22.222
18680W        W22641   4.380   3.255  21.880
18681W        W22642   4.754   1.721  22.631
18682W        W22643   5.238   0.708  22.934
18683W        W22644   4.586   0.498  22.886
18684W        W22645   4.591   0.726  21.911
18685W        W22646   5.364   1.862  22.218
18686W        W22647   4.632   0.177  21.988
18687W        W22648   5.370   1.258  23.039
18688W        W22649   4.281   0.770  23.253
18689W        W22650   4.067   3.482  22.929
18690W        W22651   4.434   2.297  22.413
18691W        W22652   6.069   2.529  22.099
18692W        W22653   7.220   0.828  22.695
18693W        W22654   3.698   3.489  22.490
18694W        W22655   4.960   2.782  22.145
18695W        W22656   6.865   3.164  22.331
18696W        W22657   5.840   1.817  22.345
18697W        W22658   4.683   1.008  22.862
18698W        W22659   5.515   0.918  21.914
18699W        W22660   6.452   0.389  22.709
18700W        W22661   3.782   0.237  22.157
18701W        W22662   4.609   2.424  21.937
18702W        W22663   3.850   2.665  22.705
18703W        W22664   4.962   0.205  22.970
18704W        W22665   6.021   0.282  22.475
18705W        W22666   4.125   0.783  22.642
18706W        W22667   7.092   1.674  21.943
18707W        W22668   3.646   0.694  22.180
18708W        W22669   5.657   3.560  22.216
18709W        W22670   3.803   2.067  21.913
18710W        W22671   7.204   1.919  22.403
18711W        W22672   6.067   2.251  22.502
18712W        W22673   6.541   3.551  22.197
18713W        W22674   5.135   0.117  22.156
18714W        W22675   6.674   2.716  22.099
18715W        W22676   6.214   3.453  22.613
18716W        W22677   4.675   2.736  22.598
18717W        W22678   6.430   2.234  22.862
18718W        W22679   5.527   2.922  23.050
18719W        W22680   7.277   1.482  23.231
18720W        W22681   5.801   2.966  22.165
18721W        W22682   4.943   2.211  22.247
18722W        W22683   6.655   3.593  22.966
18723W        W22684   3.911   1.599  22.131
18724W        W22685   7.045   3.257  22.828
18725W        W22686   6.882   0.581  22.447
18726W        W22687   6.756   1.458  23.213
18727W        W22688   4.287   2.786  22.108
18728W        W22689   6.804   2.544  22.918
18729W        W22690   7.181   1.266  22.285
18730W        W22691   4.926   2.323  22.756
18731W        W22692   4.849   1.214  21.995
18732W        W22693   5.060   0.707  22.088
18733W        W22694   4.195   1.523  22.869
18734W        W22695   6.761   1.601  22.414
18735W        W22696   6.292   2.726  23.063
18736W        W22697   6.856   0.114  22.536
18737W        W22698   6.376   2.589  22.547
18738W        W22699   5.278   1.647  22.632
18739W        W22700   6.465   0.451  22.155
18740W        W22701   4.533   2.590  23.197
18741W        W22702   6.296   1.210  23.162
18742W        W22703   3.738   3.317  23.306
18743W        W22704   4.247   2.504  22.842
18744W        W22705   7.036   1.942  23.287
18745W        W22706   6.390   2.119  22.167
18746W        W22707   5.357   0.072  22.696
18747W        W22708   5.009   0.490  22.528
18748W        W22709   5.807   0.955  23.091
18749W        W22710   4.608   0.750  22.385
18750W        W22711   6.125   0.892  22.710
18751W        W22712   7.168   3.407  22.012
18752W        W22713   3.822   2.400  22.304
18753W        W22714   5.341   1.351  22.174
18754W        W22715   3.987   1.900  23.193
18755W        W22716   6.949   0.251  22.084
18756W        W22717   7.260   2.224  22.820
18757W        W22718   5.557   0.103  23.223
18758W        W22719   4.616   3.087  23.060
18759W        W22720   3.878   3.019  22.302
18760W        W22721   5.694   2.383  23.020
18761W        W22722   4.046   2.001  22.595
18762W        W22723   3.731   0.363  22.671
18763W        W22724   6.272   0.955  22.170
18764W        W22725   4.862   3.215  22.560
18765W        W22726   6.144   0.118  21.990
18766W        W22727   3.855   1.266  22.698
18767W        W22728   4.546   1.255  22.423
18768W        W22729   6.074   2.171  23.214
18769W        W22730   5.536   0.396  22.285
18770W        W22731   7.217   0.024  23.007
18771W        W22732   4.905   1.659  22.170
18772W        W22733   7.071   0.996  23.160
18773W        W22734   5.763   2.166  22.037
18774W        W22735   6.353   3.067  22.252
18775W        W22736   3.941   2.477  23.213
18776W        W22737   6.350   3.233  23.222
18777W        W22738   5.734   3.276  22.696
18778W        W22739   5.168   2.769  22.711
18779W        W22740   4.389   1.509  21.970
18780W        W22741   3.728   7.239   3.359
18781W        W22742   4.104   6.132   2.882
18782W        W22743   6.809   5.862   0.652
18783W        W22744   6.939   6.947   2.679
18784W        W22745   4.857   6.938   0.205
18785W        W22746   4.940   5.090   1.188
18786W        W22747   4.455   4.938   1.352
18787W        W22748   5.446   5.753   0.786
18788W        W22749   5.121   6.845   3.141
18789W        W22750   3.770   4.406   3.104
18790W        W22751   4.532   3.686   2.906
18791W        W22752   6.226   4.074   1.793
18792W        W22753   5.875   4.945   0.363
18793W        W22754   6.445   4.379   3.454
18794W        W22755   3.811   4.171   2.579
18795W        W22756   3.910   6.790   3.600
18796W        W22757   5.432   6.180   0.332
18797W        W22758   3.864   4.963   2.025
18798W        W22759   4.757   4.854   3.262
18799W        W22760   7.216   4.713   1.761
18800W        W22761   6.980   5.756   2.620
18801W        W22762   5.288   5.089   1.647
18802W        W22763   5.834   6.428   2.016
18803W        W22764   4.334   5.862   2.248
18804W        W22765   3.693   5.390   1.819
18805W        W22766   4.729   5.362   3.011
18806W        W22767   7.000   5.145   3.265
18807W        W22768   4.616   6.589   1.710
18808W        W22769   5.737   6.278   2.844
18809W        W22770   4.957   4.918   2.069
18810W        W22771   5.249   5.702   1.712
18811W        W22772   6.246   6.475   3.560
18812W        W22773   5.325   5.795   3.570
18813W        W22774   5.306   5.511   3.048
18814W        W22775   3.715   4.902   3.570
18815W        W22776   6.547   6.437   3.169
18816W        W22777   4.128   4.019   1.167
18817W        W22778   4.655   6.277   2.166
18818W        W22779   7.118   6.060   1.456
18819W        W22780   6.531   4.460   2.023
18820W        W22781   6.816   4.413   0.118
18821W        W22782   7.281   5.214   2.424
18822W        W22783   5.248   6.921   2.177
18823W        W22784   7.022   6.387   0.615
18824W        W22785   4.151   7.173   0.369
18825W        W22786   4.544   7.219   1.045
18826W        W22787   4.341   3.973   2.471
18827W        W22788   6.964   4.991   2.746
18828W        W22789   6.369   5.413   1.205
18829W        W22790   6.335   5.101   0.232
18830W        W22791   5.543   6.245   2.372
18831W        W22792   5.349   4.575   1.571
18832W        W22793   5.949   6.662   2.565
18833W        W22794   6.820   5.453   0.987
18834W        W22795   5.722   4.111   1.003
18835W        W22796   4.379   6.805   0.686
18836W        W22797   3.750   4.304   1.285
18837W        W22798   6.536   4.911   1.759
18838W        W22799   3.994   6.528   1.674
18839W        W22800   5.335   6.878   0.544
18840W        W22801   6.727   4.904   0.008
18841W        W22802   3.750   6.662   2.172
18842W        W22803   4.541   6.234   2.652
18843W        W22804   4.914   5.594   1.271
18844W        W22805   4.936   3.999   2.364
18845W        W22806   7.165   3.761   1.661
18846W        W22807   4.384   5.633   0.129
18847W        W22808   4.039   4.666   0.308
18848W        W22809   4.101   6.622   1.102
18849W        W22810   5.232   6.105   1.350
18850W        W22811   6.564   6.964   3.064
18851W        W22812   5.490   4.606   0.748
18852W        W22813   6.873   7.004   1.520
18853W        W22814   6.550   4.857   3.118
18854W        W22815   7.263   6.513   1.252
18855W        W22816   5.890   5.805   2.736
18856W        W22817   3.656   5.356   0.942
18857W        W22818   4.767   5.771   2.515
18858W        W22819   5.971   5.035   0.893
18859W        W22820   5.848   5.525   0.997
18860W        W22821   4.191   4.945   2.471
18861W        W22822   4.176   4.821   3.393
18862W        W22823   4.066   3.738   1.552
18863W        W22824   5.834   4.085   2.113
18864W        W22825   5.482   4.270   3.276
18865W        W22826   5.837   4.419   0.454
18866W        W22827   7.020   6.812   3.208
18867W        W22828   5.987   3.893   3.247
18868W        W22829   7.006   6.194   3.369
18869W        W22830   6.436   4.361   2.965
18870W        W22831   6.236   4.299   1.235
18871W        W22832   6.629   5.433   3.639
18872W        W22833   4.369   7.009   1.625
18873W        W22834   5.027   4.726   0.611
18874W        W22835   4.596   4.010   3.275
18875W        W22836   6.648   4.494   0.956
18876W        W22837   7.015   4.976   0.901
18877W        W22838   4.758   7.193   3.372
18878W        W22839   4.684   3.729   0.607
18879W        W22840   7.005   4.263   1.642
18880W        W22841   7.155   6.512   0.087
18881W        W22842   4.062   5.715   1.789
18882W        W22843   5.979   4.302   0.019
18883W        W22844   7.113   6.634   1.739
18884W        W22845   7.152   3.828   2.489
18885W        W22846   5.597   5.040   3.043
18886W        W22847   5.690   6.379   0.746
18887W        W22848   6.090   5.673   3.486
18888W        W22849   5.764   3.650   1.795
18889W        W22850   4.376   4.553   1.858
18890W        W22851   3.930   5.753   2.632
18891W        W22852   5.789   6.946   1.338
18892W        W22853   6.983   4.543   2.210
18893W        W22854   5.620   6.890   2.977
18894W        W22855   6.963   5.949   0.182
18895W        W22856   5.398   5.432   1.243
18896W        W22857   7.250   3.943   2.984
18897W        W22858   5.399   5.778   2.578
18898W        W22859   5.616   4.664   2.023
18899W        W22860   6.468   4.962   0.861
18900W        W22861   6.755   4.695   0.503
18901W        W22862   6.564   6.735   0.892
18902W        W22863   6.398   6.338   1.688
18903W        W22864   6.294   5.417   0.666
18904W        W22865   5.727   5.627   1.652
18905W        W22866   6.608   5.415   1.719
18906W        W22867   3.983   4.430   2.143
18907W        W22868   6.761   5.482   2.970
18908W        W22869   7.112   7.100   2.116
18909W        W22870   5.042   6.544   1.518
18910W        W22871   6.049   7.077   2.842
18911W        W22872   6.043   4.407   2.606
18912W        W22873   5.250   7.115   2.667
18913W        W22874   6.947   4.069   1.133
18914W        W22875   6.738   5.388   2.434
18915W        W22876   3.721   4.709   2.472
18916W        W22877   6.581   4.504   1.490
18917W        W22878   6.992   4.655   3.267
18918W        W22879   5.877   6.354   1.485
18919W        W22880   5.133   6.945   1.098
18920W        W22881   4.248   4.125   0.356
18921W        W22882   5.352   3.779   2.166
18922W        W22883   4.380   6.899   0.014
18923W        W22884   4.754   5.365   0.765
18924W        W22885   5.408   5.994   3.078
18925W        W22886   5.238   4.352   1.068
18926W        W22887   6.594   3.949   1.496
18927W        W22888   6.314   7.231   1.824
18928W        W22889   5.726   6.879   2.164
18929W        W22890   5.122   5.916   2.125
18930W        W22891   6.892   6.639   2.251
18931W        W22892   4.586   4.142   1.020
18932W        W22893   5.108   6.439   1.980
18933W        W22894   4.591   4.370   0.045
18934W        W22895   5.392   4.979   2.439
18935W        W22896   6.240   3.845   2.309
18936W        W22897   3.660   5.688   2.194
18937W        W22898   5.364   5.506   0.352
18938W        W22899   4.632   3.821   0.122
18939W        W22900   5.370   4.902   1.173
18940W        W22901   6.340   3.878   2.872
18941W        W22902   4.928   5.890   2.981
18942W        W22903   5.732   5.672   3.198
18943W        W22904   6.349   5.702   3.091
18944W        W22905   5.633   3.842   3.596
18945W        W22906   4.855   4.458   1.989
18946W        W22907   4.281   4.414   1.387
18947W        W22908   4.067   7.126   1.063
18948W        W22909   5.399   6.456   3.188
18949W        W22910   4.434   5.941   0.547
18950W        W22911   6.114   5.326   1.768
18951W        W22912   6.394   5.125   2.167
18952W        W22913   5.599   5.799   2.101
18953W        W22914   6.069   6.173   0.233
18954W        W22915   5.741   4.194   1.561
18955W        W22916   7.220   4.472   0.829
18956W        W22917   3.714   7.061   2.860
18957W        W22918   4.131   6.287   2.392
18958W        W22919   3.698   7.133   0.624
18959W        W22920   5.597   4.403   2.430
18960W        W22921   4.960   6.426   0.279
18961W        W22922   6.865   6.808   0.465
18962W        W22923   5.840   5.461   0.479
18963W        W22924   4.683   4.652   0.996
18964W        W22925   5.515   4.562   0.048
18965W        W22926   6.099   6.127   3.226
18966W        W22927   6.452   4.033   0.843
18967W        W22928   3.782   3.881   0.291
18968W        W22929   5.068   6.200   2.581
18969W        W22930   4.867   6.116   1.673
18970W        W22931   4.609   6.068   0.071
18971W        W22932   3.850   6.309   0.839
18972W        W22933   4.354   5.379   3.281
18973W        W22934   5.058   3.939   3.467
18974W        W22935   5.767   4.081   2.823
18975W        W22936   4.962   3.849   1.104
18976W        W22937   6.021   3.926   0.609
18977W        W22938   3.966   3.858   2.186
18978W        W22939   4.014   4.821   1.556
18979W        W22940   6.703   3.929   1.962
18980W        W22941   4.125   4.427   0.776
18981W        W22942   6.696   4.115   2.392
18982W        W22943   7.092   5.318   0.077
18983W        W22944   4.384   4.076   1.896
18984W        W22945   5.498   4.648   2.836
18985W        W22946   3.646   4.338   0.314
18986W        W22947   4.432   5.727   2.875
18987W        W22948   5.790   5.125   2.054
18988W        W22949   5.657   7.204   0.350
18989W        W22950   3.803   5.711   0.047
18990W        W22951   4.538   6.122   3.173
18991W        W22952   4.059   5.289   2.804
18992W        W22953   5.050   5.394   2.598
18993W        W22954   6.818   3.753   2.860
18994W        W22955   7.216   5.363   2.851
18995W        W22956   7.204   5.563   0.537
18996W        W22957   6.067   5.895   0.636
18997W        W22958   6.541   7.195   0.331
18998W        W22959   5.718   5.185   3.473
18999W        W22960   4.048   6.152   3.513
19000W        W22961   7.254   4.074   3.465
19001W        W22962   6.972   5.002   2.086
19002W        W22963   5.280   7.132   3.563
19003W        W22964   5.135   3.761   0.290
19004W        W22965   6.674   6.360   0.233
19005W        W22966   4.443   4.453   3.119
19006W        W22967   4.877   6.447   2.981
19007W        W22968   7.003   4.438   2.779
19008W        W22969   6.214   7.097   0.747
19009W        W22970   6.453   5.716   2.114
19010W        W22971   4.703   4.132   2.781
19011W        W22972   5.172   5.201   3.538
19012W        W22973   4.675   6.380   0.732
19013W        W22974   6.430   5.878   0.996
19014W        W22975   4.198   4.504   2.720
19015W        W22976   5.527   6.566   1.184
19016W        W22977   7.277   5.126   1.365
19017W        W22978   5.499   3.759   3.084
19018W        W22979   6.279   6.464   2.163
19019W        W22980   6.582   6.808   1.871
19020W        W22981   5.801   6.610   0.299
19021W        W22982   3.811   6.502   3.141
19022W        W22983   4.554   4.494   2.379
19023W        W22984   4.524   3.842   1.489
19024W        W22985   6.145   4.684   2.181
19025W        W22986   4.943   5.855   0.381
19026W        W22987   6.941   5.797   1.880
19027W        W22988   4.268   6.555   3.303
19028W        W22989   6.655   7.237   1.100
19029W        W22990   4.754   4.257   1.545
19030W        W22991   4.523   5.750   1.635
19031W        W22992   4.836   7.161   2.385
19032W        W22993   6.903   7.257   3.417
19033W        W22994   6.062   5.445   2.350
19034W        W22995   3.911   5.243   0.265
19035W        W22996   7.045   6.901   0.962
19036W        W22997   6.882   4.225   0.581
19037W        W22998   5.021   3.744   2.984
19038W        W22999   6.727   6.546   1.442
19039W        W23000   6.756   5.102   1.347
19040W        W23001   4.873   4.775   1.563
19041W        W23002   5.118   5.037   2.887
19042W        W23003   6.229   6.190   2.750
19043W        W23004   4.879   4.644   2.862
19044W        W23005   4.858   7.110   1.478
19045W        W23006   4.175   7.069   3.112
19046W        W23007   4.287   6.430   0.242
19047W        W23008   6.804   6.188   1.052
19048W        W23009   4.408   4.980   2.938
19049W        W23010   7.181   4.910   0.419
19050W        W23011   4.926   5.967   0.890
19051W        W23012   6.025   5.349   2.971
19052W        W23013   5.916   4.977   2.515
19053W        W23014   4.476   5.349   2.544
19054W        W23015   6.686   7.237   2.373
19055W        W23016   6.477   3.871   3.367
19056W        W23017   4.141   4.021   2.954
19057W        W23018   4.480   5.044   2.007
19058W        W23019   4.849   4.858   0.129
19059W        W23020   3.652   6.617   2.674
19060W        W23021   5.237   5.326   2.117
19061W        W23022   5.060   4.351   0.222
19062W        W23023   4.195   5.167   1.003
19063W        W23024   3.966   7.019   2.440
19064W        W23025   6.761   5.245   0.548
19065W        W23026   6.856   4.161   3.234
19066W        W23027   6.292   6.370   1.197
19067W        W23028   3.890   5.294   3.374
19068W        W23029   6.856   3.758   0.670
19069W        W23030   6.376   6.233   0.681
19070W        W23031   5.278   5.291   0.766
19071W        W23032   6.465   4.095   0.289
19072W        W23033   6.530   4.702   2.475
19073W        W23034   4.239   5.295   1.682
19074W        W23035   4.533   6.234   1.331
19075W        W23036   6.296   4.854   1.296
19076W        W23037   5.319   4.233   1.992
19077W        W23038   7.281   6.144   2.503
19078W        W23039   7.199   4.131   2.064
19079W        W23040   3.738   6.961   1.440
19080W        W23041   4.247   6.148   0.976
19081W        W23042   4.162   3.765   3.529
19082W        W23043   5.281   6.618   3.631
19083W        W23044   7.036   5.586   1.421
19084W        W23045   6.390   5.763   0.301
19085W        W23046   5.685   7.284   2.513
19086W        W23047   6.542   6.006   3.550
19087W        W23048   5.357   3.716   0.830
19088W        W23049   6.070   4.585   1.689
19089W        W23050   3.756   6.172   2.021
19090W        W23051   5.009   4.134   0.662
19091W        W23052   4.813   5.618   3.511
19092W        W23053   5.807   4.599   1.225
19093W        W23054   6.012   6.009   2.347
19094W        W23055   4.166   6.614   2.782
19095W        W23056   4.757   6.597   3.505
19096W        W23057   4.608   4.394   0.519
19097W        W23058   6.125   4.536   0.844
19098W        W23059   6.083   6.644   3.081
19099W        W23060   4.768   5.236   1.680
19100W        W23061   4.423   6.934   2.545
19101W        W23062   7.168   7.051   0.146
19102W        W23063   4.031   5.723   3.142
19103W        W23064   6.026   5.985   1.830
19104W        W23065   4.462   5.634   1.072
19105W        W23066   4.833   6.641   2.467
19106W        W23067   5.211   4.060   1.508
19107W        W23068   3.822   6.044   0.438
19108W        W23069   5.341   4.995   0.308
19109W        W23070   3.987   5.544   1.327
19110W        W23071   5.277   4.186   2.791
19111W        W23072   6.949   3.895   0.218
19112W        W23073   7.042   5.641   3.317
19113W        W23074   5.696   6.898   3.469
19114W        W23075   7.254   5.992   2.991
19115W        W23076   6.662   6.790   3.602
19116W        W23077   4.401   7.246   2.080
19117W        W23078   7.260   5.868   0.954
19118W        W23079   5.790   5.135   1.467
19119W        W23080   5.557   3.747   1.357
19120W        W23081   4.616   6.731   1.194
19121W        W23082   5.115   4.472   2.419
19122W        W23083   4.815   3.841   1.888
19123W        W23084   3.878   6.663   0.436
19124W        W23085   5.694   6.027   1.154
19125W        W23086   4.569   6.822   3.033
19126W        W23087   4.046   5.645   0.729
19127W        W23088   3.931   4.188   1.728
19128W        W23089   5.479   6.153   1.785
19129W        W23090   3.731   4.007   0.805
19130W        W23091   6.395   5.213   2.732
19131W        W23092   6.272   4.599   0.304
19132W        W23093   6.789   6.271   1.952
19133W        W23094   5.450   6.755   1.783
19134W        W23095   4.862   6.859   0.694
19135W        W23096   6.144   3.762   0.124
19136W        W23097   3.944   7.022   1.865
19137W        W23098   6.141   4.780   3.500
19138W        W23099   4.124   4.310   3.499
19139W        W23100   3.855   4.910   0.832
19140W        W23101   4.546   4.899   0.557
19141W        W23102   6.309   5.226   3.374
19142W        W23103   4.652   5.507   2.083
19143W        W23104   6.126   3.793   1.203
19144W        W23105   5.257   7.224   1.706
19145W        W23106   6.471   6.686   2.643
19146W        W23107   6.055   6.835   1.754
19147W        W23108   6.074   5.815   1.348
19148W        W23109   5.536   4.040   0.419
19149W        W23110   7.217   3.668   1.141
19150W        W23111   4.905   5.303   0.304
19151W        W23112   7.071   4.640   1.294
19152W        W23113   5.763   5.810   0.171
19153W        W23114   6.699   6.010   2.919
19154W        W23115   6.353   6.711   0.386
19155W        W23116   4.968   4.386   3.292
19156W        W23117   4.788   4.970   2.533
19157W        W23118   6.880   6.465   2.810
19158W        W23119   5.980   4.415   3.187
19159W        W23120   3.824   4.886   2.964
19160W        W23121   5.584   5.363   2.690
19161W        W23122   3.941   6.121   1.347
19162W        W23123   4.088   5.418   2.237
19163W        W23124   6.405   5.704   2.587
19164W        W23125   6.177   7.084   3.398
19165W        W23126   6.073   4.823   2.951
19166W        W23127   6.350   6.877   1.356
19167W        W23128   5.352   6.597   2.679
19168W        W23129   4.837   6.952   1.948
19169W        W23130   6.642   6.123   2.367
19170W        W23131   5.692   6.195   3.504
19171W        W23132   4.297   6.148   1.843
19172W        W23133   6.643   5.907   1.488
19173W        W23134   6.284   6.973   2.239
19174W        W23135   4.262   6.702   2.109
19175W        W23136   5.283   4.754   3.319
19176W        W23137   5.734   6.920   0.830
19177W        W23138   5.042   6.175   3.468
19178W        W23139   5.168   6.413   0.845
19179W        W23140   4.389   5.153   0.104
19180W        W23141   3.728   7.239   7.003
19181W        W23142   4.104   6.132   6.526
19182W        W23143   6.809   5.862   4.296
19183W        W23144   6.939   6.947   6.323
19184W        W23145   4.857   6.938   3.849
19185W        W23146   4.940   5.090   4.832
19186W        W23147   4.455   4.938   4.996
19187W        W23148   5.446   5.753   4.430
19188W        W23149   5.121   6.845   6.785
19189W        W23150   3.770   4.406   6.748
19190W        W23151   4.532   3.686   6.550
19191W        W23152   6.226   4.074   5.437
19192W        W23153   5.875   4.945   4.007
19193W        W23154   6.445   4.379   7.098
19194W        W23155   3.811   4.171   6.223
19195W        W23156   3.910   6.790   7.244
19196W        W23157   5.432   6.180   3.976
19197W        W23158   3.864   4.963   5.669
19198W        W23159   4.757   4.854   6.906
19199W        W23160   7.216   4.713   5.405
19200W        W23161   6.980   5.756   6.264
19201W        W23162   5.288   5.089   5.291
19202W        W23163   5.834   6.428   5.660
19203W        W23164   4.334   5.862   5.892
19204W        W23165   3.693   5.390   5.463
19205W        W23166   4.729   5.362   6.655
19206W        W23167   7.000   5.145   6.909
19207W        W23168   4.616   6.589   5.354
19208W        W23169   5.737   6.278   6.488
19209W        W23170   4.957   4.918   5.713
19210W        W23171   5.249   5.702   5.356
19211W        W23172   6.246   6.475   7.204
19212W        W23173   5.325   5.795   7.214
19213W        W23174   5.306   5.511   6.692
19214W        W23175   3.715   4.902   7.214
19215W        W23176   6.547   6.437   6.813
19216W        W23177   4.128   4.019   4.811
19217W        W23178   4.655   6.277   5.810
19218W        W23179   7.118   6.060   5.100
19219W        W23180   6.531   4.460   5.667
19220W        W23181   6.816   4.413   3.762
19221W        W23182   7.281   5.214   6.068
19222W        W23183   5.248   6.921   5.821
19223W        W23184   7.022   6.387   4.259
19224W        W23185   4.151   7.173   4.013
19225W        W23186   4.544   7.219   4.689
19226W        W23187   4.341   3.973   6.115
19227W        W23188   6.964   4.991   6.390
19228W        W23189   6.369   5.413   4.849
19229W        W23190   6.335   5.101   3.876
19230W        W23191   5.543   6.245   6.016
19231W        W23192   5.349   4.575   5.215
19232W        W23193   5.949   6.662   6.209
19233W        W23194   6.820   5.453   4.631
19234W        W23195   5.722   4.111   4.647
19235W        W23196   4.379   6.805   4.330
19236W        W23197   3.750   4.304   4.929
19237W        W23198   6.536   4.911   5.403
19238W        W23199   3.994   6.528   5.318
19239W        W23200   5.335   6.878   4.188
19240W        W23201   6.727   4.904   3.652
19241W        W23202   3.750   6.662   5.816
19242W        W23203   4.541   6.234   6.296
19243W        W23204   4.914   5.594   4.915
19244W        W23205   4.936   3.999   6.008
19245W        W23206   7.165   3.761   5.305
19246W        W23207   4.384   5.633   3.773
19247W        W23208   4.039   4.666   3.952
19248W        W23209   4.101   6.622   4.746
19249W        W23210   5.232   6.105   4.994
19250W        W23211   6.564   6.964   6.708
19251W        W23212   5.490   4.606   4.392
19252W        W23213   6.873   7.004   5.164
19253W        W23214   7.263   6.513   4.896
19254W        W23215   5.890   5.805   6.380
19255W        W23216   3.656   5.356   4.586
19256W        W23217   4.767   5.771   6.159
19257W        W23218   5.971   5.035   4.537
19258W        W23219   5.848   5.525   4.641
19259W        W23220   4.191   4.945   6.115
19260W        W23221   4.176   4.821   7.037
19261W        W23222   4.066   3.738   5.196
19262W        W23223   5.834   4.085   5.757
19263W        W23224   5.482   4.270   6.920
19264W        W23225   5.837   4.419   4.098
19265W        W23226   7.020   6.812   6.852
19266W        W23227   7.006   6.194   7.013
19267W        W23228   6.436   4.361   6.609
19268W        W23229   6.236   4.299   4.879
19269W        W23230   6.629   5.433   7.283
19270W        W23231   4.369   7.009   5.269
19271W        W23232   5.027   4.726   4.255
19272W        W23233   4.596   4.010   6.919
19273W        W23234   6.648   4.494   4.600
19274W        W23235   7.015   4.976   4.545
19275W        W23236   4.758   7.193   7.016
19276W        W23237   4.684   3.729   4.251
19277W        W23238   7.005   4.263   5.286
19278W        W23239   7.155   6.512   3.731
19279W        W23240   4.062   5.715   5.433
19280W        W23241   5.979   4.302   3.663
19281W        W23242   7.113   6.634   5.383
19282W        W23243   7.152   3.828   6.133
19283W        W23244   5.597   5.040   6.687
19284W        W23245   5.690   6.379   4.390
19285W        W23246   6.090   5.673   7.130
19286W        W23247   5.764   3.650   5.439
19287W        W23248   4.376   4.553   5.502
19288W        W23249   3.930   5.753   6.276
19289W        W23250   5.789   6.946   4.982
19290W        W23251   6.983   4.543   5.854
19291W        W23252   5.620   6.890   6.621
19292W        W23253   6.963   5.949   3.826
19293W        W23254   5.398   5.432   4.887
19294W        W23255   7.250   3.943   6.628
19295W        W23256   5.399   5.778   6.222
19296W        W23257   5.616   4.664   5.667
19297W        W23258   6.468   4.962   4.505
19298W        W23259   6.755   4.695   4.147
19299W        W23260   6.564   6.735   4.536
19300W        W23261   6.398   6.338   5.332
19301W        W23262   6.294   5.417   4.310
19302W        W23263   5.727   5.627   5.296
19303W        W23264   6.608   5.415   5.363
19304W        W23265   3.983   4.430   5.787
19305W        W23266   6.761   5.482   6.614
19306W        W23267   7.112   7.100   5.760
19307W        W23268   5.042   6.544   5.162
19308W        W23269   6.049   7.077   6.486
19309W        W23270   6.043   4.407   6.250
19310W        W23271   5.250   7.115   6.311
19311W        W23272   6.947   4.069   4.777
19312W        W23273   6.738   5.388   6.078
19313W        W23274   3.721   4.709   6.116
19314W        W23275   6.581   4.504   5.134
19315W        W23276   6.992   4.655   6.911
19316W        W23277   5.877   6.354   5.129
19317W        W23278   5.133   6.945   4.742
19318W        W23279   4.248   4.125   4.000
19319W        W23280   5.352   3.779   5.810
19320W        W23281   4.380   6.899   3.658
19321W        W23282   4.754   5.365   4.409
19322W        W23283   5.408   5.994   6.722
19323W        W23284   5.238   4.352   4.712
19324W        W23285   6.594   3.949   5.140
19325W        W23286   6.314   7.231   5.468
19326W        W23287   5.726   6.879   5.808
19327W        W23288   5.122   5.916   5.769
19328W        W23289   6.892   6.639   5.895
19329W        W23290   4.586   4.142   4.664
19330W        W23291   5.108   6.439   5.624
19331W        W23292   4.591   4.370   3.689
19332W        W23293   5.392   4.979   6.083
19333W        W23294   6.240   3.845   5.953
19334W        W23295   3.660   5.688   5.838
19335W        W23296   5.364   5.506   3.996
19336W        W23297   4.632   3.821   3.766
19337W        W23298   5.370   4.902   4.817
19338W        W23299   6.340   3.878   6.516
19339W        W23300   4.928   5.890   6.625
19340W        W23301   5.732   5.672   6.842
19341W        W23302   6.349   5.702   6.735
19342W        W23303   5.633   3.842   7.240
19343W        W23304   4.855   4.458   5.633
19344W        W23305   4.281   4.414   5.031
19345W        W23306   4.067   7.126   4.707
19346W        W23307   5.399   6.456   6.832
19347W        W23308   4.434   5.941   4.191
19348W        W23309   6.114   5.326   5.412
19349W        W23310   6.394   5.125   5.811
19350W        W23311   5.599   5.799   5.745
19351W        W23312   6.069   6.173   3.877
19352W        W23313   5.741   4.194   5.205
19353W        W23314   7.220   4.472   4.473
19354W        W23315   3.714   7.061   6.504
19355W        W23316   4.131   6.287   6.036
19356W        W23317   3.698   7.133   4.268
19357W        W23318   5.597   4.403   6.074
19358W        W23319   4.960   6.426   3.923
19359W        W23320   6.865   6.808   4.109
19360W        W23321   5.840   5.461   4.123
19361W        W23322   4.683   4.652   4.640
19362W        W23323   5.515   4.562   3.692
19363W        W23324   6.099   6.127   6.870
19364W        W23325   6.452   4.033   4.487
19365W        W23326   3.782   3.881   3.935
19366W        W23327   5.068   6.200   6.225
19367W        W23328   4.867   6.116   5.317
19368W        W23329   4.609   6.068   3.715
19369W        W23330   3.850   6.309   4.483
19370W        W23331   4.354   5.379   6.925
19371W        W23332   5.058   3.939   7.111
19372W        W23333   5.767   4.081   6.467
19373W        W23334   4.962   3.849   4.748
19374W        W23335   6.021   3.926   4.253
19375W        W23336   3.966   3.858   5.830
19376W        W23337   4.014   4.821   5.200
19377W        W23338   6.703   3.929   5.606
19378W        W23339   4.125   4.427   4.420
19379W        W23340   6.696   4.115   6.036
19380W        W23341   7.092   5.318   3.721
19381W        W23342   4.384   4.076   5.540
19382W        W23343   5.498   4.648   6.480
19383W        W23344   3.646   4.338   3.958
19384W        W23345   4.432   5.727   6.519
19385W        W23346   5.790   5.125   5.698
19386W        W23347   5.657   7.204   3.994
19387W        W23348   3.803   5.711   3.691
19388W        W23349   4.538   6.122   6.817
19389W        W23350   4.059   5.289   6.448
19390W        W23351   5.050   5.394   6.242
19391W        W23352   6.818   3.753   6.504
19392W        W23353   7.216   5.363   6.495
19393W        W23354   7.204   5.563   4.181
19394W        W23355   6.067   5.895   4.280
19395W        W23356   6.541   7.195   3.975
19396W        W23357   5.718   5.185   7.117
19397W        W23358   4.048   6.152   7.157
19398W        W23359   7.254   4.074   7.109
19399W        W23360   6.972   5.002   5.730
19400W        W23361   5.280   7.132   7.207
19401W        W23362   5.135   3.761   3.934
19402W        W23363   6.674   6.360   3.877
19403W        W23364   4.443   4.453   6.763
19404W        W23365   4.877   6.447   6.625
19405W        W23366   7.003   4.438   6.423
19406W        W23367   6.214   7.097   4.391
19407W        W23368   6.453   5.716   5.758
19408W        W23369   4.703   4.132   6.425
19409W        W23370   5.172   5.201   7.182
19410W        W23371   4.675   6.380   4.376
19411W        W23372   6.430   5.878   4.640
19412W        W23373   4.198   4.504   6.364
19413W        W23374   5.527   6.566   4.828
19414W        W23375   7.277   5.126   5.009
19415W        W23376   5.499   3.759   6.728
19416W        W23377   6.279   6.464   5.807
19417W        W23378   6.582   6.808   5.515
19418W        W23379   5.801   6.610   3.943
19419W        W23380   3.811   6.502   6.785
19420W        W23381   4.554   4.494   6.023
19421W        W23382   4.524   3.842   5.133
19422W        W23383   6.145   4.684   5.825
19423W        W23384   4.943   5.855   4.025
19424W        W23385   6.941   5.797   5.524
19425W        W23386   4.268   6.555   6.947
19426W        W23387   6.655   7.237   4.744
19427W        W23388   4.754   4.257   5.189
19428W        W23389   4.523   5.750   5.279
19429W        W23390   4.836   7.161   6.029
19430W        W23391   6.903   7.257   7.061
19431W        W23392   6.062   5.445   5.994
19432W        W23393   3.911   5.243   3.909
19433W        W23394   7.045   6.901   4.606
19434W        W23395   6.882   4.225   4.225
19435W        W23396   5.021   3.744   6.628
19436W        W23397   6.727   6.546   5.086
19437W        W23398   6.756   5.102   4.991
19438W        W23399   4.873   4.775   5.207
19439W        W23400   5.118   5.037   6.531
19440W        W23401   6.229   6.190   6.394
19441W        W23402   4.879   4.644   6.506
19442W        W23403   4.858   7.110   5.122
19443W        W23404   4.175   7.069   6.756
19444W        W23405   4.287   6.430   3.886
19445W        W23406   6.804   6.188   4.696
19446W        W23407   4.408   4.980   6.582
19447W        W23408   7.181   4.910   4.063
19448W        W23409   4.926   5.967   4.534
19449W        W23410   6.025   5.349   6.615
19450W        W23411   5.916   4.977   6.159
19451W        W23412   4.476   5.349   6.188
19452W        W23413   6.686   7.237   6.017
19453W        W23414   6.477   3.871   7.011
19454W        W23415   4.141   4.021   6.598
19455W        W23416   4.480   5.044   5.651
19456W        W23417   4.849   4.858   3.773
19457W        W23418   3.652   6.617   6.318
19458W        W23419   5.237   5.326   5.761
19459W        W23420   5.060   4.351   3.866
19460W        W23421   4.195   5.167   4.647
19461W        W23422   3.966   7.019   6.084
19462W        W23423   6.761   5.245   4.192
19463W        W23424   6.856   4.161   6.878
19464W        W23425   6.292   6.370   4.841
19465W        W23426   3.890   5.294   7.018
19466W        W23427   6.856   3.758   4.314
19467W        W23428   6.376   6.233   4.325
19468W        W23429   5.278   5.291   4.410
19469W        W23430   6.465   4.095   3.933
19470W        W23431   6.530   4.702   6.119
19471W        W23432   4.239   5.295   5.326
19472W        W23433   4.533   6.234   4.975
19473W        W23434   6.296   4.854   4.940
19474W        W23435   5.319   4.233   5.636
19475W        W23436   7.281   6.144   6.147
19476W        W23437   7.199   4.131   5.708
19477W        W23438   3.738   6.961   5.084
19478W        W23439   4.247   6.148   4.620
19479W        W23440   4.162   3.765   7.173
19480W        W23441   5.281   6.618   7.275
19481W        W23442   7.036   5.586   5.065
19482W        W23443   6.390   5.763   3.945
19483W        W23444   5.685   7.284   6.157
19484W        W23445   6.542   6.006   7.194
19485W        W23446   5.357   3.716   4.474
19486W        W23447   6.070   4.585   5.333
19487W        W23448   3.756   6.172   5.665
19488W        W23449   5.009   4.134   4.306
19489W        W23450   4.813   5.618   7.155
19490W        W23451   5.807   4.599   4.869
19491W        W23452   6.012   6.009   5.991
19492W        W23453   4.166   6.614   6.426
19493W        W23454   4.757   6.597   7.149
19494W        W23455   4.608   4.394   4.163
19495W        W23456   6.125   4.536   4.488
19496W        W23457   6.083   6.644   6.725
19497W        W23458   4.768   5.236   5.324
19498W        W23459   4.423   6.934   6.189
19499W        W23460   7.168   7.051   3.790
19500W        W23461   4.031   5.723   6.786
19501W        W23462   6.026   5.985   5.474
19502W        W23463   4.462   5.634   4.716
19503W        W23464   4.833   6.641   6.111
19504W        W23465   5.211   4.060   5.152
19505W        W23466   3.822   6.044   4.082
19506W        W23467   5.341   4.995   3.952
19507W        W23468   3.987   5.544   4.971
19508W        W23469   5.277   4.186   6.435
19509W        W23470   6.949   3.895   3.862
19510W        W23471   7.042   5.641   6.961
19511W        W23472   5.696   6.898   7.113
19512W        W23473   7.254   5.992   6.635
19513W        W23474   6.662   6.790   7.246
19514W        W23475   4.401   7.246   5.724
19515W        W23476   7.260   5.868   4.598
19516W        W23477   5.790   5.135   5.111
19517W        W23478   5.557   3.747   5.001
19518W        W23479   4.616   6.731   4.838
19519W        W23480   5.115   4.472   6.063
19520W        W23481   4.815   3.841   5.532
19521W        W23482   3.878   6.663   4.080
19522W        W23483   5.694   6.027   4.798
19523W        W23484   4.569   6.822   6.677
19524W        W23485   4.046   5.645   4.373
19525W        W23486   3.931   4.188   5.372
19526W        W23487   5.479   6.153   5.429
19527W        W23488   3.731   4.007   4.449
19528W        W23489   6.395   5.213   6.376
19529W        W23490   6.272   4.599   3.948
19530W        W23491   6.789   6.271   5.596
19531W        W23492   5.450   6.755   5.427
19532W        W23493   4.862   6.859   4.338
19533W        W23494   6.144   3.762   3.768
19534W        W23495   3.944   7.022   5.509
19535W        W23496   4.124   4.310   7.143
19536W        W23497   3.855   4.910   4.476
19537W        W23498   4.546   4.899   4.201
19538W        W23499   6.309   5.226   7.018
19539W        W23500   4.652   5.507   5.727
19540W        W23501   6.126   3.793   4.847
19541W        W23502   5.257   7.224   5.350
19542W        W23503   6.471   6.686   6.287
19543W        W23504   6.055   6.835   5.398
19544W        W23505   6.074   5.815   4.992
19545W        W23506   5.536   4.040   4.063
19546W        W23507   7.217   3.668   4.785
19547W        W23508   4.905   5.303   3.948
19548W        W23509   7.071   4.640   4.938
19549W        W23510   5.763   5.810   3.815
19550W        W23511   6.699   6.010   6.563
19551W        W23512   6.353   6.711   4.030
19552W        W23513   4.968   4.386   6.936
19553W        W23514   4.788   4.970   6.177
19554W        W23515   6.880   6.465   6.454
19555W        W23516   3.824   4.886   6.608
19556W        W23517   5.584   5.363   6.334
19557W        W23518   3.941   6.121   4.991
19558W        W23519   4.088   5.418   5.881
19559W        W23520   6.405   5.704   6.231
19560W        W23521   6.177   7.084   7.042
19561W        W23522   6.350   6.877   5.000
19562W        W23523   5.352   6.597   6.323
19563W        W23524   4.837   6.952   5.592
19564W        W23525   6.642   6.123   6.011
19565W        W23526   5.692   6.195   7.148
19566W        W23527   4.297   6.148   5.487
19567W        W23528   6.643   5.907   5.132
19568W        W23529   6.284   6.973   5.883
19569W        W23530   4.262   6.702   5.753
19570W        W23531   5.283   4.754   6.963
19571W        W23532   5.734   6.920   4.474
19572W        W23533   5.042   6.175   7.112
19573W        W23534   5.168   6.413   4.489
19574W        W23535   4.389   5.153   3.748
19575W        W23536   3.728   7.239  10.648
19576W        W23537   4.104   6.132  10.171
19577W        W23538   6.809   5.862   7.941
19578W        W23539   6.939   6.947   9.968
19579W        W23540   4.857   6.938   7.494
19580W        W23541   4.940   5.090   8.477
19581W        W23542   4.455   4.938   8.641
19582W        W23543   5.446   5.753   8.075
19583W        W23544   5.121   6.845  10.430
19584W        W23545   3.770   4.406  10.393
19585W        W23546   4.532   3.686  10.195
19586W        W23547   6.226   4.074   9.082
19587W        W23548   5.875   4.945   7.652
19588W        W23549   6.445   4.379  10.743
19589W        W23550   3.811   4.171   9.868
19590W        W23551   3.910   6.790  10.889
19591W        W23552   5.432   6.180   7.621
19592W        W23553   3.864   4.963   9.314
19593W        W23554   4.757   4.854  10.551
19594W        W23555   7.216   4.713   9.050
19595W        W23556   6.980   5.756   9.909
19596W        W23557   5.288   5.089   8.936
19597W        W23558   5.834   6.428   9.305
19598W        W23559   4.334   5.862   9.537
19599W        W23560   3.693   5.390   9.108
19600W        W23561   4.729   5.362  10.300
19601W        W23562   7.000   5.145  10.554
19602W        W23563   4.616   6.589   8.999
19603W        W23564   5.737   6.278  10.133
19604W        W23565   4.957   4.918   9.358
19605W        W23566   5.249   5.702   9.001
19606W        W23567   6.246   6.475  10.849
19607W        W23568   5.325   5.795  10.859
19608W        W23569   5.306   5.511  10.337
19609W        W23570   3.715   4.902  10.859
19610W        W23571   6.547   6.437  10.458
19611W        W23572   4.128   4.019   8.456
19612W        W23573   4.655   6.277   9.455
19613W        W23574   7.118   6.060   8.745
19614W        W23575   6.531   4.460   9.312
19615W        W23576   6.816   4.413   7.407
19616W        W23577   7.281   5.214   9.713
19617W        W23578   5.248   6.921   9.466
19618W        W23579   7.022   6.387   7.904
19619W        W23580   4.151   7.173   7.658
19620W        W23581   4.544   7.219   8.334
19621W        W23582   4.341   3.973   9.760
19622W        W23583   6.964   4.991  10.035
19623W        W23584   6.369   5.413   8.494
19624W        W23585   6.335   5.101   7.521
19625W        W23586   5.543   6.245   9.661
19626W        W23587   5.349   4.575   8.860
19627W        W23588   5.949   6.662   9.854
19628W        W23589   6.820   5.453   8.276
19629W        W23590   5.722   4.111   8.292
19630W        W23591   4.379   6.805   7.975
19631W        W23592   3.750   4.304   8.574
19632W        W23593   6.536   4.911   9.048
19633W        W23594   3.994   6.528   8.963
19634W        W23595   5.335   6.878   7.833
19635W        W23596   6.727   4.904   7.297
19636W        W23597   3.750   6.662   9.461
19637W        W23598   4.541   6.234   9.941
19638W        W23599   4.914   5.594   8.560
19639W        W23600   4.936   3.999   9.653
19640W        W23601   7.165   3.761   8.950
19641W        W23602   4.384   5.633   7.418
19642W        W23603   4.039   4.666   7.597
19643W        W23604   4.101   6.622   8.391
19644W        W23605   5.232   6.105   8.639
19645W        W23606   6.564   6.964  10.353
19646W        W23607   5.490   4.606   8.037
19647W        W23608   6.873   7.004   8.809
19648W        W23609   6.550   4.857  10.407
19649W        W23610   7.263   6.513   8.541
19650W        W23611   5.890   5.805  10.025
19651W        W23612   3.656   5.356   8.231
19652W        W23613   4.767   5.771   9.804
19653W        W23614   5.971   5.035   8.182
19654W        W23615   5.848   5.525   8.286
19655W        W23616   4.191   4.945   9.760
19656W        W23617   4.176   4.821  10.682
19657W        W23618   4.066   3.738   8.841
19658W        W23619   5.834   4.085   9.402
19659W        W23620   5.482   4.270  10.565
19660W        W23621   5.837   4.419   7.743
19661W        W23622   7.020   6.812  10.497
19662W        W23623   5.987   3.893  10.536
19663W        W23624   7.006   6.194  10.658
19664W        W23625   6.436   4.361  10.254
19665W        W23626   6.236   4.299   8.524
19666W        W23627   6.629   5.433  10.928
19667W        W23628   4.369   7.009   8.914
19668W        W23629   5.027   4.726   7.900
19669W        W23630   4.596   4.010  10.564
19670W        W23631   6.648   4.494   8.245
19671W        W23632   7.015   4.976   8.190
19672W        W23633   4.758   7.193  10.661
19673W        W23634   4.684   3.729   7.896
19674W        W23635   7.005   4.263   8.931
19675W        W23636   7.155   6.512   7.376
19676W        W23637   4.062   5.715   9.078
19677W        W23638   5.979   4.302   7.308
19678W        W23639   7.113   6.634   9.028
19679W        W23640   7.152   3.828   9.778
19680W        W23641   5.597   5.040  10.332
19681W        W23642   5.690   6.379   8.035
19682W        W23643   6.090   5.673  10.775
19683W        W23644   5.764   3.650   9.084
19684W        W23645   4.376   4.553   9.147
19685W        W23646   3.930   5.753   9.921
19686W        W23647   5.789   6.946   8.627
19687W        W23648   6.983   4.543   9.499
19688W        W23649   5.620   6.890  10.266
19689W        W23650   6.963   5.949   7.471
19690W        W23651   5.398   5.432   8.532
19691W        W23652   7.250   3.943  10.273
19692W        W23653   5.399   5.778   9.867
19693W        W23654   5.616   4.664   9.312
19694W        W23655   6.468   4.962   8.150
19695W        W23656   6.755   4.695   7.792
19696W        W23657   6.564   6.735   8.181
19697W        W23658   6.398   6.338   8.977
19698W        W23659   6.294   5.417   7.955
19699W        W23660   5.727   5.627   8.941
19700W        W23661   6.608   5.415   9.008
19701W        W23662   3.983   4.430   9.432
19702W        W23663   6.761   5.482  10.259
19703W        W23664   7.112   7.100   9.405
19704W        W23665   5.042   6.544   8.807
19705W        W23666   6.049   7.077  10.131
19706W        W23667   6.043   4.407   9.895
19707W        W23668   5.250   7.115   9.956
19708W        W23669   6.947   4.069   8.422
19709W        W23670   6.738   5.388   9.723
19710W        W23671   3.721   4.709   9.761
19711W        W23672   6.581   4.504   8.779
19712W        W23673   6.992   4.655  10.556
19713W        W23674   5.877   6.354   8.774
19714W        W23675   5.133   6.945   8.387
19715W        W23676   4.248   4.125   7.645
19716W        W23677   5.352   3.779   9.455
19717W        W23678   4.380   6.899   7.303
19718W        W23679   4.754   5.365   8.054
19719W        W23680   5.408   5.994  10.367
19720W        W23681   5.238   4.352   8.357
19721W        W23682   6.594   3.949   8.785
19722W        W23683   6.314   7.231   9.113
19723W        W23684   5.726   6.879   9.453
19724W        W23685   5.122   5.916   9.414
19725W        W23686   6.892   6.639   9.540
19726W        W23687   4.586   4.142   8.309
19727W        W23688   5.108   6.439   9.269
19728W        W23689   4.591   4.370   7.334
19729W        W23690   5.392   4.979   9.728
19730W        W23691   6.240   3.845   9.598
19731W        W23692   3.660   5.688   9.483
19732W        W23693   5.364   5.506   7.641
19733W        W23694   4.632   3.821   7.411
19734W        W23695   5.370   4.902   8.462
19735W        W23696   6.340   3.878  10.161
19736W        W23697   4.928   5.890  10.270
19737W        W23698   5.732   5.672  10.487
19738W        W23699   6.349   5.702  10.380
19739W        W23700   5.633   3.842  10.885
19740W        W23701   4.855   4.458   9.278
19741W        W23702   4.281   4.414   8.676
19742W        W23703   4.067   7.126   8.352
19743W        W23704   5.399   6.456  10.477
19744W        W23705   4.434   5.941   7.836
19745W        W23706   6.114   5.326   9.057
19746W        W23707   6.394   5.125   9.456
19747W        W23708   5.599   5.799   9.390
19748W        W23709   6.069   6.173   7.522
19749W        W23710   5.741   4.194   8.850
19750W        W23711   7.220   4.472   8.118
19751W        W23712   3.714   7.061  10.149
19752W        W23713   4.131   6.287   9.681
19753W        W23714   3.698   7.133   7.913
19754W        W23715   5.597   4.403   9.719
19755W        W23716   4.960   6.426   7.568
19756W        W23717   6.865   6.808   7.754
19757W        W23718   5.840   5.461   7.768
19758W        W23719   4.683   4.652   8.285
19759W        W23720   5.515   4.562   7.337
19760W        W23721   6.099   6.127  10.515
19761W        W23722   6.452   4.033   8.132
19762W        W23723   3.782   3.881   7.580
19763W        W23724   5.068   6.200   9.870
19764W        W23725   4.867   6.116   8.962
19765W        W23726   4.609   6.068   7.360
19766W        W23727   3.850   6.309   8.128
19767W        W23728   4.354   5.379  10.570
19768W        W23729   5.058   3.939  10.756
19769W        W23730   5.767   4.081  10.112
19770W        W23731   4.962   3.849   8.393
19771W        W23732   6.021   3.926   7.898
19772W        W23733   3.966   3.858   9.475
19773W        W23734   4.014   4.821   8.845
19774W        W23735   6.703   3.929   9.251
19775W        W23736   4.125   4.427   8.065
19776W        W23737   6.696   4.115   9.681
19777W        W23738   7.092   5.318   7.366
19778W        W23739   4.384   4.076   9.185
19779W        W23740   5.498   4.648  10.125
19780W        W23741   3.646   4.338   7.603
19781W        W23742   4.432   5.727  10.164
19782W        W23743   5.790   5.125   9.343
19783W        W23744   5.657   7.204   7.639
19784W        W23745   3.803   5.711   7.336
19785W        W23746   4.538   6.122  10.462
19786W        W23747   4.059   5.289  10.093
19787W        W23748   5.050   5.394   9.887
19788W        W23749   6.818   3.753  10.149
19789W        W23750   7.216   5.363  10.140
19790W        W23751   7.204   5.563   7.826
19791W        W23752   6.067   5.895   7.925
19792W        W23753   6.541   7.195   7.620
19793W        W23754   5.718   5.185  10.762
19794W        W23755   4.048   6.152  10.802
19795W        W23756   7.254   4.074  10.754
19796W        W23757   6.972   5.002   9.375
19797W        W23758   5.280   7.132  10.852
19798W        W23759   5.135   3.761   7.579
19799W        W23760   6.674   6.360   7.522
19800W        W23761   4.443   4.453  10.408
19801W        W23762   4.877   6.447  10.270
19802W        W23763   7.003   4.438  10.068
19803W        W23764   6.214   7.097   8.036
19804W        W23765   6.453   5.716   9.403
19805W        W23766   4.703   4.132  10.070
19806W        W23767   5.172   5.201  10.827
19807W        W23768   4.675   6.380   8.021
19808W        W23769   6.430   5.878   8.285
19809W        W23770   4.198   4.504  10.009
19810W        W23771   5.527   6.566   8.473
19811W        W23772   7.277   5.126   8.654
19812W        W23773   5.499   3.759  10.373
19813W        W23774   6.279   6.464   9.452
19814W        W23775   6.582   6.808   9.160
19815W        W23776   5.801   6.610   7.588
19816W        W23777   3.811   6.502  10.430
19817W        W23778   4.554   4.494   9.668
19818W        W23779   4.524   3.842   8.778
19819W        W23780   6.145   4.684   9.470
19820W        W23781   4.943   5.855   7.670
19821W        W23782   6.941   5.797   9.169
19822W        W23783   4.268   6.555  10.592
19823W        W23784   6.655   7.237   8.389
19824W        W23785   4.754   4.257   8.834
19825W        W23786   4.523   5.750   8.924
19826W        W23787   4.836   7.161   9.674
19827W        W23788   6.903   7.257  10.706
19828W        W23789   6.062   5.445   9.639
19829W        W23790   3.911   5.243   7.554
19830W        W23791   7.045   6.901   8.251
19831W        W23792   6.882   4.225   7.870
19832W        W23793   5.021   3.744  10.273
19833W        W23794   6.727   6.546   8.731
19834W        W23795   6.756   5.102   8.636
19835W        W23796   4.873   4.775   8.852
19836W        W23797   5.118   5.037  10.176
19837W        W23798   6.229   6.190  10.039
19838W        W23799   4.879   4.644  10.151
19839W        W23800   4.858   7.110   8.767
19840W        W23801   4.175   7.069  10.401
19841W        W23802   4.287   6.430   7.531
19842W        W23803   6.804   6.188   8.341
19843W        W23804   4.408   4.980  10.227
19844W        W23805   7.181   4.910   7.708
19845W        W23806   4.926   5.967   8.179
19846W        W23807   6.025   5.349  10.260
19847W        W23808   5.916   4.977   9.804
19848W        W23809   4.476   5.349   9.833
19849W        W23810   6.686   7.237   9.662
19850W        W23811   6.477   3.871  10.656
19851W        W23812   4.141   4.021  10.243
19852W        W23813   4.480   5.044   9.296
19853W        W23814   4.849   4.858   7.418
19854W        W23815   3.652   6.617   9.963
19855W        W23816   5.237   5.326   9.406
19856W        W23817   5.060   4.351   7.511
19857W        W23818   4.195   5.167   8.292
19858W        W23819   3.966   7.019   9.729
19859W        W23820   6.761   5.245   7.837
19860W        W23821   6.856   4.161  10.523
19861W        W23822   6.292   6.370   8.486
19862W        W23823   3.890   5.294  10.663
19863W        W23824   6.856   3.758   7.959
19864W        W23825   6.376   6.233   7.970
19865W        W23826   5.278   5.291   8.055
19866W        W23827   6.465   4.095   7.578
19867W        W23828   6.530   4.702   9.764
19868W        W23829   4.239   5.295   8.971
19869W        W23830   4.533   6.234   8.620
19870W        W23831   6.296   4.854   8.585
19871W        W23832   5.319   4.233   9.281
19872W        W23833   7.281   6.144   9.792
19873W        W23834   7.199   4.131   9.353
19874W        W23835   3.738   6.961   8.729
19875W        W23836   4.247   6.148   8.265
19876W        W23837   4.162   3.765  10.818
19877W        W23838   5.281   6.618  10.920
19878W        W23839   7.036   5.586   8.710
19879W        W23840   6.390   5.763   7.590
19880W        W23841   5.685   7.284   9.802
19881W        W23842   6.542   6.006  10.839
19882W        W23843   5.357   3.716   8.119
19883W        W23844   6.070   4.585   8.978
19884W        W23845   3.756   6.172   9.310
19885W        W23846   5.009   4.134   7.951
19886W        W23847   4.813   5.618  10.800
19887W        W23848   5.807   4.599   8.514
19888W        W23849   6.012   6.009   9.636
19889W        W23850   4.166   6.614  10.071
19890W        W23851   4.757   6.597  10.794
19891W        W23852   4.608   4.394   7.808
19892W        W23853   6.125   4.536   8.133
19893W        W23854   6.083   6.644  10.370
19894W        W23855   4.768   5.236   8.969
19895W        W23856   4.423   6.934   9.834
19896W        W23857   7.168   7.051   7.435
19897W        W23858   4.031   5.723  10.431
19898W        W23859   6.026   5.985   9.119
19899W        W23860   4.462   5.634   8.361
19900W        W23861   4.833   6.641   9.756
19901W        W23862   5.211   4.060   8.797
19902W        W23863   3.822   6.044   7.727
19903W        W23864   5.341   4.995   7.597
19904W        W23865   3.987   5.544   8.616
19905W        W23866   5.277   4.186  10.080
19906W        W23867   6.949   3.895   7.507
19907W        W23868   7.042   5.641  10.606
19908W        W23869   5.696   6.898  10.758
19909W        W23870   7.254   5.992  10.280
19910W        W23871   6.662   6.790  10.891
19911W        W23872   4.401   7.246   9.369
19912W        W23873   7.260   5.868   8.243
19913W        W23874   5.790   5.135   8.756
19914W        W23875   5.557   3.747   8.646
19915W        W23876   4.616   6.731   8.483
19916W        W23877   5.115   4.472   9.708
19917W        W23878   4.815   3.841   9.177
19918W        W23879   3.878   6.663   7.725
19919W        W23880   5.694   6.027   8.443
19920W        W23881   4.569   6.822  10.322
19921W        W23882   4.046   5.645   8.018
19922W        W23883   3.931   4.188   9.017
19923W        W23884   5.479   6.153   9.074
19924W        W23885   3.731   4.007   8.094
19925W        W23886   6.395   5.213  10.021
19926W        W23887   6.272   4.599   7.593
19927W        W23888   6.789   6.271   9.241
19928W        W23889   5.450   6.755   9.072
19929W        W23890   4.862   6.859   7.983
19930W        W23891   6.144   3.762   7.413
19931W        W23892   3.944   7.022   9.154
19932W        W23893   6.141   4.780  10.789
19933W        W23894   4.124   4.310  10.788
19934W        W23895   3.855   4.910   8.121
19935W        W23896   4.546   4.899   7.846
19936W        W23897   6.309   5.226  10.663
19937W        W23898   4.652   5.507   9.372
19938W        W23899   6.126   3.793   8.492
19939W        W23900   5.257   7.224   8.995
19940W        W23901   6.471   6.686   9.932
19941W        W23902   6.055   6.835   9.043
19942W        W23903   6.074   5.815   8.637
19943W        W23904   5.536   4.040   7.708
19944W        W23905   7.217   3.668   8.430
19945W        W23906   4.905   5.303   7.593
19946W        W23907   7.071   4.640   8.583
19947W        W23908   5.763   5.810   7.460
19948W        W23909   6.699   6.010  10.208
19949W        W23910   6.353   6.711   7.675
19950W        W23911   4.968   4.386  10.581
19951W        W23912   4.788   4.970   9.822
19952W        W23913   6.880   6.465  10.099
19953W        W23914   5.980   4.415  10.476
19954W        W23915   3.824   4.886  10.253
19955W        W23916   5.584   5.363   9.979
19956W        W23917   3.941   6.121   8.636
19957W        W23918   4.088   5.418   9.526
19958W        W23919   6.405   5.704   9.876
19959W        W23920   6.177   7.084  10.687
19960W        W23921   6.073   4.823  10.240
19961W        W23922   6.350   6.877   8.645
19962W        W23923   5.352   6.597   9.968
19963W        W23924   4.837   6.952   9.237
19964W        W23925   6.642   6.123   9.656
19965W        W23926   5.692   6.195  10.793
19966W        W23927   4.297   6.148   9.132
19967W        W23928   6.643   5.907   8.777
19968W        W23929   6.284   6.973   9.528
19969W        W23930   4.262   6.702   9.398
19970W        W23931   5.283   4.754  10.608
19971W        W23932   5.734   6.920   8.119
19972W        W23933   5.042   6.175  10.757
19973W        W23934   5.168   6.413   8.134
19974W        W23935   4.389   5.153   7.393
19975W        W23936   3.728   7.239  14.292
19976W        W23937   4.104   6.132  13.815
19977W        W23938   6.809   5.862  11.585
19978W        W23939   6.939   6.947  13.612
19979W        W23940   4.857   6.938  11.138
19980W        W23941   4.940   5.090  12.121
19981W        W23942   4.455   4.938  12.285
19982W        W23943   5.446   5.753  11.719
19983W        W23944   5.121   6.845  14.074
19984W        W23945   3.770   4.406  14.037
19985W        W23946   4.532   3.686  13.839
19986W        W23947   6.226   4.074  12.726
19987W        W23948   5.875   4.945  11.296
19988W        W23949   6.445   4.379  14.387
19989W        W23950   3.811   4.171  13.512
19990W        W23951   3.910   6.790  14.533
19991W        W23952   5.432   6.180  11.265
19992W        W23953   3.864   4.963  12.958
19993W        W23954   4.757   4.854  14.195
19994W        W23955   7.216   4.713  12.694
19995W        W23956   6.980   5.756  13.553
19996W        W23957   5.288   5.089  12.580
19997W        W23958   5.834   6.428  12.949
19998W        W23959   4.334   5.862  13.181
19999W        W23960   3.693   5.390  12.752
20000W        W23961   4.729   5.362  13.944
20001W        W23962   7.000   5.145  14.198
20002W        W23963   4.616   6.589  12.643
20003W        W23964   5.737   6.278  13.777
20004W        W23965   4.957   4.918  13.002
20005W        W23966   5.249   5.702  12.645
20006W        W23967   6.246   6.475  14.493
20007W        W23968   5.325   5.795  14.503
20008W        W23969   5.306   5.511  13.981
20009W        W23970   3.715   4.902  14.503
20010W        W23971   6.547   6.437  14.102
20011W        W23972   4.128   4.019  12.100
20012W        W23973   4.655   6.277  13.099
20013W        W23974   7.118   6.060  12.389
20014W        W23975   6.531   4.460  12.956
20015W        W23976   6.816   4.413  11.051
20016W        W23977   7.281   5.214  13.357
20017W        W23978   5.248   6.921  13.110
20018W        W23979   7.022   6.387  11.548
20019W        W23980   4.151   7.173  11.302
20020W        W23981   4.544   7.219  11.978
20021W        W23982   4.341   3.973  13.404
20022W        W23983   6.964   4.991  13.679
20023W        W23984   6.369   5.413  12.138
20024W        W23985   6.335   5.101  11.165
20025W        W23986   5.543   6.245  13.305
20026W        W23987   5.349   4.575  12.504
20027W        W23988   5.949   6.662  13.498
20028W        W23989   6.820   5.453  11.920
20029W        W23990   5.722   4.111  11.936
20030W        W23991   4.379   6.805  11.619
20031W        W23992   3.750   4.304  12.218
20032W        W23993   6.536   4.911  12.692
20033W        W23994   3.994   6.528  12.607
20034W        W23995   5.335   6.878  11.477
20035W        W23996   6.727   4.904  10.941
20036W        W23997   3.750   6.662  13.105
20037W        W23998   4.541   6.234  13.585
20038W        W23999   4.914   5.594  12.204
20039W        W24000   4.936   3.999  13.297
20040W        W24001   7.165   3.761  12.594
20041W        W24002   4.384   5.633  11.062
20042W        W24003   4.039   4.666  11.241
20043W        W24004   4.101   6.622  12.035
20044W        W24005   5.232   6.105  12.283
20045W        W24006   6.564   6.964  13.997
20046W        W24007   5.490   4.606  11.681
20047W        W24008   6.873   7.004  12.453
20048W        W24009   6.550   4.857  14.051
20049W        W24010   7.263   6.513  12.185
20050W        W24011   5.890   5.805  13.669
20051W        W24012   3.656   5.356  11.875
20052W        W24013   4.767   5.771  13.448
20053W        W24014   5.971   5.035  11.826
20054W        W24015   5.848   5.525  11.930
20055W        W24016   4.191   4.945  13.404
20056W        W24017   4.176   4.821  14.326
20057W        W24018   4.066   3.738  12.485
20058W        W24019   5.834   4.085  13.046
20059W        W24020   5.482   4.270  14.209
20060W        W24021   5.837   4.419  11.387
20061W        W24022   7.020   6.812  14.141
20062W        W24023   5.987   3.893  14.180
20063W        W24024   7.006   6.194  14.302
20064W        W24025   6.436   4.361  13.898
20065W        W24026   6.236   4.299  12.168
20066W        W24027   6.629   5.433  14.572
20067W        W24028   4.369   7.009  12.558
20068W        W24029   5.027   4.726  11.544
20069W        W24030   4.596   4.010  14.208
20070W        W24031   6.648   4.494  11.889
20071W        W24032   7.015   4.976  11.834
20072W        W24033   4.758   7.193  14.305
20073W        W24034   4.684   3.729  11.540
20074W        W24035   7.005   4.263  12.575
20075W        W24036   7.155   6.512  11.020
20076W        W24037   4.062   5.715  12.722
20077W        W24038   5.979   4.302  10.952
20078W        W24039   7.113   6.634  12.672
20079W        W24040   7.152   3.828  13.422
20080W        W24041   5.597   5.040  13.976
20081W        W24042   5.690   6.379  11.679
20082W        W24043   6.090   5.673  14.419
20083W        W24044   5.764   3.650  12.728
20084W        W24045   4.376   4.553  12.791
20085W        W24046   3.930   5.753  13.565
20086W        W24047   5.789   6.946  12.271
20087W        W24048   6.983   4.543  13.143
20088W        W24049   5.620   6.890  13.910
20089W        W24050   6.963   5.949  11.115
20090W        W24051   5.398   5.432  12.176
20091W        W24052   7.250   3.943  13.917
20092W        W24053   5.399   5.778  13.511
20093W        W24054   5.616   4.664  12.956
20094W        W24055   6.468   4.962  11.794
20095W        W24056   6.755   4.695  11.436
20096W        W24057   6.564   6.735  11.825
20097W        W24058   6.398   6.338  12.621
20098W        W24059   6.294   5.417  11.599
20099W        W24060   5.727   5.627  12.585
20100W        W24061   6.608   5.415  12.652
20101W        W24062   3.983   4.430  13.076
20102W        W24063   6.761   5.482  13.903
20103W        W24064   7.112   7.100  13.049
20104W        W24065   5.042   6.544  12.451
20105W        W24066   6.049   7.077  13.775
20106W        W24067   6.043   4.407  13.539
20107W        W24068   5.250   7.115  13.600
20108W        W24069   6.947   4.069  12.066
20109W        W24070   6.738   5.388  13.367
20110W        W24071   3.721   4.709  13.405
20111W        W24072   6.581   4.504  12.423
20112W        W24073   6.992   4.655  14.200
20113W        W24074   5.877   6.354  12.418
20114W        W24075   5.133   6.945  12.031
20115W        W24076   4.248   4.125  11.289
20116W        W24077   5.352   3.779  13.099
20117W        W24078   4.380   6.899  10.947
20118W        W24079   4.754   5.365  11.698
20119W        W24080   5.408   5.994  14.011
20120W        W24081   5.238   4.352  12.001
20121W        W24082   6.594   3.949  12.429
20122W        W24083   6.314   7.231  12.757
20123W        W24084   5.726   6.879  13.097
20124W        W24085   5.122   5.916  13.058
20125W        W24086   6.892   6.639  13.184
20126W        W24087   4.586   4.142  11.953
20127W        W24088   5.108   6.439  12.913
20128W        W24089   4.591   4.370  10.978
20129W        W24090   5.392   4.979  13.372
20130W        W24091   6.240   3.845  13.242
20131W        W24092   3.660   5.688  13.127
20132W        W24093   5.364   5.506  11.285
20133W        W24094   4.632   3.821  11.055
20134W        W24095   5.370   4.902  12.106
20135W        W24096   6.340   3.878  13.805
20136W        W24097   4.928   5.890  13.914
20137W        W24098   5.732   5.672  14.131
20138W        W24099   6.349   5.702  14.024
20139W        W24100   5.633   3.842  14.529
20140W        W24101   4.855   4.458  12.922
20141W        W24102   4.281   4.414  12.320
20142W        W24103   4.067   7.126  11.996
20143W        W24104   5.399   6.456  14.121
20144W        W24105   4.434   5.941  11.480
20145W        W24106   6.114   5.326  12.701
20146W        W24107   6.394   5.125  13.100
20147W        W24108   5.599   5.799  13.034
20148W        W24109   6.069   6.173  11.166
20149W        W24110   5.741   4.194  12.494
20150W        W24111   7.220   4.472  11.762
20151W        W24112   3.714   7.061  13.793
20152W        W24113   4.131   6.287  13.325
20153W        W24114   3.698   7.133  11.557
20154W        W24115   5.597   4.403  13.363
20155W        W24116   4.960   6.426  11.212
20156W        W24117   6.865   6.808  11.398
20157W        W24118   5.840   5.461  11.412
20158W        W24119   4.683   4.652  11.929
20159W        W24120   5.515   4.562  10.981
20160W        W24121   6.099   6.127  14.159
20161W        W24122   6.452   4.033  11.776
20162W        W24123   3.782   3.881  11.224
20163W        W24124   5.068   6.200  13.514
20164W        W24125   4.867   6.116  12.606
20165W        W24126   4.609   6.068  11.004
20166W        W24127   3.850   6.309  11.772
20167W        W24128   4.354   5.379  14.214
20168W        W24129   5.058   3.939  14.400
20169W        W24130   5.767   4.081  13.756
20170W        W24131   4.962   3.849  12.037
20171W        W24132   6.021   3.926  11.542
20172W        W24133   3.966   3.858  13.119
20173W        W24134   4.014   4.821  12.489
20174W        W24135   6.703   3.929  12.895
20175W        W24136   4.125   4.427  11.709
20176W        W24137   6.696   4.115  13.325
20177W        W24138   7.092   5.318  11.010
20178W        W24139   4.384   4.076  12.829
20179W        W24140   5.498   4.648  13.769
20180W        W24141   3.646   4.338  11.247
20181W        W24142   4.432   5.727  13.808
20182W        W24143   5.790   5.125  12.987
20183W        W24144   5.657   7.204  11.283
20184W        W24145   3.803   5.711  10.980
20185W        W24146   4.538   6.122  14.106
20186W        W24147   4.059   5.289  13.737
20187W        W24148   5.050   5.394  13.531
20188W        W24149   6.818   3.753  13.793
20189W        W24150   7.216   5.363  13.784
20190W        W24151   7.204   5.563  11.470
20191W        W24152   6.067   5.895  11.569
20192W        W24153   6.541   7.195  11.264
20193W        W24154   5.718   5.185  14.406
20194W        W24155   4.048   6.152  14.446
20195W        W24156   7.254   4.074  14.398
20196W        W24157   6.972   5.002  13.019
20197W        W24158   5.280   7.132  14.496
20198W        W24159   5.135   3.761  11.223
20199W        W24160   6.674   6.360  11.166
20200W        W24161   4.443   4.453  14.052
20201W        W24162   4.877   6.447  13.914
20202W        W24163   7.003   4.438  13.712
20203W        W24164   6.214   7.097  11.680
20204W        W24165   6.453   5.716  13.047
20205W        W24166   4.703   4.132  13.714
20206W        W24167   5.172   5.201  14.471
20207W        W24168   4.675   6.380  11.665
20208W        W24169   6.430   5.878  11.929
20209W        W24170   4.198   4.504  13.653
20210W        W24171   5.527   6.566  12.117
20211W        W24172   7.277   5.126  12.298
20212W        W24173   5.499   3.759  14.017
20213W        W24174   6.279   6.464  13.096
20214W        W24175   6.582   6.808  12.804
20215W        W24176   5.801   6.610  11.232
20216W        W24177   3.811   6.502  14.074
20217W        W24178   4.554   4.494  13.312
20218W        W24179   4.524   3.842  12.422
20219W        W24180   6.145   4.684  13.114
20220W        W24181   4.943   5.855  11.314
20221W        W24182   6.941   5.797  12.813
20222W        W24183   4.268   6.555  14.236
20223W        W24184   6.655   7.237  12.033
20224W        W24185   4.754   4.257  12.478
20225W        W24186   4.523   5.750  12.568
20226W        W24187   4.836   7.161  13.318
20227W        W24188   6.903   7.257  14.350
20228W        W24189   6.062   5.445  13.283
20229W        W24190   3.911   5.243  11.198
20230W        W24191   7.045   6.901  11.895
20231W        W24192   6.882   4.225  11.514
20232W        W24193   5.021   3.744  13.917
20233W        W24194   6.727   6.546  12.375
20234W        W24195   6.756   5.102  12.280
20235W        W24196   4.873   4.775  12.496
20236W        W24197   5.118   5.037  13.820
20237W        W24198   6.229   6.190  13.683
20238W        W24199   4.879   4.644  13.795
20239W        W24200   4.858   7.110  12.411
20240W        W24201   4.175   7.069  14.045
20241W        W24202   4.287   6.430  11.175
20242W        W24203   6.804   6.188  11.985
20243W        W24204   4.408   4.980  13.871
20244W        W24205   7.181   4.910  11.352
20245W        W24206   4.926   5.967  11.823
20246W        W24207   6.025   5.349  13.904
20247W        W24208   5.916   4.977  13.448
20248W        W24209   4.476   5.349  13.477
20249W        W24210   6.686   7.237  13.306
20250W        W24211   6.477   3.871  14.300
20251W        W24212   4.141   4.021  13.887
20252W        W24213   4.480   5.044  12.940
20253W        W24214   4.849   4.858  11.062
20254W        W24215   3.652   6.617  13.607
20255W        W24216   5.237   5.326  13.050
20256W        W24217   5.060   4.351  11.155
20257W        W24218   4.195   5.167  11.936
20258W        W24219   3.966   7.019  13.373
20259W        W24220   6.761   5.245  11.481
20260W        W24221   6.856   4.161  14.167
20261W        W24222   6.292   6.370  12.130
20262W        W24223   3.890   5.294  14.307
20263W        W24224   6.856   3.758  11.603
20264W        W24225   6.376   6.233  11.614
20265W        W24226   5.278   5.291  11.699
20266W        W24227   6.465   4.095  11.222
20267W        W24228   6.530   4.702  13.408
20268W        W24229   4.239   5.295  12.615
20269W        W24230   4.533   6.234  12.264
20270W        W24231   6.296   4.854  12.229
20271W        W24232   5.319   4.233  12.925
20272W        W24233   7.281   6.144  13.436
20273W        W24234   7.199   4.131  12.997
20274W        W24235   3.738   6.961  12.373
20275W        W24236   4.247   6.148  11.909
20276W        W24237   4.162   3.765  14.462
20277W        W24238   5.281   6.618  14.564
20278W        W24239   7.036   5.586  12.354
20279W        W24240   6.390   5.763  11.234
20280W        W24241   5.685   7.284  13.446
20281W        W24242   6.542   6.006  14.483
20282W        W24243   5.357   3.716  11.763
20283W        W24244   6.070   4.585  12.622
20284W        W24245   3.756   6.172  12.954
20285W        W24246   5.009   4.134  11.595
20286W        W24247   4.813   5.618  14.444
20287W        W24248   5.807   4.599  12.158
20288W        W24249   6.012   6.009  13.280
20289W        W24250   4.166   6.614  13.715
20290W        W24251   4.757   6.597  14.438
20291W        W24252   4.608   4.394  11.452
20292W        W24253   6.125   4.536  11.777
20293W        W24254   6.083   6.644  14.014
20294W        W24255   4.768   5.236  12.613
20295W        W24256   4.423   6.934  13.478
20296W        W24257   7.168   7.051  11.079
20297W        W24258   4.031   5.723  14.075
20298W        W24259   6.026   5.985  12.763
20299W        W24260   4.462   5.634  12.005
20300W        W24261   4.833   6.641  13.400
20301W        W24262   5.211   4.060  12.441
20302W        W24263   3.822   6.044  11.371
20303W        W24264   5.341   4.995  11.241
20304W        W24265   3.987   5.544  12.260
20305W        W24266   5.277   4.186  13.724
20306W        W24267   6.949   3.895  11.151
20307W        W24268   7.042   5.641  14.250
20308W        W24269   5.696   6.898  14.402
20309W        W24270   7.254   5.992  13.924
20310W        W24271   6.662   6.790  14.535
20311W        W24272   4.401   7.246  13.013
20312W        W24273   7.260   5.868  11.887
20313W        W24274   5.790   5.135  12.400
20314W        W24275   5.557   3.747  12.290
20315W        W24276   4.616   6.731  12.127
20316W        W24277   5.115   4.472  13.352
20317W        W24278   4.815   3.841  12.821
20318W        W24279   3.878   6.663  11.369
20319W        W24280   5.694   6.027  12.087
20320W        W24281   4.569   6.822  13.966
20321W        W24282   4.046   5.645  11.662
20322W        W24283   3.931   4.188  12.661
20323W        W24284   5.479   6.153  12.718
20324W        W24285   3.731   4.007  11.738
20325W        W24286   6.395   5.213  13.665
20326W        W24287   6.272   4.599  11.237
20327W        W24288   6.789   6.271  12.885
20328W        W24289   5.450   6.755  12.716
20329W        W24290   4.862   6.859  11.627
20330W        W24291   6.144   3.762  11.057
20331W        W24292   3.944   7.022  12.798
20332W        W24293   6.141   4.780  14.433
20333W        W24294   4.124   4.310  14.432
20334W        W24295   3.855   4.910  11.765
20335W        W24296   4.546   4.899  11.490
20336W        W24297   6.309   5.226  14.307
20337W        W24298   4.652   5.507  13.016
20338W        W24299   6.126   3.793  12.136
20339W        W24300   5.257   7.224  12.639
20340W        W24301   6.471   6.686  13.576
20341W        W24302   6.055   6.835  12.687
20342W        W24303   6.074   5.815  12.281
20343W        W24304   5.536   4.040  11.352
20344W        W24305   7.217   3.668  12.074
20345W        W24306   4.905   5.303  11.237
20346W        W24307   7.071   4.640  12.227
20347W        W24308   5.763   5.810  11.104
20348W        W24309   6.699   6.010  13.852
20349W        W24310   6.353   6.711  11.319
20350W        W24311   4.968   4.386  14.225
20351W        W24312   4.788   4.970  13.466
20352W        W24313   6.880   6.465  13.743
20353W        W24314   5.980   4.415  14.120
20354W        W24315   3.824   4.886  13.897
20355W        W24316   5.584   5.363  13.623
20356W        W24317   3.941   6.121  12.280
20357W        W24318   4.088   5.418  13.170
20358W        W24319   6.405   5.704  13.520
20359W        W24320   6.177   7.084  14.331
20360W        W24321   6.073   4.823  13.884
20361W        W24322   6.350   6.877  12.289
20362W        W24323   5.352   6.597  13.612
20363W        W24324   4.837   6.952  12.881
20364W        W24325   6.642   6.123  13.300
20365W        W24326   5.692   6.195  14.437
20366W        W24327   4.297   6.148  12.776
20367W        W24328   6.643   5.907  12.421
20368W        W24329   6.284   6.973  13.172
20369W        W24330   4.262   6.702  13.042
20370W        W24331   5.283   4.754  14.252
20371W        W24332   5.734   6.920  11.763
20372W        W24333   5.042   6.175  14.401
20373W        W24334   5.168   6.413  11.778
20374W        W24335   4.389   5.153  11.037
20375W        W24336   3.728   7.239  17.936
20376W        W24337   4.104   6.132  17.459
20377W        W24338   6.809   5.862  15.229
20378W        W24339   6.939   6.947  17.256
20379W        W24340   4.857   6.938  14.782
20380W        W24341   4.940   5.090  15.765
20381W        W24342   4.455   4.938  15.929
20382W        W24343   5.446   5.753  15.363
20383W        W24344   5.121   6.845  17.718
20384W        W24345   3.770   4.406  17.681
20385W        W24346   4.532   3.686  17.483
20386W        W24347   6.226   4.074  16.370
20387W        W24348   5.875   4.945  14.940
20388W        W24349   6.445   4.379  18.031
20389W        W24350   3.811   4.171  17.156
20390W        W24351   3.910   6.790  18.177
20391W        W24352   5.432   6.180  14.909
20392W        W24353   3.864   4.963  16.602
20393W        W24354   4.757   4.854  17.839
20394W        W24355   7.216   4.713  16.338
20395W        W24356   6.980   5.756  17.197
20396W        W24357   5.288   5.089  16.224
20397W        W24358   5.834   6.428  16.593
20398W        W24359   4.334   5.862  16.825
20399W        W24360   3.693   5.390  16.396
20400W        W24361   4.729   5.362  17.588
20401W        W24362   7.000   5.145  17.842
20402W        W24363   4.616   6.589  16.287
20403W        W24364   5.737   6.278  17.421
20404W        W24365   4.957   4.918  16.646
20405W        W24366   5.249   5.702  16.289
20406W        W24367   6.246   6.475  18.137
20407W        W24368   5.325   5.795  18.147
20408W        W24369   5.306   5.511  17.625
20409W        W24370   3.715   4.902  18.147
20410W        W24371   6.547   6.437  17.746
20411W        W24372   4.128   4.019  15.744
20412W        W24373   4.655   6.277  16.743
20413W        W24374   7.118   6.060  16.033
20414W        W24375   6.531   4.460  16.600
20415W        W24376   6.816   4.413  14.695
20416W        W24377   7.281   5.214  17.001
20417W        W24378   5.248   6.921  16.754
20418W        W24379   7.022   6.387  15.192
20419W        W24380   4.151   7.173  14.946
20420W        W24381   4.544   7.219  15.622
20421W        W24382   4.341   3.973  17.048
20422W        W24383   6.964   4.991  17.323
20423W        W24384   6.369   5.413  15.782
20424W        W24385   6.335   5.101  14.809
20425W        W24386   5.543   6.245  16.949
20426W        W24387   5.349   4.575  16.148
20427W        W24388   5.949   6.662  17.142
20428W        W24389   6.820   5.453  15.564
20429W        W24390   5.722   4.111  15.580
20430W        W24391   4.379   6.805  15.263
20431W        W24392   3.750   4.304  15.862
20432W        W24393   6.536   4.911  16.336
20433W        W24394   3.994   6.528  16.251
20434W        W24395   5.335   6.878  15.121
20435W        W24396   6.727   4.904  14.585
20436W        W24397   3.750   6.662  16.749
20437W        W24398   4.541   6.234  17.229
20438W        W24399   4.914   5.594  15.848
20439W        W24400   4.936   3.999  16.941
20440W        W24401   7.165   3.761  16.238
20441W        W24402   4.384   5.633  14.706
20442W        W24403   4.039   4.666  14.885
20443W        W24404   4.101   6.622  15.679
20444W        W24405   5.232   6.105  15.927
20445W        W24406   6.564   6.964  17.641
20446W        W24407   5.490   4.606  15.325
20447W        W24408   6.873   7.004  16.097
20448W        W24409   6.550   4.857  17.695
20449W        W24410   7.263   6.513  15.829
20450W        W24411   5.890   5.805  17.313
20451W        W24412   3.656   5.356  15.519
20452W        W24413   4.767   5.771  17.092
20453W        W24414   5.971   5.035  15.470
20454W        W24415   5.848   5.525  15.574
20455W        W24416   4.191   4.945  17.048
20456W        W24417   4.176   4.821  17.970
20457W        W24418   4.066   3.738  16.129
20458W        W24419   5.834   4.085  16.690
20459W        W24420   5.482   4.270  17.853
20460W        W24421   5.837   4.419  15.031
20461W        W24422   7.020   6.812  17.785
20462W        W24423   5.987   3.893  17.824
20463W        W24424   7.006   6.194  17.946
20464W        W24425   6.436   4.361  17.542
20465W        W24426   6.236   4.299  15.812
20466W        W24427   6.629   5.433  18.216
20467W        W24428   4.369   7.009  16.202
20468W        W24429   5.027   4.726  15.188
20469W        W24430   4.596   4.010  17.852
20470W        W24431   6.648   4.494  15.533
20471W        W24432   7.015   4.976  15.478
20472W        W24433   4.758   7.193  17.949
20473W        W24434   4.684   3.729  15.184
20474W        W24435   7.005   4.263  16.219
20475W        W24436   7.155   6.512  14.664
20476W        W24437   4.062   5.715  16.366
20477W        W24438   5.979   4.302  14.596
20478W        W24439   7.113   6.634  16.316
20479W        W24440   7.152   3.828  17.066
20480W        W24441   5.597   5.040  17.620
20481W        W24442   5.690   6.379  15.323
20482W        W24443   6.090   5.673  18.063
20483W        W24444   5.764   3.650  16.372
20484W        W24445   4.376   4.553  16.435
20485W        W24446   3.930   5.753  17.209
20486W        W24447   5.789   6.946  15.915
20487W        W24448   6.983   4.543  16.787
20488W        W24449   5.620   6.890  17.554
20489W        W24450   6.963   5.949  14.759
20490W        W24451   5.398   5.432  15.820
20491W        W24452   7.250   3.943  17.561
20492W        W24453   5.399   5.778  17.155
20493W        W24454   5.616   4.664  16.600
20494W        W24455   6.468   4.962  15.438
20495W        W24456   6.755   4.695  15.080
20496W        W24457   6.564   6.735  15.469
20497W        W24458   6.398   6.338  16.265
20498W        W24459   6.294   5.417  15.243
20499W        W24460   5.727   5.627  16.229
20500W        W24461   6.608   5.415  16.296
20501W        W24462   3.983   4.430  16.720
20502W        W24463   6.761   5.482  17.547
20503W        W24464   7.112   7.100  16.693
20504W        W24465   5.042   6.544  16.095
20505W        W24466   6.049   7.077  17.419
20506W        W24467   6.043   4.407  17.183
20507W        W24468   5.250   7.115  17.244
20508W        W24469   6.947   4.069  15.710
20509W        W24470   6.738   5.388  17.011
20510W        W24471   3.721   4.709  17.049
20511W        W24472   6.581   4.504  16.067
20512W        W24473   6.992   4.655  17.844
20513W        W24474   5.877   6.354  16.062
20514W        W24475   5.133   6.945  15.675
20515W        W24476   4.248   4.125  14.933
20516W        W24477   5.352   3.779  16.743
20517W        W24478   4.380   6.899  14.591
20518W        W24479   4.754   5.365  15.342
20519W        W24480   5.408   5.994  17.655
20520W        W24481   5.238   4.352  15.645
20521W        W24482   6.594   3.949  16.073
20522W        W24483   6.314   7.231  16.401
20523W        W24484   5.726   6.879  16.741
20524W        W24485   5.122   5.916  16.702
20525W        W24486   6.892   6.639  16.828
20526W        W24487   4.586   4.142  15.597
20527W        W24488   5.108   6.439  16.557
20528W        W24489   4.591   4.370  14.622
20529W        W24490   5.392   4.979  17.016
20530W        W24491   6.240   3.845  16.886
20531W        W24492   3.660   5.688  16.771
20532W        W24493   5.364   5.506  14.929
20533W        W24494   4.632   3.821  14.699
20534W        W24495   5.370   4.902  15.750
20535W        W24496   6.340   3.878  17.449
20536W        W24497   4.928   5.890  17.558
20537W        W24498   5.732   5.672  17.775
20538W        W24499   6.349   5.702  17.668
20539W        W24500   5.633   3.842  18.173
20540W        W24501   4.855   4.458  16.566
20541W        W24502   4.281   4.414  15.964
20542W        W24503   4.067   7.126  15.640
20543W        W24504   5.399   6.456  17.765
20544W        W24505   4.434   5.941  15.124
20545W        W24506   6.114   5.326  16.345
20546W        W24507   6.394   5.125  16.744
20547W        W24508   5.599   5.799  16.678
20548W        W24509   6.069   6.173  14.810
20549W        W24510   5.741   4.194  16.138
20550W        W24511   7.220   4.472  15.406
20551W        W24512   3.714   7.061  17.437
20552W        W24513   4.131   6.287  16.969
20553W        W24514   3.698   7.133  15.201
20554W        W24515   5.597   4.403  17.007
20555W        W24516   4.960   6.426  14.856
20556W        W24517   6.865   6.808  15.042
20557W        W24518   5.840   5.461  15.056
20558W        W24519   4.683   4.652  15.573
20559W        W24520   5.515   4.562  14.625
20560W        W24521   6.099   6.127  17.803
20561W        W24522   6.452   4.033  15.420
20562W        W24523   3.782   3.881  14.868
20563W        W24524   5.068   6.200  17.158
20564W        W24525   4.867   6.116  16.250
20565W        W24526   4.609   6.068  14.648
20566W        W24527   3.850   6.309  15.416
20567W        W24528   4.354   5.379  17.858
20568W        W24529   5.058   3.939  18.044
20569W        W24530   5.767   4.081  17.400
20570W        W24531   4.962   3.849  15.681
20571W        W24532   6.021   3.926  15.186
20572W        W24533   3.966   3.858  16.763
20573W        W24534   4.014   4.821  16.133
20574W        W24535   6.703   3.929  16.539
20575W        W24536   4.125   4.427  15.353
20576W        W24537   6.696   4.115  16.969
20577W        W24538   7.092   5.318  14.654
20578W        W24539   4.384   4.076  16.473
20579W        W24540   5.498   4.648  17.413
20580W        W24541   3.646   4.338  14.891
20581W        W24542   4.432   5.727  17.452
20582W        W24543   5.790   5.125  16.631
20583W        W24544   5.657   7.204  14.927
20584W        W24545   3.803   5.711  14.624
20585W        W24546   4.538   6.122  17.750
20586W        W24547   4.059   5.289  17.381
20587W        W24548   5.050   5.394  17.175
20588W        W24549   6.818   3.753  17.437
20589W        W24550   7.216   5.363  17.428
20590W        W24551   7.204   5.563  15.114
20591W        W24552   6.067   5.895  15.213
20592W        W24553   6.541   7.195  14.908
20593W        W24554   5.718   5.185  18.050
20594W        W24555   4.048   6.152  18.090
20595W        W24556   7.254   4.074  18.042
20596W        W24557   6.972   5.002  16.663
20597W        W24558   5.280   7.132  18.140
20598W        W24559   5.135   3.761  14.867
20599W        W24560   6.674   6.360  14.810
20600W        W24561   4.443   4.453  17.696
20601W        W24562   4.877   6.447  17.558
20602W        W24563   7.003   4.438  17.356
20603W        W24564   6.214   7.097  15.324
20604W        W24565   6.453   5.716  16.691
20605W        W24566   4.703   4.132  17.358
20606W        W24567   5.172   5.201  18.115
20607W        W24568   4.675   6.380  15.309
20608W        W24569   6.430   5.878  15.573
20609W        W24570   4.198   4.504  17.297
20610W        W24571   5.527   6.566  15.761
20611W        W24572   7.277   5.126  15.942
20612W        W24573   5.499   3.759  17.661
20613W        W24574   6.279   6.464  16.740
20614W        W24575   6.582   6.808  16.448
20615W        W24576   5.801   6.610  14.876
20616W        W24577   3.811   6.502  17.718
20617W        W24578   4.554   4.494  16.956
20618W        W24579   4.524   3.842  16.066
20619W        W24580   6.145   4.684  16.758
20620W        W24581   4.943   5.855  14.958
20621W        W24582   6.941   5.797  16.457
20622W        W24583   4.268   6.555  17.880
20623W        W24584   6.655   7.237  15.677
20624W        W24585   4.754   4.257  16.122
20625W        W24586   4.523   5.750  16.212
20626W        W24587   4.836   7.161  16.962
20627W        W24588   6.903   7.257  17.994
20628W        W24589   6.062   5.445  16.927
20629W        W24590   3.911   5.243  14.842
20630W        W24591   7.045   6.901  15.539
20631W        W24592   6.882   4.225  15.158
20632W        W24593   5.021   3.744  17.561
20633W        W24594   6.727   6.546  16.019
20634W        W24595   6.756   5.102  15.924
20635W        W24596   4.873   4.775  16.140
20636W        W24597   5.118   5.037  17.464
20637W        W24598   6.229   6.190  17.327
20638W        W24599   4.879   4.644  17.439
20639W        W24600   4.858   7.110  16.055
20640W        W24601   4.175   7.069  17.689
20641W        W24602   4.287   6.430  14.819
20642W        W24603   6.804   6.188  15.629
20643W        W24604   4.408   4.980  17.515
20644W        W24605   7.181   4.910  14.996
20645W        W24606   4.926   5.967  15.467
20646W        W24607   6.025   5.349  17.548
20647W        W24608   5.916   4.977  17.092
20648W        W24609   4.476   5.349  17.121
20649W        W24610   6.686   7.237  16.950
20650W        W24611   6.477   3.871  17.944
20651W        W24612   4.141   4.021  17.531
20652W        W24613   4.480   5.044  16.584
20653W        W24614   4.849   4.858  14.706
20654W        W24615   3.652   6.617  17.251
20655W        W24616   5.237   5.326  16.694
20656W        W24617   5.060   4.351  14.799
20657W        W24618   4.195   5.167  15.580
20658W        W24619   3.966   7.019  17.017
20659W        W24620   6.761   5.245  15.125
20660W        W24621   6.856   4.161  17.811
20661W        W24622   6.292   6.370  15.774
20662W        W24623   3.890   5.294  17.951
20663W        W24624   6.856   3.758  15.247
20664W        W24625   6.376   6.233  15.258
20665W        W24626   5.278   5.291  15.343
20666W        W24627   6.465   4.095  14.866
20667W        W24628   6.530   4.702  17.052
20668W        W24629   4.239   5.295  16.259
20669W        W24630   4.533   6.234  15.908
20670W        W24631   6.296   4.854  15.873
20671W        W24632   5.319   4.233  16.569
20672W        W24633   7.281   6.144  17.080
20673W        W24634   7.199   4.131  16.641
20674W        W24635   3.738   6.961  16.017
20675W        W24636   4.247   6.148  15.553
20676W        W24637   4.162   3.765  18.106
20677W        W24638   5.281   6.618  18.208
20678W        W24639   7.036   5.586  15.998
20679W        W24640   6.390   5.763  14.878
20680W        W24641   5.685   7.284  17.090
20681W        W24642   6.542   6.006  18.127
20682W        W24643   5.357   3.716  15.407
20683W        W24644   6.070   4.585  16.266
20684W        W24645   3.756   6.172  16.598
20685W        W24646   5.009   4.134  15.239
20686W        W24647   4.813   5.618  18.088
20687W        W24648   5.807   4.599  15.802
20688W        W24649   6.012   6.009  16.924
20689W        W24650   4.166   6.614  17.359
20690W        W24651   4.757   6.597  18.082
20691W        W24652   4.608   4.394  15.096
20692W        W24653   6.125   4.536  15.421
20693W        W24654   6.083   6.644  17.658
20694W        W24655   4.768   5.236  16.257
20695W        W24656   4.423   6.934  17.122
20696W        W24657   7.168   7.051  14.723
20697W        W24658   4.031   5.723  17.719
20698W        W24659   6.026   5.985  16.407
20699W        W24660   4.462   5.634  15.649
20700W        W24661   4.833   6.641  17.044
20701W        W24662   5.211   4.060  16.085
20702W        W24663   3.822   6.044  15.015
20703W        W24664   5.341   4.995  14.885
20704W        W24665   3.987   5.544  15.904
20705W        W24666   5.277   4.186  17.368
20706W        W24667   6.949   3.895  14.795
20707W        W24668   7.042   5.641  17.894
20708W        W24669   5.696   6.898  18.046
20709W        W24670   7.254   5.992  17.568
20710W        W24671   6.662   6.790  18.179
20711W        W24672   4.401   7.246  16.657
20712W        W24673   7.260   5.868  15.531
20713W        W24674   5.790   5.135  16.044
20714W        W24675   5.557   3.747  15.934
20715W        W24676   4.616   6.731  15.771
20716W        W24677   5.115   4.472  16.996
20717W        W24678   4.815   3.841  16.465
20718W        W24679   3.878   6.663  15.013
20719W        W24680   5.694   6.027  15.731
20720W        W24681   4.569   6.822  17.610
20721W        W24682   4.046   5.645  15.306
20722W        W24683   3.931   4.188  16.305
20723W        W24684   5.479   6.153  16.362
20724W        W24685   3.731   4.007  15.382
20725W        W24686   6.395   5.213  17.309
20726W        W24687   6.272   4.599  14.881
20727W        W24688   6.789   6.271  16.529
20728W        W24689   5.450   6.755  16.360
20729W        W24690   4.862   6.859  15.271
20730W        W24691   6.144   3.762  14.701
20731W        W24692   3.944   7.022  16.442
20732W        W24693   6.141   4.780  18.077
20733W        W24694   4.124   4.310  18.076
20734W        W24695   3.855   4.910  15.409
20735W        W24696   4.546   4.899  15.134
20736W        W24697   6.309   5.226  17.951
20737W        W24698   4.652   5.507  16.660
20738W        W24699   6.126   3.793  15.780
20739W        W24700   5.257   7.224  16.283
20740W        W24701   6.471   6.686  17.220
20741W        W24702   6.055   6.835  16.331
20742W        W24703   6.074   5.815  15.925
20743W        W24704   5.536   4.040  14.996
20744W        W24705   7.217   3.668  15.718
20745W        W24706   4.905   5.303  14.881
20746W        W24707   7.071   4.640  15.871
20747W        W24708   5.763   5.810  14.748
20748W        W24709   6.699   6.010  17.496
20749W        W24710   6.353   6.711  14.963
20750W        W24711   4.968   4.386  17.869
20751W        W24712   4.788   4.970  17.110
20752W        W24713   6.880   6.465  17.387
20753W        W24714   5.980   4.415  17.764
20754W        W24715   3.824   4.886  17.541
20755W        W24716   5.584   5.363  17.267
20756W        W24717   3.941   6.121  15.924
20757W        W24718   4.088   5.418  16.814
20758W        W24719   6.405   5.704  17.164
20759W        W24720   6.177   7.084  17.975
20760W        W24721   6.073   4.823  17.528
20761W        W24722   6.350   6.877  15.933
20762W        W24723   5.352   6.597  17.256
20763W        W24724   4.837   6.952  16.525
20764W        W24725   6.642   6.123  16.944
20765W        W24726   5.692   6.195  18.081
20766W        W24727   4.297   6.148  16.420
20767W        W24728   6.643   5.907  16.065
20768W        W24729   6.284   6.973  16.816
20769W        W24730   4.262   6.702  16.686
20770W        W24731   5.283   4.754  17.896
20771W        W24732   5.734   6.920  15.407
20772W        W24733   5.042   6.175  18.045
20773W        W24734   5.168   6.413  15.422
20774W        W24735   4.389   5.153  14.681
20775W        W24736   3.728   7.239  21.580
20776W        W24737   4.104   6.132  21.103
20777W        W24738   6.809   5.862  18.873
20778W        W24739   6.939   6.947  20.900
20779W        W24740   4.857   6.938  18.426
20780W        W24741   4.940   5.090  19.409
20781W        W24742   4.455   4.938  19.573
20782W        W24743   5.446   5.753  19.007
20783W        W24744   5.121   6.845  21.362
20784W        W24745   3.770   4.406  21.325
20785W        W24746   4.532   3.686  21.127
20786W        W24747   6.226   4.074  20.014
20787W        W24748   5.875   4.945  18.584
20788W        W24749   6.445   4.379  21.675
20789W        W24750   3.811   4.171  20.800
20790W        W24751   3.910   6.790  21.821
20791W        W24752   5.432   6.180  18.553
20792W        W24753   3.864   4.963  20.246
20793W        W24754   4.757   4.854  21.483
20794W        W24755   7.216   4.713  19.982
20795W        W24756   6.980   5.756  20.841
20796W        W24757   5.288   5.089  19.868
20797W        W24758   5.834   6.428  20.237
20798W        W24759   4.334   5.862  20.469
20799W        W24760   3.693   5.390  20.040
20800W        W24761   4.729   5.362  21.232
20801W        W24762   7.000   5.145  21.486
20802W        W24763   4.616   6.589  19.931
20803W        W24764   5.737   6.278  21.065
20804W        W24765   4.957   4.918  20.290
20805W        W24766   5.249   5.702  19.933
20806W        W24767   6.246   6.475  21.781
20807W        W24768   5.325   5.795  21.791
20808W        W24769   5.306   5.511  21.269
20809W        W24770   3.715   4.902  21.791
20810W        W24771   6.547   6.437  21.390
20811W        W24772   4.128   4.019  19.388
20812W        W24773   4.655   6.277  20.387
20813W        W24774   7.118   6.060  19.677
20814W        W24775   6.531   4.460  20.244
20815W        W24776   6.816   4.413  18.339
20816W        W24777   7.281   5.214  20.645
20817W        W24778   5.248   6.921  20.398
20818W        W24779   7.022   6.387  18.836
20819W        W24780   4.151   7.173  18.590
20820W        W24781   4.544   7.219  19.266
20821W        W24782   4.341   3.973  20.692
20822W        W24783   6.964   4.991  20.967
20823W        W24784   6.369   5.413  19.426
20824W        W24785   6.335   5.101  18.453
20825W        W24786   5.543   6.245  20.593
20826W        W24787   5.349   4.575  19.792
20827W        W24788   5.949   6.662  20.786
20828W        W24789   6.820   5.453  19.208
20829W        W24790   5.722   4.111  19.224
20830W        W24791   4.379   6.805  18.907
20831W        W24792   3.750   4.304  19.506
20832W        W24793   6.536   4.911  19.980
20833W        W24794   3.994   6.528  19.895
20834W        W24795   5.335   6.878  18.765
20835W        W24796   6.727   4.904  18.229
20836W        W24797   3.750   6.662  20.393
20837W        W24798   4.541   6.234  20.873
20838W        W24799   4.914   5.594  19.492
20839W        W24800   4.936   3.999  20.585
20840W        W24801   7.165   3.761  19.882
20841W        W24802   4.384   5.633  18.350
20842W        W24803   4.039   4.666  18.529
20843W        W24804   4.101   6.622  19.323
20844W        W24805   5.232   6.105  19.571
20845W        W24806   6.564   6.964  21.285
20846W        W24807   5.490   4.606  18.969
20847W        W24808   6.873   7.004  19.741
20848W        W24809   6.550   4.857  21.339
20849W        W24810   7.263   6.513  19.473
20850W        W24811   5.890   5.805  20.957
20851W        W24812   3.656   5.356  19.163
20852W        W24813   4.767   5.771  20.736
20853W        W24814   5.971   5.035  19.114
20854W        W24815   5.848   5.525  19.218
20855W        W24816   4.191   4.945  20.692
20856W        W24817   4.176   4.821  21.614
20857W        W24818   4.066   3.738  19.773
20858W        W24819   5.834   4.085  20.334
20859W        W24820   5.482   4.270  21.497
20860W        W24821   5.837   4.419  18.675
20861W        W24822   7.020   6.812  21.429
20862W        W24823   5.987   3.893  21.468
20863W        W24824   7.006   6.194  21.590
20864W        W24825   6.436   4.361  21.186
20865W        W24826   6.236   4.299  19.456
20866W        W24827   6.629   5.433  21.860
20867W        W24828   4.369   7.009  19.846
20868W        W24829   5.027   4.726  18.832
20869W        W24830   4.596   4.010  21.496
20870W        W24831   6.648   4.494  19.177
20871W        W24832   7.015   4.976  19.122
20872W        W24833   4.758   7.193  21.593
20873W        W24834   4.684   3.729  18.828
20874W        W24835   7.005   4.263  19.863
20875W        W24836   7.155   6.512  18.308
20876W        W24837   4.062   5.715  20.010
20877W        W24838   5.979   4.302  18.240
20878W        W24839   7.113   6.634  19.960
20879W        W24840   7.152   3.828  20.710
20880W        W24841   5.597   5.040  21.264
20881W        W24842   5.690   6.379  18.967
20882W        W24843   6.090   5.673  21.707
20883W        W24844   5.764   3.650  20.016
20884W        W24845   4.376   4.553  20.079
20885W        W24846   3.930   5.753  20.853
20886W        W24847   5.789   6.946  19.559
20887W        W24848   6.983   4.543  20.431
20888W        W24849   5.620   6.890  21.198
20889W        W24850   6.963   5.949  18.403
20890W        W24851   5.398   5.432  19.464
20891W        W24852   7.250   3.943  21.205
20892W        W24853   5.399   5.778  20.799
20893W        W24854   5.616   4.664  20.244
20894W        W24855   6.468   4.962  19.082
20895W        W24856   6.755   4.695  18.724
20896W        W24857   6.564   6.735  19.113
20897W        W24858   6.398   6.338  19.909
20898W        W24859   6.294   5.417  18.887
20899W        W24860   5.727   5.627  19.873
20900W        W24861   6.608   5.415  19.940
20901W        W24862   3.983   4.430  20.364
20902W        W24863   6.761   5.482  21.191
20903W        W24864   7.112   7.100  20.337
20904W        W24865   5.042   6.544  19.739
20905W        W24866   6.049   7.077  21.063
20906W        W24867   6.043   4.407  20.827
20907W        W24868   5.250   7.115  20.888
20908W        W24869   6.947   4.069  19.354
20909W        W24870   6.738   5.388  20.655
20910W        W24871   3.721   4.709  20.693
20911W        W24872   6.581   4.504  19.711
20912W        W24873   6.992   4.655  21.488
20913W        W24874   5.877   6.354  19.706
20914W        W24875   5.133   6.945  19.319
20915W        W24876   4.248   4.125  18.577
20916W        W24877   5.352   3.779  20.387
20917W        W24878   4.380   6.899  18.235
20918W        W24879   4.754   5.365  18.986
20919W        W24880   5.408   5.994  21.299
20920W        W24881   5.238   4.352  19.289
20921W        W24882   6.594   3.949  19.717
20922W        W24883   6.314   7.231  20.045
20923W        W24884   5.726   6.879  20.385
20924W        W24885   5.122   5.916  20.346
20925W        W24886   6.892   6.639  20.472
20926W        W24887   4.586   4.142  19.241
20927W        W24888   5.108   6.439  20.201
20928W        W24889   4.591   4.370  18.266
20929W        W24890   5.392   4.979  20.660
20930W        W24891   6.240   3.845  20.530
20931W        W24892   3.660   5.688  20.415
20932W        W24893   5.364   5.506  18.573
20933W        W24894   4.632   3.821  18.343
20934W        W24895   5.370   4.902  19.394
20935W        W24896   6.340   3.878  21.093
20936W        W24897   4.928   5.890  21.202
20937W        W24898   5.732   5.672  21.419
20938W        W24899   6.349   5.702  21.312
20939W        W24900   5.633   3.842  21.817
20940W        W24901   4.855   4.458  20.210
20941W        W24902   4.281   4.414  19.608
20942W        W24903   4.067   7.126  19.284
20943W        W24904   5.399   6.456  21.409
20944W        W24905   4.434   5.941  18.768
20945W        W24906   6.114   5.326  19.989
20946W        W24907   6.394   5.125  20.388
20947W        W24908   5.599   5.799  20.322
20948W        W24909   6.069   6.173  18.454
20949W        W24910   5.741   4.194  19.782
20950W        W24911   7.220   4.472  19.050
20951W        W24912   3.714   7.061  21.081
20952W        W24913   4.131   6.287  20.613
20953W        W24914   3.698   7.133  18.845
20954W        W24915   5.597   4.403  20.651
20955W        W24916   4.960   6.426  18.500
20956W        W24917   6.865   6.808  18.686
20957W        W24918   5.840   5.461  18.700
20958W        W24919   4.683   4.652  19.217
20959W        W24920   5.515   4.562  18.269
20960W        W24921   6.099   6.127  21.447
20961W        W24922   6.452   4.033  19.064
20962W        W24923   3.782   3.881  18.512
20963W        W24924   5.068   6.200  20.802
20964W        W24925   4.867   6.116  19.894
20965W        W24926   4.609   6.068  18.292
20966W        W24927   3.850   6.309  19.060
20967W        W24928   4.354   5.379  21.502
20968W        W24929   5.058   3.939  21.688
20969W        W24930   5.767   4.081  21.044
20970W        W24931   4.962   3.849  19.325
20971W        W24932   6.021   3.926  18.830
20972W        W24933   3.966   3.858  20.407
20973W        W24934   4.014   4.821  19.777
20974W        W24935   6.703   3.929  20.183
20975W        W24936   4.125   4.427  18.997
20976W        W24937   6.696   4.115  20.613
20977W        W24938   7.092   5.318  18.298
20978W        W24939   4.384   4.076  20.117
20979W        W24940   5.498   4.648  21.057
20980W        W24941   3.646   4.338  18.535
20981W        W24942   4.432   5.727  21.096
20982W        W24943   5.790   5.125  20.275
20983W        W24944   5.657   7.204  18.571
20984W        W24945   3.803   5.711  18.268
20985W        W24946   4.538   6.122  21.394
20986W        W24947   4.059   5.289  21.025
20987W        W24948   5.050   5.394  20.819
20988W        W24949   6.818   3.753  21.081
20989W        W24950   7.216   5.363  21.072
20990W        W24951   7.204   5.563  18.758
20991W        W24952   6.067   5.895  18.857
20992W        W24953   6.541   7.195  18.552
20993W        W24954   5.718   5.185  21.694
20994W        W24955   4.048   6.152  21.734
20995W        W24956   7.254   4.074  21.686
20996W        W24957   6.972   5.002  20.307
20997W        W24958   5.280   7.132  21.784
20998W        W24959   5.135   3.761  18.511
20999W        W24960   6.674   6.360  18.454
21000W        W24961   4.443   4.453  21.340
21001W        W24962   4.877   6.447  21.202
21002W        W24963   7.003   4.438  21.000
21003W        W24964   6.214   7.097  18.968
21004W        W24965   6.453   5.716  20.335
21005W        W24966   4.703   4.132  21.002
21006W        W24967   5.172   5.201  21.759
21007W        W24968   4.675   6.380  18.953
21008W        W24969   6.430   5.878  19.217
21009W        W24970   4.198   4.504  20.941
21010W        W24971   5.527   6.566  19.405
21011W        W24972   7.277   5.126  19.586
21012W        W24973   5.499   3.759  21.305
21013W        W24974   6.279   6.464  20.384
21014W        W24975   6.582   6.808  20.092
21015W        W24976   5.801   6.610  18.520
21016W        W24977   3.811   6.502  21.362
21017W        W24978   4.554   4.494  20.600
21018W        W24979   4.524   3.842  19.710
21019W        W24980   6.145   4.684  20.402
21020W        W24981   4.943   5.855  18.602
21021W        W24982   6.941   5.797  20.101
21022W        W24983   4.268   6.555  21.524
21023W        W24984   6.655   7.237  19.321
21024W        W24985   4.754   4.257  19.766
21025W        W24986   4.523   5.750  19.856
21026W        W24987   4.836   7.161  20.606
21027W        W24988   6.903   7.257  21.638
21028W        W24989   6.062   5.445  20.571
21029W        W24990   3.911   5.243  18.486
21030W        W24991   7.045   6.901  19.183
21031W        W24992   6.882   4.225  18.802
21032W        W24993   5.021   3.744  21.205
21033W        W24994   6.727   6.546  19.663
21034W        W24995   6.756   5.102  19.568
21035W        W24996   4.873   4.775  19.784
21036W        W24997   5.118   5.037  21.108
21037W        W24998   6.229   6.190  20.971
21038W        W24999   4.879   4.644  21.083
21039W        W25000   4.858   7.110  19.699
21040W        W25001   4.175   7.069  21.333
21041W        W25002   4.287   6.430  18.463
21042W        W25003   6.804   6.188  19.273
21043W        W25004   4.408   4.980  21.159
21044W        W25005   7.181   4.910  18.640
21045W        W25006   4.926   5.967  19.111
21046W        W25007   6.025   5.349  21.192
21047W        W25008   5.916   4.977  20.736
21048W        W25009   4.476   5.349  20.765
21049W        W25010   6.686   7.237  20.594
21050W        W25011   6.477   3.871  21.588
21051W        W25012   4.141   4.021  21.175
21052W        W25013   4.480   5.044  20.228
21053W        W25014   4.849   4.858  18.350
21054W        W25015   3.652   6.617  20.895
21055W        W25016   5.237   5.326  20.338
21056W        W25017   5.060   4.351  18.443
21057W        W25018   4.195   5.167  19.224
21058W        W25019   3.966   7.019  20.661
21059W        W25020   6.761   5.245  18.769
21060W        W25021   6.856   4.161  21.455
21061W        W25022   6.292   6.370  19.418
21062W        W25023   3.890   5.294  21.595
21063W        W25024   6.856   3.758  18.891
21064W        W25025   6.376   6.233  18.902
21065W        W25026   5.278   5.291  18.987
21066W        W25027   6.465   4.095  18.510
21067W        W25028   6.530   4.702  20.696
21068W        W25029   4.239   5.295  19.903
21069W        W25030   4.533   6.234  19.552
21070W        W25031   6.296   4.854  19.517
21071W        W25032   5.319   4.233  20.213
21072W        W25033   7.281   6.144  20.724
21073W        W25034   7.199   4.131  20.285
21074W        W25035   3.738   6.961  19.661
21075W        W25036   4.247   6.148  19.197
21076W        W25037   4.162   3.765  21.750
21077W        W25038   5.281   6.618  21.852
21078W        W25039   7.036   5.586  19.642
21079W        W25040   6.390   5.763  18.522
21080W        W25041   5.685   7.284  20.734
21081W        W25042   6.542   6.006  21.771
21082W        W25043   5.357   3.716  19.051
21083W        W25044   6.070   4.585  19.910
21084W        W25045   3.756   6.172  20.242
21085W        W25046   5.009   4.134  18.883
21086W        W25047   4.813   5.618  21.732
21087W        W25048   5.807   4.599  19.446
21088W        W25049   6.012   6.009  20.568
21089W        W25050   4.166   6.614  21.003
21090W        W25051   4.757   6.597  21.726
21091W        W25052   4.608   4.394  18.740
21092W        W25053   6.125   4.536  19.065
21093W        W25054   6.083   6.644  21.302
21094W        W25055   4.768   5.236  19.901
21095W        W25056   4.423   6.934  20.766
21096W        W25057   7.168   7.051  18.367
21097W        W25058   4.031   5.723  21.363
21098W        W25059   6.026   5.985  20.051
21099W        W25060   4.462   5.634  19.293
21100W        W25061   4.833   6.641  20.688
21101W        W25062   5.211   4.060  19.729
21102W        W25063   3.822   6.044  18.659
21103W        W25064   5.341   4.995  18.529
21104W        W25065   3.987   5.544  19.548
21105W        W25066   5.277   4.186  21.012
21106W        W25067   6.949   3.895  18.439
21107W        W25068   7.042   5.641  21.538
21108W        W25069   5.696   6.898  21.690
21109W        W25070   7.254   5.992  21.212
21110W        W25071   6.662   6.790  21.823
21111W        W25072   4.401   7.246  20.301
21112W        W25073   7.260   5.868  19.175
21113W        W25074   5.790   5.135  19.688
21114W        W25075   5.557   3.747  19.578
21115W        W25076   4.616   6.731  19.415
21116W        W25077   5.115   4.472  20.640
21117W        W25078   4.815   3.841  20.109
21118W        W25079   5.694   6.027  19.375
21119W        W25080   4.569   6.822  21.254
21120W        W25081   4.046   5.645  18.950
21121W        W25082   3.931   4.188  19.949
21122W        W25083   5.479   6.153  20.006
21123W        W25084   3.731   4.007  19.026
21124W        W25085   6.395   5.213  20.953
21125W        W25086   6.272   4.599  18.525
21126W        W25087   6.789   6.271  20.173
21127W        W25088   5.450   6.755  20.004
21128W        W25089   4.862   6.859  18.915
21129W        W25090   6.144   3.762  18.345
21130W        W25091   3.944   7.022  20.086
21131W        W25092   6.141   4.780  21.721
21132W        W25093   4.124   4.310  21.720
21133W        W25094   3.855   4.910  19.053
21134W        W25095   4.546   4.899  18.778
21135W        W25096   6.309   5.226  21.595
21136W        W25097   4.652   5.507  20.304
21137W        W25098   6.126   3.793  19.424
21138W        W25099   5.257   7.224  19.927
21139W        W25100   6.471   6.686  20.864
21140W        W25101   6.055   6.835  19.975
21141W        W25102   6.074   5.815  19.569
21142W        W25103   5.536   4.040  18.640
21143W        W25104   7.217   3.668  19.362
21144W        W25105   4.905   5.303  18.525
21145W        W25106   7.071   4.640  19.515
21146W        W25107   5.763   5.810  18.392
21147W        W25108   6.699   6.010  21.140
21148W        W25109   6.353   6.711  18.607
21149W        W25110   4.968   4.386  21.513
21150W        W25111   4.788   4.970  20.754
21151W        W25112   6.880   6.465  21.031
21152W        W25113   5.980   4.415  21.408
21153W        W25114   3.824   4.886  21.185
21154W        W25115   5.584   5.363  20.911
21155W        W25116   3.941   6.121  19.568
21156W        W25117   4.088   5.418  20.458
21157W        W25118   6.405   5.704  20.808
21158W        W25119   6.177   7.084  21.619
21159W        W25120   6.073   4.823  21.172
21160W        W25121   6.350   6.877  19.577
21161W        W25122   5.352   6.597  20.900
21162W        W25123   4.837   6.952  20.169
21163W        W25124   6.642   6.123  20.588
21164W        W25125   5.692   6.195  21.725
21165W        W25126   4.297   6.148  20.064
21166W        W25127   6.643   5.907  19.709
21167W        W25128   6.284   6.973  20.460
21168W        W25129   4.262   6.702  20.330
21169W        W25130   5.283   4.754  21.540
21170W        W25131   5.734   6.920  19.051
21171W        W25132   5.042   6.175  21.689
21172W        W25133   5.168   6.413  19.066
21173W        W25134   4.389   5.153  18.325
21174W        W25135   6.809   5.862  22.518
21175W        W25136   4.857   6.938  22.071
21176W        W25137   4.940   5.090  23.054
21177W        W25138   4.455   4.938  23.218
21178W        W25139   5.446   5.753  22.652
21179W        W25140   5.875   4.945  22.229
21180W        W25141   5.432   6.180  22.198
21181W        W25142   4.128   4.019  23.033
21182W        W25143   6.816   4.413  21.984
21183W        W25144   7.022   6.387  22.481
21184W        W25145   4.151   7.173  22.235
21185W        W25146   4.544   7.219  22.911
21186W        W25147   6.369   5.413  23.071
21187W        W25148   6.335   5.101  22.098
21188W        W25149   6.820   5.453  22.853
21189W        W25150   5.722   4.111  22.869
21190W        W25151   4.379   6.805  22.552
21191W        W25152   5.335   6.878  22.410
21192W        W25153   6.727   4.904  21.874
21193W        W25154   4.914   5.594  23.137
21194W        W25155   4.384   5.633  21.995
21195W        W25156   4.039   4.666  22.174
21196W        W25157   4.101   6.622  22.968
21197W        W25158   5.232   6.105  23.216
21198W        W25159   5.490   4.606  22.614
21199W        W25160   3.656   5.356  22.808
21200W        W25161   5.971   5.035  22.759
21201W        W25162   5.848   5.525  22.863
21202W        W25163   5.837   4.419  22.320
21203W        W25164   6.236   4.299  23.101
21204W        W25165   5.027   4.726  22.477
21205W        W25166   6.648   4.494  22.822
21206W        W25167   7.015   4.976  22.767
21207W        W25168   4.684   3.729  22.473
21208W        W25169   7.155   6.512  21.953
21209W        W25170   5.979   4.302  21.885
21210W        W25171   5.690   6.379  22.612
21211W        W25172   5.789   6.946  23.204
21212W        W25173   6.963   5.949  22.048
21213W        W25174   5.398   5.432  23.109
21214W        W25175   6.468   4.962  22.727
21215W        W25176   6.755   4.695  22.369
21216W        W25177   6.564   6.735  22.758
21217W        W25178   6.294   5.417  22.532
21218W        W25179   6.947   4.069  22.999
21219W        W25180   5.133   6.945  22.964
21220W        W25181   4.248   4.125  22.222
21221W        W25182   4.380   6.899  21.880
21222W        W25183   4.754   5.365  22.631
21223W        W25184   5.238   4.352  22.934
21224W        W25185   4.586   4.142  22.886
21225W        W25186   4.591   4.370  21.911
21226W        W25187   5.364   5.506  22.218
21227W        W25188   4.632   3.821  21.988
21228W        W25189   5.370   4.902  23.039
21229W        W25190   4.281   4.414  23.253
21230W        W25191   4.067   7.126  22.929
21231W        W25192   4.434   5.941  22.413
21232W        W25193   6.069   6.173  22.099
21233W        W25194   7.220   4.472  22.695
21234W        W25195   3.698   7.133  22.490
21235W        W25196   4.960   6.426  22.145
21236W        W25197   6.865   6.808  22.331
21237W        W25198   5.840   5.461  22.345
21238W        W25199   4.683   4.652  22.862
21239W        W25200   5.515   4.562  21.914
21240W        W25201   6.452   4.033  22.709
21241W        W25202   3.782   3.881  22.157
21242W        W25203   4.609   6.068  21.937
21243W        W25204   3.850   6.309  22.705
21244W        W25205   4.962   3.849  22.970
21245W        W25206   6.021   3.926  22.475
21246W        W25207   4.125   4.427  22.642
21247W        W25208   7.092   5.318  21.943
21248W        W25209   3.646   4.338  22.180
21249W        W25210   5.657   7.204  22.216
21250W        W25211   3.803   5.711  21.913
21251W        W25212   7.204   5.563  22.403
21252W        W25213   6.067   5.895  22.502
21253W        W25214   6.541   7.195  22.197
21254W        W25215   5.135   3.761  22.156
21255W        W25216   6.674   6.360  22.099
21256W        W25217   6.214   7.097  22.613
21257W        W25218   4.675   6.380  22.598
21258W        W25219   6.430   5.878  22.862
21259W        W25220   5.527   6.566  23.050
21260W        W25221   7.277   5.126  23.231
21261W        W25222   5.801   6.610  22.165
21262W        W25223   4.943   5.855  22.247
21263W        W25224   6.655   7.237  22.966
21264W        W25225   3.911   5.243  22.131
21265W        W25226   7.045   6.901  22.828
21266W        W25227   6.882   4.225  22.447
21267W        W25228   6.756   5.102  23.213
21268W        W25229   4.287   6.430  22.108
21269W        W25230   6.804   6.188  22.918
21270W        W25231   7.181   4.910  22.285
21271W        W25232   4.926   5.967  22.756
21272W        W25233   4.849   4.858  21.995
21273W        W25234   5.060   4.351  22.088
21274W        W25235   4.195   5.167  22.869
21275W        W25236   6.761   5.245  22.414
21276W        W25237   6.292   6.370  23.063
21277W        W25238   6.856   3.758  22.536
21278W        W25239   6.376   6.233  22.547
21279W        W25240   5.278   5.291  22.632
21280W        W25241   6.465   4.095  22.155
21281W        W25242   4.533   6.234  23.197
21282W        W25243   6.296   4.854  23.162
21283W        W25244   3.738   6.961  23.306
21284W        W25245   4.247   6.148  22.842
21285W        W25246   7.036   5.586  23.287
21286W        W25247   6.390   5.763  22.167
21287W        W25248   5.357   3.716  22.696
21288W        W25249   5.009   4.134  22.528
21289W        W25250   5.807   4.599  23.091
21290W        W25251   4.608   4.394  22.385
21291W        W25252   6.125   4.536  22.710
21292W        W25253   7.168   7.051  22.012
21293W        W25254   3.822   6.044  22.304
21294W        W25255   5.341   4.995  22.174
21295W        W25256   3.987   5.544  23.193
21296W        W25257   6.949   3.895  22.084
21297W        W25258   7.260   5.868  22.820
21298W        W25259   5.557   3.747  23.223
21299W        W25260   4.616   6.731  23.060
21300W        W25261   3.878   6.663  22.302
21301W        W25262   5.694   6.027  23.020
21302W        W25263   4.046   5.645  22.595
21303W        W25264   3.731   4.007  22.671
21304W        W25265   6.272   4.599  22.170
21305W        W25266   4.862   6.859  22.560
21306W        W25267   6.144   3.762  21.990
21307W        W25268   3.855   4.910  22.698
21308W        W25269   4.546   4.899  22.423
21309W        W25270   6.074   5.815  23.214
21310W        W25271   5.536   4.040  22.285
21311W        W25272   7.217   3.668  23.007
21312W        W25273   4.905   5.303  22.170
21313W        W25274   7.071   4.640  23.160
21314W        W25275   5.763   5.810  22.037
21315W        W25276   6.353   6.711  22.252
21316W        W25277   3.941   6.121  23.213
21317W        W25278   6.350   6.877  23.222
21318W        W25279   5.734   6.920  22.696
21319W        W25280   5.168   6.413  22.711
21320W        W25281   4.389   5.153  21.970
21321W        W25282   3.728  10.884   3.359
21322W        W25283   4.104   9.777   2.882
21323W        W25284   6.809   9.507   0.652
21324W        W25285   6.939  10.592   2.679
21325W        W25286   4.857  10.583   0.205
21326W        W25287   4.940   8.735   1.188
21327W        W25288   4.455   8.583   1.352
21328W        W25289   5.446   9.398   0.786
21329W        W25290   5.121  10.490   3.141
21330W        W25291   3.770   8.051   3.104
21331W        W25292   4.532   7.331   2.906
21332W        W25293   6.226   7.719   1.793
21333W        W25294   5.875   8.590   0.363
21334W        W25295   6.445   8.024   3.454
21335W        W25296   3.811   7.816   2.579
21336W        W25297   3.910  10.435   3.600
21337W        W25298   5.432   9.825   0.332
21338W        W25299   3.864   8.608   2.025
21339W        W25300   4.757   8.499   3.262
21340W        W25301   7.216   8.358   1.761
21341W        W25302   6.980   9.401   2.620
21342W        W25303   5.288   8.734   1.647
21343W        W25304   5.834  10.073   2.016
21344W        W25305   4.334   9.507   2.248
21345W        W25306   3.693   9.035   1.819
21346W        W25307   4.729   9.007   3.011
21347W        W25308   7.000   8.790   3.265
21348W        W25309   4.616  10.234   1.710
21349W        W25310   5.737   9.923   2.844
21350W        W25311   4.957   8.563   2.069
21351W        W25312   5.249   9.347   1.712
21352W        W25313   6.246  10.120   3.560
21353W        W25314   5.325   9.440   3.570
21354W        W25315   5.306   9.156   3.048
21355W        W25316   3.715   8.547   3.570
21356W        W25317   6.547  10.082   3.169
21357W        W25318   4.128   7.664   1.167
21358W        W25319   4.655   9.922   2.166
21359W        W25320   7.118   9.705   1.456
21360W        W25321   6.531   8.105   2.023
21361W        W25322   6.816   8.058   0.118
21362W        W25323   7.281   8.859   2.424
21363W        W25324   5.248  10.566   2.177
21364W        W25325   7.022  10.032   0.615
21365W        W25326   4.151  10.818   0.369
21366W        W25327   4.544  10.864   1.045
21367W        W25328   4.341   7.618   2.471
21368W        W25329   6.964   8.636   2.746
21369W        W25330   6.369   9.058   1.205
21370W        W25331   6.335   8.746   0.232
21371W        W25332   5.543   9.890   2.372
21372W        W25333   5.349   8.220   1.571
21373W        W25334   5.949  10.307   2.565
21374W        W25335   6.820   9.098   0.987
21375W        W25336   5.722   7.756   1.003
21376W        W25337   4.379  10.450   0.686
21377W        W25338   3.750   7.949   1.285
21378W        W25339   6.536   8.556   1.759
21379W        W25340   3.994  10.173   1.674
21380W        W25341   5.335  10.523   0.544
21381W        W25342   6.727   8.549   0.008
21382W        W25343   3.750  10.307   2.172
21383W        W25344   4.541   9.879   2.652
21384W        W25345   4.914   9.239   1.271
21385W        W25346   4.936   7.644   2.364
21386W        W25347   7.165   7.406   1.661
21387W        W25348   4.384   9.278   0.129
21388W        W25349   4.039   8.311   0.308
21389W        W25350   4.101  10.267   1.102
21390W        W25351   5.232   9.750   1.350
21391W        W25352   6.564  10.609   3.064
21392W        W25353   5.490   8.251   0.748
21393W        W25354   6.873  10.649   1.520
21394W        W25355   6.550   8.502   3.118
21395W        W25356   7.263  10.158   1.252
21396W        W25357   5.890   9.450   2.736
21397W        W25358   3.656   9.001   0.942
21398W        W25359   4.767   9.416   2.515
21399W        W25360   5.971   8.680   0.893
21400W        W25361   5.848   9.170   0.997
21401W        W25362   4.191   8.590   2.471
21402W        W25363   4.176   8.466   3.393
21403W        W25364   4.066   7.383   1.552
21404W        W25365   5.834   7.730   2.113
21405W        W25366   5.482   7.915   3.276
21406W        W25367   5.837   8.064   0.454
21407W        W25368   7.020  10.457   3.208
21408W        W25369   5.987   7.538   3.247
21409W        W25370   7.006   9.839   3.369
21410W        W25371   6.436   8.006   2.965
21411W        W25372   6.236   7.944   1.235
21412W        W25373   6.629   9.078   3.639
21413W        W25374   4.369  10.654   1.625
21414W        W25375   5.027   8.371   0.611
21415W        W25376   4.596   7.655   3.275
21416W        W25377   6.648   8.139   0.956
21417W        W25378   7.015   8.621   0.901
21418W        W25379   4.758  10.838   3.372
21419W        W25380   4.684   7.374   0.607
21420W        W25381   7.005   7.908   1.642
21421W        W25382   7.155  10.157   0.087
21422W        W25383   4.062   9.360   1.789
21423W        W25384   5.979   7.947   0.019
21424W        W25385   7.113  10.279   1.739
21425W        W25386   7.152   7.473   2.489
21426W        W25387   5.597   8.685   3.043
21427W        W25388   5.690  10.024   0.746
21428W        W25389   6.090   9.318   3.486
21429W        W25390   5.764   7.295   1.795
21430W        W25391   4.376   8.198   1.858
21431W        W25392   3.930   9.398   2.632
21432W        W25393   5.789  10.591   1.338
21433W        W25394   6.983   8.188   2.210
21434W        W25395   5.620  10.535   2.977
21435W        W25396   6.963   9.594   0.182
21436W        W25397   5.398   9.077   1.243
21437W        W25398   7.250   7.588   2.984
21438W        W25399   5.399   9.423   2.578
21439W        W25400   5.616   8.309   2.023
21440W        W25401   6.468   8.607   0.861
21441W        W25402   6.755   8.340   0.503
21442W        W25403   6.564  10.380   0.892
21443W        W25404   6.398   9.983   1.688
21444W        W25405   6.294   9.062   0.666
21445W        W25406   5.727   9.272   1.652
21446W        W25407   6.608   9.060   1.719
21447W        W25408   3.983   8.075   2.143
21448W        W25409   6.761   9.127   2.970
21449W        W25410   7.112  10.745   2.116
21450W        W25411   5.042  10.189   1.518
21451W        W25412   6.049  10.722   2.842
21452W        W25413   6.043   8.052   2.606
21453W        W25414   5.250  10.760   2.667
21454W        W25415   6.947   7.714   1.133
21455W        W25416   6.738   9.033   2.434
21456W        W25417   3.721   8.354   2.472
21457W        W25418   6.581   8.149   1.490
21458W        W25419   6.992   8.300   3.267
21459W        W25420   5.877   9.999   1.485
21460W        W25421   5.133  10.590   1.098
21461W        W25422   4.248   7.770   0.356
21462W        W25423   5.352   7.424   2.166
21463W        W25424   4.380  10.544   0.014
21464W        W25425   4.754   9.010   0.765
21465W        W25426   5.408   9.639   3.078
21466W        W25427   5.238   7.997   1.068
21467W        W25428   6.594   7.594   1.496
21468W        W25429   6.314  10.876   1.824
21469W        W25430   5.726  10.524   2.164
21470W        W25431   5.122   9.561   2.125
21471W        W25432   6.892  10.284   2.251
21472W        W25433   4.586   7.787   1.020
21473W        W25434   5.108  10.084   1.980
21474W        W25435   4.591   8.015   0.045
21475W        W25436   5.392   8.624   2.439
21476W        W25437   6.240   7.490   2.309
21477W        W25438   3.660   9.333   2.194
21478W        W25439   5.364   9.151   0.352
21479W        W25440   4.632   7.466   0.122
21480W        W25441   5.370   8.547   1.173
21481W        W25442   6.340   7.523   2.872
21482W        W25443   4.928   9.535   2.981
21483W        W25444   5.732   9.317   3.198
21484W        W25445   6.349   9.347   3.091
21485W        W25446   5.633   7.487   3.596
21486W        W25447   4.855   8.103   1.989
21487W        W25448   4.281   8.059   1.387
21488W        W25449   4.067  10.771   1.063
21489W        W25450   5.399  10.101   3.188
21490W        W25451   4.434   9.586   0.547
21491W        W25452   6.114   8.971   1.768
21492W        W25453   6.394   8.770   2.167
21493W        W25454   5.599   9.444   2.101
21494W        W25455   6.069   9.818   0.233
21495W        W25456   5.741   7.839   1.561
21496W        W25457   7.220   8.117   0.829
21497W        W25458   3.714  10.706   2.860
21498W        W25459   4.131   9.932   2.392
21499W        W25460   3.698  10.778   0.624
21500W        W25461   5.597   8.048   2.430
21501W        W25462   4.960  10.071   0.279
21502W        W25463   6.865  10.453   0.465
21503W        W25464   5.840   9.106   0.479
21504W        W25465   4.683   8.297   0.996
21505W        W25466   5.515   8.207   0.048
21506W        W25467   6.099   9.772   3.226
21507W        W25468   6.452   7.678   0.843
21508W        W25469   3.782   7.526   0.291
21509W        W25470   5.068   9.845   2.581
21510W        W25471   4.867   9.761   1.673
21511W        W25472   4.609   9.713   0.071
21512W        W25473   3.850   9.954   0.839
21513W        W25474   4.354   9.024   3.281
21514W        W25475   5.058   7.584   3.467
21515W        W25476   5.767   7.726   2.823
21516W        W25477   4.962   7.494   1.104
21517W        W25478   6.021   7.571   0.609
21518W        W25479   3.966   7.503   2.186
21519W        W25480   4.014   8.466   1.556
21520W        W25481   6.703   7.574   1.962
21521W        W25482   4.125   8.072   0.776
21522W        W25483   6.696   7.760   2.392
21523W        W25484   7.092   8.963   0.077
21524W        W25485   4.384   7.721   1.896
21525W        W25486   5.498   8.293   2.836
21526W        W25487   3.646   7.983   0.314
21527W        W25488   4.432   9.372   2.875
21528W        W25489   5.790   8.770   2.054
21529W        W25490   5.657  10.849   0.350
21530W        W25491   3.803   9.356   0.047
21531W        W25492   4.538   9.767   3.173
21532W        W25493   4.059   8.934   2.804
21533W        W25494   5.050   9.039   2.598
21534W        W25495   6.818   7.398   2.860
21535W        W25496   7.216   9.008   2.851
21536W        W25497   7.204   9.208   0.537
21537W        W25498   6.067   9.540   0.636
21538W        W25499   6.541  10.840   0.331
21539W        W25500   5.718   8.830   3.473
21540W        W25501   4.048   9.797   3.513
21541W        W25502   7.254   7.719   3.465
21542W        W25503   6.972   8.647   2.086
21543W        W25504   5.280  10.777   3.563
21544W        W25505   5.135   7.406   0.290
21545W        W25506   6.674  10.005   0.233
21546W        W25507   4.443   8.098   3.119
21547W        W25508   4.877  10.092   2.981
21548W        W25509   7.003   8.083   2.779
21549W        W25510   6.214  10.742   0.747
21550W        W25511   6.453   9.361   2.114
21551W        W25512   4.703   7.777   2.781
21552W        W25513   5.172   8.846   3.538
21553W        W25514   4.675  10.025   0.732
21554W        W25515   6.430   9.523   0.996
21555W        W25516   4.198   8.149   2.720
21556W        W25517   5.527  10.211   1.184
21557W        W25518   7.277   8.771   1.365
21558W        W25519   5.499   7.404   3.084
21559W        W25520   6.279  10.109   2.163
21560W        W25521   6.582  10.453   1.871
21561W        W25522   5.801  10.255   0.299
21562W        W25523   3.811  10.147   3.141
21563W        W25524   4.554   8.139   2.379
21564W        W25525   4.524   7.487   1.489
21565W        W25526   6.145   8.329   2.181
21566W        W25527   4.943   9.500   0.381
21567W        W25528   6.941   9.442   1.880
21568W        W25529   4.268  10.200   3.303
21569W        W25530   6.655  10.882   1.100
21570W        W25531   4.754   7.902   1.545
21571W        W25532   4.523   9.395   1.635
21572W        W25533   4.836  10.806   2.385
21573W        W25534   6.903  10.902   3.417
21574W        W25535   6.062   9.090   2.350
21575W        W25536   3.911   8.888   0.265
21576W        W25537   7.045  10.546   0.962
21577W        W25538   6.882   7.870   0.581
21578W        W25539   5.021   7.389   2.984
21579W        W25540   6.727  10.191   1.442
21580W        W25541   6.756   8.747   1.347
21581W        W25542   4.873   8.420   1.563
21582W        W25543   5.118   8.682   2.887
21583W        W25544   6.229   9.835   2.750
21584W        W25545   4.879   8.289   2.862
21585W        W25546   4.858  10.755   1.478
21586W        W25547   4.175  10.714   3.112
21587W        W25548   4.287  10.075   0.242
21588W        W25549   6.804   9.833   1.052
21589W        W25550   4.408   8.625   2.938
21590W        W25551   7.181   8.555   0.419
21591W        W25552   4.926   9.612   0.890
21592W        W25553   6.025   8.994   2.971
21593W        W25554   5.916   8.622   2.515
21594W        W25555   4.476   8.994   2.544
21595W        W25556   6.686  10.882   2.373
21596W        W25557   6.477   7.516   3.367
21597W        W25558   4.141   7.666   2.954
21598W        W25559   4.480   8.689   2.007
21599W        W25560   4.849   8.503   0.129
21600W        W25561   3.652  10.262   2.674
21601W        W25562   5.237   8.971   2.117
21602W        W25563   5.060   7.996   0.222
21603W        W25564   4.195   8.812   1.003
21604W        W25565   3.966  10.664   2.440
21605W        W25566   6.761   8.890   0.548
21606W        W25567   6.856   7.806   3.234
21607W        W25568   6.292  10.015   1.197
21608W        W25569   3.890   8.939   3.374
21609W        W25570   6.856   7.403   0.670
21610W        W25571   6.376   9.878   0.681
21611W        W25572   5.278   8.936   0.766
21612W        W25573   6.465   7.740   0.289
21613W        W25574   6.530   8.347   2.475
21614W        W25575   4.239   8.940   1.682
21615W        W25576   4.533   9.879   1.331
21616W        W25577   6.296   8.499   1.296
21617W        W25578   5.319   7.878   1.992
21618W        W25579   7.281   9.789   2.503
21619W        W25580   7.199   7.776   2.064
21620W        W25581   3.738  10.606   1.440
21621W        W25582   4.247   9.793   0.976
21622W        W25583   4.162   7.410   3.529
21623W        W25584   5.281  10.263   3.631
21624W        W25585   7.036   9.231   1.421
21625W        W25586   6.390   9.408   0.301
21626W        W25587   5.685  10.929   2.513
21627W        W25588   6.542   9.651   3.550
21628W        W25589   5.357   7.361   0.830
21629W        W25590   6.070   8.230   1.689
21630W        W25591   3.756   9.817   2.021
21631W        W25592   5.009   7.779   0.662
21632W        W25593   4.813   9.263   3.511
21633W        W25594   5.807   8.244   1.225
21634W        W25595   6.012   9.654   2.347
21635W        W25596   4.166  10.259   2.782
21636W        W25597   4.757  10.242   3.505
21637W        W25598   4.608   8.039   0.519
21638W        W25599   6.125   8.181   0.844
21639W        W25600   6.083  10.289   3.081
21640W        W25601   4.768   8.881   1.680
21641W        W25602   4.423  10.579   2.545
21642W        W25603   7.168  10.696   0.146
21643W        W25604   4.031   9.368   3.142
21644W        W25605   6.026   9.630   1.830
21645W        W25606   4.462   9.279   1.072
21646W        W25607   4.833  10.286   2.467
21647W        W25608   5.211   7.705   1.508
21648W        W25609   3.822   9.689   0.438
21649W        W25610   5.341   8.640   0.308
21650W        W25611   3.987   9.189   1.327
21651W        W25612   5.277   7.831   2.791
21652W        W25613   6.949   7.540   0.218
21653W        W25614   7.042   9.286   3.317
21654W        W25615   5.696  10.543   3.469
21655W        W25616   7.254   9.637   2.991
21656W        W25617   6.662  10.435   3.602
21657W        W25618   4.401  10.891   2.080
21658W        W25619   7.260   9.513   0.954
21659W        W25620   5.790   8.780   1.467
21660W        W25621   5.557   7.392   1.357
21661W        W25622   4.616  10.376   1.194
21662W        W25623   5.115   8.117   2.419
21663W        W25624   4.815   7.486   1.888
21664W        W25625   3.878  10.308   0.436
21665W        W25626   5.694   9.672   1.154
21666W        W25627   4.569  10.467   3.033
21667W        W25628   4.046   9.290   0.729
21668W        W25629   3.931   7.833   1.728
21669W        W25630   5.479   9.798   1.785
21670W        W25631   3.731   7.652   0.805
21671W        W25632   6.395   8.858   2.732
21672W        W25633   6.272   8.244   0.304
21673W        W25634   6.789   9.916   1.952
21674W        W25635   5.450  10.400   1.783
21675W        W25636   4.862  10.504   0.694
21676W        W25637   6.144   7.407   0.124
21677W        W25638   3.944  10.667   1.865
21678W        W25639   6.141   8.425   3.500
21679W        W25640   4.124   7.955   3.499
21680W        W25641   3.855   8.555   0.832
21681W        W25642   4.546   8.544   0.557
21682W        W25643   6.309   8.871   3.374
21683W        W25644   4.652   9.152   2.083
21684W        W25645   6.126   7.438   1.203
21685W        W25646   5.257  10.869   1.706
21686W        W25647   6.471  10.331   2.643
21687W        W25648   6.055  10.480   1.754
21688W        W25649   6.074   9.460   1.348
21689W        W25650   5.536   7.685   0.419
21690W        W25651   7.217   7.313   1.141
21691W        W25652   4.905   8.948   0.304
21692W        W25653   7.071   8.285   1.294
21693W        W25654   5.763   9.455   0.171
21694W        W25655   6.699   9.655   2.919
21695W        W25656   6.353  10.356   0.386
21696W        W25657   4.968   8.031   3.292
21697W        W25658   4.788   8.615   2.533
21698W        W25659   6.880  10.110   2.810
21699W        W25660   5.980   8.060   3.187
21700W        W25661   3.824   8.531   2.964
21701W        W25662   5.584   9.008   2.690
21702W        W25663   3.941   9.766   1.347
21703W        W25664   4.088   9.063   2.237
21704W        W25665   6.405   9.349   2.587
21705W        W25666   6.177  10.729   3.398
21706W        W25667   6.073   8.468   2.951
21707W        W25668   6.350  10.522   1.356
21708W        W25669   5.352  10.242   2.679
21709W        W25670   4.837  10.597   1.948
21710W        W25671   6.642   9.768   2.367
21711W        W25672   5.692   9.840   3.504
21712W        W25673   4.297   9.793   1.843
21713W        W25674   6.643   9.552   1.488
21714W        W25675   6.284  10.618   2.239
21715W        W25676   4.262  10.347   2.109
21716W        W25677   5.283   8.399   3.319
21717W        W25678   5.734  10.565   0.830
21718W        W25679   5.042   9.820   3.468
21719W        W25680   5.168  10.058   0.845
21720W        W25681   4.389   8.798   0.104
21721W        W25682   3.728  10.884   7.003
21722W        W25683   4.104   9.777   6.526
21723W        W25684   6.809   9.507   4.296
21724W        W25685   6.939  10.592   6.323
21725W        W25686   4.857  10.583   3.849
21726W        W25687   4.940   8.735   4.832
21727W        W25688   4.455   8.583   4.996
21728W        W25689   5.446   9.398   4.430
21729W        W25690   5.121  10.490   6.785
21730W        W25691   3.770   8.051   6.748
21731W        W25692   4.532   7.331   6.550
21732W        W25693   6.226   7.719   5.437
21733W        W25694   5.875   8.590   4.007
21734W        W25695   6.445   8.024   7.098
21735W        W25696   3.811   7.816   6.223
21736W        W25697   3.910  10.435   7.244
21737W        W25698   5.432   9.825   3.976
21738W        W25699   3.864   8.608   5.669
21739W        W25700   4.757   8.499   6.906
21740W        W25701   7.216   8.358   5.405
21741W        W25702   6.980   9.401   6.264
21742W        W25703   5.288   8.734   5.291
21743W        W25704   5.834  10.073   5.660
21744W        W25705   4.334   9.507   5.892
21745W        W25706   3.693   9.035   5.463
21746W        W25707   4.729   9.007   6.655
21747W        W25708   7.000   8.790   6.909
21748W        W25709   4.616  10.234   5.354
21749W        W25710   5.737   9.923   6.488
21750W        W25711   4.957   8.563   5.713
21751W        W25712   5.249   9.347   5.356
21752W        W25713   6.246  10.120   7.204
21753W        W25714   5.325   9.440   7.214
21754W        W25715   5.306   9.156   6.692
21755W        W25716   3.715   8.547   7.214
21756W        W25717   6.547  10.082   6.813
21757W        W25718   4.128   7.664   4.811
21758W        W25719   4.655   9.922   5.810
21759W        W25720   7.118   9.705   5.100
21760W        W25721   6.531   8.105   5.667
21761W        W25722   6.816   8.058   3.762
21762W        W25723   7.281   8.859   6.068
21763W        W25724   5.248  10.566   5.821
21764W        W25725   7.022  10.032   4.259
21765W        W25726   4.151  10.818   4.013
21766W        W25727   4.544  10.864   4.689
21767W        W25728   4.341   7.618   6.115
21768W        W25729   6.964   8.636   6.390
21769W        W25730   6.369   9.058   4.849
21770W        W25731   6.335   8.746   3.876
21771W        W25732   5.543   9.890   6.016
21772W        W25733   5.349   8.220   5.215
21773W        W25734   5.949  10.307   6.209
21774W        W25735   6.820   9.098   4.631
21775W        W25736   5.722   7.756   4.647
21776W        W25737   4.379  10.450   4.330
21777W        W25738   3.750   7.949   4.929
21778W        W25739   6.536   8.556   5.403
21779W        W25740   3.994  10.173   5.318
21780W        W25741   5.335  10.523   4.188
21781W        W25742   6.727   8.549   3.652
21782W        W25743   3.750  10.307   5.816
21783W        W25744   4.541   9.879   6.296
21784W        W25745   4.914   9.239   4.915
21785W        W25746   4.936   7.644   6.008
21786W        W25747   7.165   7.406   5.305
21787W        W25748   4.384   9.278   3.773
21788W        W25749   4.039   8.311   3.952
21789W        W25750   4.101  10.267   4.746
21790W        W25751   5.232   9.750   4.994
21791W        W25752   6.564  10.609   6.708
21792W        W25753   5.490   8.251   4.392
21793W        W25754   6.873  10.649   5.164
21794W        W25755   6.550   8.502   6.762
21795W        W25756   7.263  10.158   4.896
21796W        W25757   5.890   9.450   6.380
21797W        W25758   3.656   9.001   4.586
21798W        W25759   4.767   9.416   6.159
21799W        W25760   5.971   8.680   4.537
21800W        W25761   5.848   9.170   4.641
21801W        W25762   4.191   8.590   6.115
21802W        W25763   4.176   8.466   7.037
21803W        W25764   4.066   7.383   5.196
21804W        W25765   5.834   7.730   5.757
21805W        W25766   5.482   7.915   6.920
21806W        W25767   5.837   8.064   4.098
21807W        W25768   7.020  10.457   6.852
21808W        W25769   5.987   7.538   6.891
21809W        W25770   7.006   9.839   7.013
21810W        W25771   6.436   8.006   6.609
21811W        W25772   6.236   7.944   4.879
21812W        W25773   6.629   9.078   7.283
21813W        W25774   4.369  10.654   5.269
21814W        W25775   5.027   8.371   4.255
21815W        W25776   4.596   7.655   6.919
21816W        W25777   6.648   8.139   4.600
21817W        W25778   7.015   8.621   4.545
21818W        W25779   4.758  10.838   7.016
21819W        W25780   4.684   7.374   4.251
21820W        W25781   7.005   7.908   5.286
21821W        W25782   7.155  10.157   3.731
21822W        W25783   4.062   9.360   5.433
21823W        W25784   5.979   7.947   3.663
21824W        W25785   7.113  10.279   5.383
21825W        W25786   7.152   7.473   6.133
21826W        W25787   5.597   8.685   6.687
21827W        W25788   5.690  10.024   4.390
21828W        W25789   6.090   9.318   7.130
21829W        W25790   5.764   7.295   5.439
21830W        W25791   4.376   8.198   5.502
21831W        W25792   3.930   9.398   6.276
21832W        W25793   5.789  10.591   4.982
21833W        W25794   6.983   8.188   5.854
21834W        W25795   5.620  10.535   6.621
21835W        W25796   6.963   9.594   3.826
21836W        W25797   5.398   9.077   4.887
21837W        W25798   7.250   7.588   6.628
21838W        W25799   5.399   9.423   6.222
21839W        W25800   5.616   8.309   5.667
21840W        W25801   6.468   8.607   4.505
21841W        W25802   6.755   8.340   4.147
21842W        W25803   6.564  10.380   4.536
21843W        W25804   6.398   9.983   5.332
21844W        W25805   6.294   9.062   4.310
21845W        W25806   5.727   9.272   5.296
21846W        W25807   6.608   9.060   5.363
21847W        W25808   3.983   8.075   5.787
21848W        W25809   6.761   9.127   6.614
21849W        W25810   7.112  10.745   5.760
21850W        W25811   5.042  10.189   5.162
21851W        W25812   6.049  10.722   6.486
21852W        W25813   6.043   8.052   6.250
21853W        W25814   5.250  10.760   6.311
21854W        W25815   6.947   7.714   4.777
21855W        W25816   6.738   9.033   6.078
21856W        W25817   3.721   8.354   6.116
21857W        W25818   6.581   8.149   5.134
21858W        W25819   6.992   8.300   6.911
21859W        W25820   5.877   9.999   5.129
21860W        W25821   5.133  10.590   4.742
21861W        W25822   4.248   7.770   4.000
21862W        W25823   5.352   7.424   5.810
21863W        W25824   4.380  10.544   3.658
21864W        W25825   4.754   9.010   4.409
21865W        W25826   5.408   9.639   6.722
21866W        W25827   5.238   7.997   4.712
21867W        W25828   6.594   7.594   5.140
21868W        W25829   6.314  10.876   5.468
21869W        W25830   5.726  10.524   5.808
21870W        W25831   5.122   9.561   5.769
21871W        W25832   6.892  10.284   5.895
21872W        W25833   4.586   7.787   4.664
21873W        W25834   5.108  10.084   5.624
21874W        W25835   4.591   8.015   3.689
21875W        W25836   5.392   8.624   6.083
21876W        W25837   6.240   7.490   5.953
21877W        W25838   3.660   9.333   5.838
21878W        W25839   5.364   9.151   3.996
21879W        W25840   4.632   7.466   3.766
21880W        W25841   5.370   8.547   4.817
21881W        W25842   6.340   7.523   6.516
21882W        W25843   4.928   9.535   6.625
21883W        W25844   5.732   9.317   6.842
21884W        W25845   6.349   9.347   6.735
21885W        W25846   5.633   7.487   7.240
21886W        W25847   4.855   8.103   5.633
21887W        W25848   4.281   8.059   5.031
21888W        W25849   4.067  10.771   4.707
21889W        W25850   5.399  10.101   6.832
21890W        W25851   4.434   9.586   4.191
21891W        W25852   6.114   8.971   5.412
21892W        W25853   6.394   8.770   5.811
21893W        W25854   5.599   9.444   5.745
21894W        W25855   6.069   9.818   3.877
21895W        W25856   5.741   7.839   5.205
21896W        W25857   7.220   8.117   4.473
21897W        W25858   3.714  10.706   6.504
21898W        W25859   4.131   9.932   6.036
21899W        W25860   3.698  10.778   4.268
21900W        W25861   5.597   8.048   6.074
21901W        W25862   4.960  10.071   3.923
21902W        W25863   6.865  10.453   4.109
21903W        W25864   5.840   9.106   4.123
21904W        W25865   4.683   8.297   4.640
21905W        W25866   5.515   8.207   3.692
21906W        W25867   6.099   9.772   6.870
21907W        W25868   6.452   7.678   4.487
21908W        W25869   3.782   7.526   3.935
21909W        W25870   5.068   9.845   6.225
21910W        W25871   4.867   9.761   5.317
21911W        W25872   4.609   9.713   3.715
21912W        W25873   3.850   9.954   4.483
21913W        W25874   4.354   9.024   6.925
21914W        W25875   5.058   7.584   7.111
21915W        W25876   5.767   7.726   6.467
21916W        W25877   4.962   7.494   4.748
21917W        W25878   6.021   7.571   4.253
21918W        W25879   3.966   7.503   5.830
21919W        W25880   4.014   8.466   5.200
21920W        W25881   6.703   7.574   5.606
21921W        W25882   4.125   8.072   4.420
21922W        W25883   6.696   7.760   6.036
21923W        W25884   7.092   8.963   3.721
21924W        W25885   4.384   7.721   5.540
21925W        W25886   5.498   8.293   6.480
21926W        W25887   3.646   7.983   3.958
21927W        W25888   4.432   9.372   6.519
21928W        W25889   5.790   8.770   5.698
21929W        W25890   5.657  10.849   3.994
21930W        W25891   3.803   9.356   3.691
21931W        W25892   4.538   9.767   6.817
21932W        W25893   4.059   8.934   6.448
21933W        W25894   5.050   9.039   6.242
21934W        W25895   6.818   7.398   6.504
21935W        W25896   7.216   9.008   6.495
21936W        W25897   7.204   9.208   4.181
21937W        W25898   6.067   9.540   4.280
21938W        W25899   6.541  10.840   3.975
21939W        W25900   5.718   8.830   7.117
21940W        W25901   4.048   9.797   7.157
21941W        W25902   7.254   7.719   7.109
21942W        W25903   6.972   8.647   5.730
21943W        W25904   5.280  10.777   7.207
21944W        W25905   5.135   7.406   3.934
21945W        W25906   6.674  10.005   3.877
21946W        W25907   4.443   8.098   6.763
21947W        W25908   4.877  10.092   6.625
21948W        W25909   7.003   8.083   6.423
21949W        W25910   6.214  10.742   4.391
21950W        W25911   6.453   9.361   5.758
21951W        W25912   4.703   7.777   6.425
21952W        W25913   5.172   8.846   7.182
21953W        W25914   4.675  10.025   4.376
21954W        W25915   6.430   9.523   4.640
21955W        W25916   4.198   8.149   6.364
21956W        W25917   5.527  10.211   4.828
21957W        W25918   7.277   8.771   5.009
21958W        W25919   5.499   7.404   6.728
21959W        W25920   6.279  10.109   5.807
21960W        W25921   6.582  10.453   5.515
21961W        W25922   5.801  10.255   3.943
21962W        W25923   3.811  10.147   6.785
21963W        W25924   4.554   8.139   6.023
21964W        W25925   4.524   7.487   5.133
21965W        W25926   6.145   8.329   5.825
21966W        W25927   4.943   9.500   4.025
21967W        W25928   6.941   9.442   5.524
21968W        W25929   4.268  10.200   6.947
21969W        W25930   6.655  10.882   4.744
21970W        W25931   4.754   7.902   5.189
21971W        W25932   4.523   9.395   5.279
21972W        W25933   4.836  10.806   6.029
21973W        W25934   6.903  10.902   7.061
21974W        W25935   6.062   9.090   5.994
21975W        W25936   3.911   8.888   3.909
21976W        W25937   7.045  10.546   4.606
21977W        W25938   6.882   7.870   4.225
21978W        W25939   5.021   7.389   6.628
21979W        W25940   6.727  10.191   5.086
21980W        W25941   6.756   8.747   4.991
21981W        W25942   4.873   8.420   5.207
21982W        W25943   5.118   8.682   6.531
21983W        W25944   6.229   9.835   6.394
21984W        W25945   4.879   8.289   6.506
21985W        W25946   4.858  10.755   5.122
21986W        W25947   4.175  10.714   6.756
21987W        W25948   4.287  10.075   3.886
21988W        W25949   6.804   9.833   4.696
21989W        W25950   4.408   8.625   6.582
21990W        W25951   7.181   8.555   4.063
21991W        W25952   4.926   9.612   4.534
21992W        W25953   6.025   8.994   6.615
21993W        W25954   5.916   8.622   6.159
21994W        W25955   4.476   8.994   6.188
21995W        W25956   6.686  10.882   6.017
21996W        W25957   6.477   7.516   7.011
21997W        W25958   4.141   7.666   6.598
21998W        W25959   4.480   8.689   5.651
21999W        W25960   4.849   8.503   3.773
22000W        W25961   3.652  10.262   6.318
22001W        W25962   5.237   8.971   5.761
22002W        W25963   5.060   7.996   3.866
22003W        W25964   4.195   8.812   4.647
22004W        W25965   3.966  10.664   6.084
22005W        W25966   6.761   8.890   4.192
22006W        W25967   6.856   7.806   6.878
22007W        W25968   6.292  10.015   4.841
22008W        W25969   3.890   8.939   7.018
22009W        W25970   6.856   7.403   4.314
22010W        W25971   6.376   9.878   4.325
22011W        W25972   5.278   8.936   4.410
22012W        W25973   6.465   7.740   3.933
22013W        W25974   6.530   8.347   6.119
22014W        W25975   4.239   8.940   5.326
22015W        W25976   4.533   9.879   4.975
22016W        W25977   6.296   8.499   4.940
22017W        W25978   5.319   7.878   5.636
22018W        W25979   7.281   9.789   6.147
22019W        W25980   7.199   7.776   5.708
22020W        W25981   3.738  10.606   5.084
22021W        W25982   4.247   9.793   4.620
22022W        W25983   4.162   7.410   7.173
22023W        W25984   5.281  10.263   7.275
22024W        W25985   7.036   9.231   5.065
22025W        W25986   6.390   9.408   3.945
22026W        W25987   5.685  10.929   6.157
22027W        W25988   6.542   9.651   7.194
22028W        W25989   5.357   7.361   4.474
22029W        W25990   6.070   8.230   5.333
22030W        W25991   3.756   9.817   5.665
22031W        W25992   5.009   7.779   4.306
22032W        W25993   4.813   9.263   7.155
22033W        W25994   5.807   8.244   4.869
22034W        W25995   6.012   9.654   5.991
22035W        W25996   4.166  10.259   6.426
22036W        W25997   4.757  10.242   7.149
22037W        W25998   4.608   8.039   4.163
22038W        W25999   6.125   8.181   4.488
22039W        W26000   6.083  10.289   6.725
22040W        W26001   4.768   8.881   5.324
22041W        W26002   4.423  10.579   6.189
22042W        W26003   7.168  10.696   3.790
22043W        W26004   4.031   9.368   6.786
22044W        W26005   6.026   9.630   5.474
22045W        W26006   4.462   9.279   4.716
22046W        W26007   4.833  10.286   6.111
22047W        W26008   5.211   7.705   5.152
22048W        W26009   3.822   9.689   4.082
22049W        W26010   5.341   8.640   3.952
22050W        W26011   3.987   9.189   4.971
22051W        W26012   5.277   7.831   6.435
22052W        W26013   6.949   7.540   3.862
22053W        W26014   7.042   9.286   6.961
22054W        W26015   5.696  10.543   7.113
22055W        W26016   7.254   9.637   6.635
22056W        W26017   6.662  10.435   7.246
22057W        W26018   4.401  10.891   5.724
22058W        W26019   7.260   9.513   4.598
22059W        W26020   5.790   8.780   5.111
22060W        W26021   5.557   7.392   5.001
22061W        W26022   4.616  10.376   4.838
22062W        W26023   5.115   8.117   6.063
22063W        W26024   4.815   7.486   5.532
22064W        W26025   3.878  10.308   4.080
22065W        W26026   5.694   9.672   4.798
22066W        W26027   4.569  10.467   6.677
22067W        W26028   4.046   9.290   4.373
22068W        W26029   3.931   7.833   5.372
22069W        W26030   5.479   9.798   5.429
22070W        W26031   3.731   7.652   4.449
22071W        W26032   6.395   8.858   6.376
22072W        W26033   6.272   8.244   3.948
22073W        W26034   6.789   9.916   5.596
22074W        W26035   5.450  10.400   5.427
22075W        W26036   4.862  10.504   4.338
22076W        W26037   6.144   7.407   3.768
22077W        W26038   3.944  10.667   5.509
22078W        W26039   6.141   8.425   7.144
22079W        W26040   4.124   7.955   7.143
22080W        W26041   3.855   8.555   4.476
22081W        W26042   4.546   8.544   4.201
22082W        W26043   6.309   8.871   7.018
22083W        W26044   4.652   9.152   5.727
22084W        W26045   6.126   7.438   4.847
22085W        W26046   5.257  10.869   5.350
22086W        W26047   6.471  10.331   6.287
22087W        W26048   6.055  10.480   5.398
22088W        W26049   6.074   9.460   4.992
22089W        W26050   5.536   7.685   4.063
22090W        W26051   7.217   7.313   4.785
22091W        W26052   4.905   8.948   3.948
22092W        W26053   7.071   8.285   4.938
22093W        W26054   5.763   9.455   3.815
22094W        W26055   6.699   9.655   6.563
22095W        W26056   6.353  10.356   4.030
22096W        W26057   4.968   8.031   6.936
22097W        W26058   4.788   8.615   6.177
22098W        W26059   6.880  10.110   6.454
22099W        W26060   5.980   8.060   6.831
22100W        W26061   3.824   8.531   6.608
22101W        W26062   5.584   9.008   6.334
22102W        W26063   3.941   9.766   4.991
22103W        W26064   4.088   9.063   5.881
22104W        W26065   6.405   9.349   6.231
22105W        W26066   6.177  10.729   7.042
22106W        W26067   6.073   8.468   6.595
22107W        W26068   6.350  10.522   5.000
22108W        W26069   5.352  10.242   6.323
22109W        W26070   4.837  10.597   5.592
22110W        W26071   6.642   9.768   6.011
22111W        W26072   5.692   9.840   7.148
22112W        W26073   4.297   9.793   5.487
22113W        W26074   6.643   9.552   5.132
22114W        W26075   6.284  10.618   5.883
22115W        W26076   4.262  10.347   5.753
22116W        W26077   5.283   8.399   6.963
22117W        W26078   5.734  10.565   4.474
22118W        W26079   5.042   9.820   7.112
22119W        W26080   5.168  10.058   4.489
22120W        W26081   4.389   8.798   3.748
22121W        W26082   3.728  10.884  10.648
22122W        W26083   4.104   9.777  10.171
22123W        W26084   6.809   9.507   7.941
22124W        W26085   6.939  10.592   9.968
22125W        W26086   4.857  10.583   7.494
22126W        W26087   4.940   8.735   8.477
22127W        W26088   4.455   8.583   8.641
22128W        W26089   5.446   9.398   8.075
22129W        W26090   5.121  10.490  10.430
22130W        W26091   3.770   8.051  10.393
22131W        W26092   4.532   7.331  10.195
22132W        W26093   6.226   7.719   9.082
22133W        W26094   5.875   8.590   7.652
22134W        W26095   6.445   8.024  10.743
22135W        W26096   3.811   7.816   9.868
22136W        W26097   3.910  10.435  10.889
22137W        W26098   5.432   9.825   7.621
22138W        W26099   3.864   8.608   9.314
22139W        W26100   4.757   8.499  10.551
22140W        W26101   7.216   8.358   9.050
22141W        W26102   6.980   9.401   9.909
22142W        W26103   5.288   8.734   8.936
22143W        W26104   5.834  10.073   9.305
22144W        W26105   4.334   9.507   9.537
22145W        W26106   3.693   9.035   9.108
22146W        W26107   4.729   9.007  10.300
22147W        W26108   7.000   8.790  10.554
22148W        W26109   4.616  10.234   8.999
22149W        W26110   5.737   9.923  10.133
22150W        W26111   4.957   8.563   9.358
22151W        W26112   5.249   9.347   9.001
22152W        W26113   6.246  10.120  10.849
22153W        W26114   5.325   9.440  10.859
22154W        W26115   5.306   9.156  10.337
22155W        W26116   3.715   8.547  10.859
22156W        W26117   6.547  10.082  10.458
22157W        W26118   4.128   7.664   8.456
22158W        W26119   4.655   9.922   9.455
22159W        W26120   7.118   9.705   8.745
22160W        W26121   6.531   8.105   9.312
22161W        W26122   6.816   8.058   7.407
22162W        W26123   7.281   8.859   9.713
22163W        W26124   5.248  10.566   9.466
22164W        W26125   7.022  10.032   7.904
22165W        W26126   4.151  10.818   7.658
22166W        W26127   4.544  10.864   8.334
22167W        W26128   4.341   7.618   9.760
22168W        W26129   6.964   8.636  10.035
22169W        W26130   6.369   9.058   8.494
22170W        W26131   6.335   8.746   7.521
22171W        W26132   5.543   9.890   9.661
22172W        W26133   5.349   8.220   8.860
22173W        W26134   5.949  10.307   9.854
22174W        W26135   6.820   9.098   8.276
22175W        W26136   5.722   7.756   8.292
22176W        W26137   4.379  10.450   7.975
22177W        W26138   3.750   7.949   8.574
22178W        W26139   6.536   8.556   9.048
22179W        W26140   3.994  10.173   8.963
22180W        W26141   5.335  10.523   7.833
22181W        W26142   6.727   8.549   7.297
22182W        W26143   3.750  10.307   9.461
22183W        W26144   4.541   9.879   9.941
22184W        W26145   4.914   9.239   8.560
22185W        W26146   4.936   7.644   9.653
22186W        W26147   7.165   7.406   8.950
22187W        W26148   4.384   9.278   7.418
22188W        W26149   4.039   8.311   7.597
22189W        W26150   4.101  10.267   8.391
22190W        W26151   5.232   9.750   8.639
22191W        W26152   6.564  10.609  10.353
22192W        W26153   5.490   8.251   8.037
22193W        W26154   6.873  10.649   8.809
22194W        W26155   6.550   8.502  10.407
22195W        W26156   7.263  10.158   8.541
22196W        W26157   5.890   9.450  10.025
22197W        W26158   3.656   9.001   8.231
22198W        W26159   4.767   9.416   9.804
22199W        W26160   5.971   8.680   8.182
22200W        W26161   5.848   9.170   8.286
22201W        W26162   4.191   8.590   9.760
22202W        W26163   4.176   8.466  10.682
22203W        W26164   4.066   7.383   8.841
22204W        W26165   5.834   7.730   9.402
22205W        W26166   5.482   7.915  10.565
22206W        W26167   5.837   8.064   7.743
22207W        W26168   7.020  10.457  10.497
22208W        W26169   5.987   7.538  10.536
22209W        W26170   7.006   9.839  10.658
22210W        W26171   6.436   8.006  10.254
22211W        W26172   6.236   7.944   8.524
22212W        W26173   6.629   9.078  10.928
22213W        W26174   4.369  10.654   8.914
22214W        W26175   5.027   8.371   7.900
22215W        W26176   4.596   7.655  10.564
22216W        W26177   6.648   8.139   8.245
22217W        W26178   7.015   8.621   8.190
22218W        W26179   4.758  10.838  10.661
22219W        W26180   4.684   7.374   7.896
22220W        W26181   7.005   7.908   8.931
22221W        W26182   7.155  10.157   7.376
22222W        W26183   4.062   9.360   9.078
22223W        W26184   5.979   7.947   7.308
22224W        W26185   7.113  10.279   9.028
22225W        W26186   7.152   7.473   9.778
22226W        W26187   5.597   8.685  10.332
22227W        W26188   5.690  10.024   8.035
22228W        W26189   6.090   9.318  10.775
22229W        W26190   5.764   7.295   9.084
22230W        W26191   4.376   8.198   9.147
22231W        W26192   3.930   9.398   9.921
22232W        W26193   5.789  10.591   8.627
22233W        W26194   6.983   8.188   9.499
22234W        W26195   5.620  10.535  10.266
22235W        W26196   6.963   9.594   7.471
22236W        W26197   5.398   9.077   8.532
22237W        W26198   7.250   7.588  10.273
22238W        W26199   5.399   9.423   9.867
22239W        W26200   5.616   8.309   9.312
22240W        W26201   6.468   8.607   8.150
22241W        W26202   6.755   8.340   7.792
22242W        W26203   6.564  10.380   8.181
22243W        W26204   6.398   9.983   8.977
22244W        W26205   6.294   9.062   7.955
22245W        W26206   5.727   9.272   8.941
22246W        W26207   6.608   9.060   9.008
22247W        W26208   3.983   8.075   9.432
22248W        W26209   6.761   9.127  10.259
22249W        W26210   7.112  10.745   9.405
22250W        W26211   5.042  10.189   8.807
22251W        W26212   6.049  10.722  10.131
22252W        W26213   6.043   8.052   9.895
22253W        W26214   5.250  10.760   9.956
22254W        W26215   6.947   7.714   8.422
22255W        W26216   6.738   9.033   9.723
22256W        W26217   3.721   8.354   9.761
22257W        W26218   6.581   8.149   8.779
22258W        W26219   6.992   8.300  10.556
22259W        W26220   5.877   9.999   8.774
22260W        W26221   5.133  10.590   8.387
22261W        W26222   4.248   7.770   7.645
22262W        W26223   5.352   7.424   9.455
22263W        W26224   4.380  10.544   7.303
22264W        W26225   4.754   9.010   8.054
22265W        W26226   5.408   9.639  10.367
22266W        W26227   5.238   7.997   8.357
22267W        W26228   6.594   7.594   8.785
22268W        W26229   6.314  10.876   9.113
22269W        W26230   5.726  10.524   9.453
22270W        W26231   5.122   9.561   9.414
22271W        W26232   6.892  10.284   9.540
22272W        W26233   4.586   7.787   8.309
22273W        W26234   5.108  10.084   9.269
22274W        W26235   4.591   8.015   7.334
22275W        W26236   5.392   8.624   9.728
22276W        W26237   6.240   7.490   9.598
22277W        W26238   3.660   9.333   9.483
22278W        W26239   5.364   9.151   7.641
22279W        W26240   4.632   7.466   7.411
22280W        W26241   5.370   8.547   8.462
22281W        W26242   6.340   7.523  10.161
22282W        W26243   4.928   9.535  10.270
22283W        W26244   5.732   9.317  10.487
22284W        W26245   6.349   9.347  10.380
22285W        W26246   5.633   7.487  10.885
22286W        W26247   4.855   8.103   9.278
22287W        W26248   4.281   8.059   8.676
22288W        W26249   4.067  10.771   8.352
22289W        W26250   5.399  10.101  10.477
22290W        W26251   4.434   9.586   7.836
22291W        W26252   6.114   8.971   9.057
22292W        W26253   6.394   8.770   9.456
22293W        W26254   5.599   9.444   9.390
22294W        W26255   6.069   9.818   7.522
22295W        W26256   5.741   7.839   8.850
22296W        W26257   7.220   8.117   8.118
22297W        W26258   3.714  10.706  10.149
22298W        W26259   4.131   9.932   9.681
22299W        W26260   3.698  10.778   7.913
22300W        W26261   5.597   8.048   9.719
22301W        W26262   4.960  10.071   7.568
22302W        W26263   6.865  10.453   7.754
22303W        W26264   5.840   9.106   7.768
22304W        W26265   4.683   8.297   8.285
22305W        W26266   5.515   8.207   7.337
22306W        W26267   6.099   9.772  10.515
22307W        W26268   6.452   7.678   8.132
22308W        W26269   3.782   7.526   7.580
22309W        W26270   5.068   9.845   9.870
22310W        W26271   4.867   9.761   8.962
22311W        W26272   4.609   9.713   7.360
22312W        W26273   3.850   9.954   8.128
22313W        W26274   4.354   9.024  10.570
22314W        W26275   5.058   7.584  10.756
22315W        W26276   5.767   7.726  10.112
22316W        W26277   4.962   7.494   8.393
22317W        W26278   6.021   7.571   7.898
22318W        W26279   3.966   7.503   9.475
22319W        W26280   4.014   8.466   8.845
22320W        W26281   6.703   7.574   9.251
22321W        W26282   4.125   8.072   8.065
22322W        W26283   6.696   7.760   9.681
22323W        W26284   7.092   8.963   7.366
22324W        W26285   4.384   7.721   9.185
22325W        W26286   5.498   8.293  10.125
22326W        W26287   3.646   7.983   7.603
22327W        W26288   4.432   9.372  10.164
22328W        W26289   5.790   8.770   9.343
22329W        W26290   5.657  10.849   7.639
22330W        W26291   3.803   9.356   7.336
22331W        W26292   4.538   9.767  10.462
22332W        W26293   4.059   8.934  10.093
22333W        W26294   5.050   9.039   9.887
22334W        W26295   6.818   7.398  10.149
22335W        W26296   7.216   9.008  10.140
22336W        W26297   7.204   9.208   7.826
22337W        W26298   6.067   9.540   7.925
22338W        W26299   6.541  10.840   7.620
22339W        W26300   5.718   8.830  10.762
22340W        W26301   4.048   9.797  10.802
22341W        W26302   7.254   7.719  10.754
22342W        W26303   6.972   8.647   9.375
22343W        W26304   5.280  10.777  10.852
22344W        W26305   5.135   7.406   7.579
22345W        W26306   6.674  10.005   7.522
22346W        W26307   4.443   8.098  10.408
22347W        W26308   4.877  10.092  10.270
22348W        W26309   7.003   8.083  10.068
22349W        W26310   6.214  10.742   8.036
22350W        W26311   6.453   9.361   9.403
22351W        W26312   4.703   7.777  10.070
22352W        W26313   5.172   8.846  10.827
22353W        W26314   4.675  10.025   8.021
22354W        W26315   6.430   9.523   8.285
22355W        W26316   4.198   8.149  10.009
22356W        W26317   5.527  10.211   8.473
22357W        W26318   7.277   8.771   8.654
22358W        W26319   5.499   7.404  10.373
22359W        W26320   6.279  10.109   9.452
22360W        W26321   6.582  10.453   9.160
22361W        W26322   5.801  10.255   7.588
22362W        W26323   3.811  10.147  10.430
22363W        W26324   4.554   8.139   9.668
22364W        W26325   4.524   7.487   8.778
22365W        W26326   6.145   8.329   9.470
22366W        W26327   4.943   9.500   7.670
22367W        W26328   6.941   9.442   9.169
22368W        W26329   4.268  10.200  10.592
22369W        W26330   6.655  10.882   8.389
22370W        W26331   4.754   7.902   8.834
22371W        W26332   4.523   9.395   8.924
22372W        W26333   4.836  10.806   9.674
22373W        W26334   6.903  10.902  10.706
22374W        W26335   6.062   9.090   9.639
22375W        W26336   3.911   8.888   7.554
22376W        W26337   7.045  10.546   8.251
22377W        W26338   6.882   7.870   7.870
22378W        W26339   5.021   7.389  10.273
22379W        W26340   6.727  10.191   8.731
22380W        W26341   6.756   8.747   8.636
22381W        W26342   4.873   8.420   8.852
22382W        W26343   5.118   8.682  10.176
22383W        W26344   6.229   9.835  10.039
22384W        W26345   4.879   8.289  10.151
22385W        W26346   4.858  10.755   8.767
22386W        W26347   4.175  10.714  10.401
22387W        W26348   4.287  10.075   7.531
22388W        W26349   6.804   9.833   8.341
22389W        W26350   4.408   8.625  10.227
22390W        W26351   7.181   8.555   7.708
22391W        W26352   4.926   9.612   8.179
22392W        W26353   6.025   8.994  10.260
22393W        W26354   5.916   8.622   9.804
22394W        W26355   4.476   8.994   9.833
22395W        W26356   6.686  10.882   9.662
22396W        W26357   6.477   7.516  10.656
22397W        W26358   4.141   7.666  10.243
22398W        W26359   4.480   8.689   9.296
22399W        W26360   4.849   8.503   7.418
22400W        W26361   3.652  10.262   9.963
22401W        W26362   5.237   8.971   9.406
22402W        W26363   5.060   7.996   7.511
22403W        W26364   4.195   8.812   8.292
22404W        W26365   3.966  10.664   9.729
22405W        W26366   6.761   8.890   7.837
22406W        W26367   6.856   7.806  10.523
22407W        W26368   6.292  10.015   8.486
22408W        W26369   3.890   8.939  10.663
22409W        W26370   6.856   7.403   7.959
22410W        W26371   6.376   9.878   7.970
22411W        W26372   5.278   8.936   8.055
22412W        W26373   6.465   7.740   7.578
22413W        W26374   6.530   8.347   9.764
22414W        W26375   4.239   8.940   8.971
22415W        W26376   4.533   9.879   8.620
22416W        W26377   6.296   8.499   8.585
22417W        W26378   5.319   7.878   9.281
22418W        W26379   7.281   9.789   9.792
22419W        W26380   7.199   7.776   9.353
22420W        W26381   3.738  10.606   8.729
22421W        W26382   4.247   9.793   8.265
22422W        W26383   4.162   7.410  10.818
22423W        W26384   5.281  10.263  10.920
22424W        W26385   7.036   9.231   8.710
22425W        W26386   6.390   9.408   7.590
22426W        W26387   5.685  10.929   9.802
22427W        W26388   6.542   9.651  10.839
22428W        W26389   5.357   7.361   8.119
22429W        W26390   6.070   8.230   8.978
22430W        W26391   3.756   9.817   9.310
22431W        W26392   5.009   7.779   7.951
22432W        W26393   4.813   9.263  10.800
22433W        W26394   5.807   8.244   8.514
22434W        W26395   6.012   9.654   9.636
22435W        W26396   4.166  10.259  10.071
22436W        W26397   4.757  10.242  10.794
22437W        W26398   4.608   8.039   7.808
22438W        W26399   6.125   8.181   8.133
22439W        W26400   6.083  10.289  10.370
22440W        W26401   4.768   8.881   8.969
22441W        W26402   4.423  10.579   9.834
22442W        W26403   7.168  10.696   7.435
22443W        W26404   4.031   9.368  10.431
22444W        W26405   6.026   9.630   9.119
22445W        W26406   4.462   9.279   8.361
22446W        W26407   4.833  10.286   9.756
22447W        W26408   5.211   7.705   8.797
22448W        W26409   3.822   9.689   7.727
22449W        W26410   5.341   8.640   7.597
22450W        W26411   3.987   9.189   8.616
22451W        W26412   5.277   7.831  10.080
22452W        W26413   6.949   7.540   7.507
22453W        W26414   7.042   9.286  10.606
22454W        W26415   5.696  10.543  10.758
22455W        W26416   7.254   9.637  10.280
22456W        W26417   6.662  10.435  10.891
22457W        W26418   4.401  10.891   9.369
22458W        W26419   7.260   9.513   8.243
22459W        W26420   5.790   8.780   8.756
22460W        W26421   5.557   7.392   8.646
22461W        W26422   4.616  10.376   8.483
22462W        W26423   5.115   8.117   9.708
22463W        W26424   4.815   7.486   9.177
22464W        W26425   3.878  10.308   7.725
22465W        W26426   5.694   9.672   8.443
22466W        W26427   4.569  10.467  10.322
22467W        W26428   4.046   9.290   8.018
22468W        W26429   3.931   7.833   9.017
22469W        W26430   5.479   9.798   9.074
22470W        W26431   3.731   7.652   8.094
22471W        W26432   6.395   8.858  10.021
22472W        W26433   6.272   8.244   7.593
22473W        W26434   6.789   9.916   9.241
22474W        W26435   5.450  10.400   9.072
22475W        W26436   4.862  10.504   7.983
22476W        W26437   6.144   7.407   7.413
22477W        W26438   3.944  10.667   9.154
22478W        W26439   6.141   8.425  10.789
22479W        W26440   4.124   7.955  10.788
22480W        W26441   3.855   8.555   8.121
22481W        W26442   4.546   8.544   7.846
22482W        W26443   6.309   8.871  10.663
22483W        W26444   4.652   9.152   9.372
22484W        W26445   6.126   7.438   8.492
22485W        W26446   5.257  10.869   8.995
22486W        W26447   6.471  10.331   9.932
22487W        W26448   6.055  10.480   9.043
22488W        W26449   6.074   9.460   8.637
22489W        W26450   5.536   7.685   7.708
22490W        W26451   7.217   7.313   8.430
22491W        W26452   4.905   8.948   7.593
22492W        W26453   7.071   8.285   8.583
22493W        W26454   5.763   9.455   7.460
22494W        W26455   6.699   9.655  10.208
22495W        W26456   6.353  10.356   7.675
22496W        W26457   4.968   8.031  10.581
22497W        W26458   4.788   8.615   9.822
22498W        W26459   6.880  10.110  10.099
22499W        W26460   5.980   8.060  10.476
22500W        W26461   3.824   8.531  10.253
22501W        W26462   5.584   9.008   9.979
22502W        W26463   3.941   9.766   8.636
22503W        W26464   4.088   9.063   9.526
22504W        W26465   6.405   9.349   9.876
22505W        W26466   6.177  10.729  10.687
22506W        W26467   6.073   8.468  10.240
22507W        W26468   6.350  10.522   8.645
22508W        W26469   5.352  10.242   9.968
22509W        W26470   4.837  10.597   9.237
22510W        W26471   6.642   9.768   9.656
22511W        W26472   5.692   9.840  10.793
22512W        W26473   4.297   9.793   9.132
22513W        W26474   6.643   9.552   8.777
22514W        W26475   6.284  10.618   9.528
22515W        W26476   4.262  10.347   9.398
22516W        W26477   5.283   8.399  10.608
22517W        W26478   5.734  10.565   8.119
22518W        W26479   5.042   9.820  10.757
22519W        W26480   5.168  10.058   8.134
22520W        W26481   4.389   8.798   7.393
22521W        W26482   3.728  10.884  14.292
22522W        W26483   4.104   9.777  13.815
22523W        W26484   6.809   9.507  11.585
22524W        W26485   6.939  10.592  13.612
22525W        W26486   4.857  10.583  11.138
22526W        W26487   4.940   8.735  12.121
22527W        W26488   4.455   8.583  12.285
22528W        W26489   5.446   9.398  11.719
22529W        W26490   5.121  10.490  14.074
22530W        W26491   3.770   8.051  14.037
22531W        W26492   4.532   7.331  13.839
22532W        W26493   6.226   7.719  12.726
22533W        W26494   5.875   8.590  11.296
22534W        W26495   6.445   8.024  14.387
22535W        W26496   3.811   7.816  13.512
22536W        W26497   3.910  10.435  14.533
22537W        W26498   5.432   9.825  11.265
22538W        W26499   3.864   8.608  12.958
22539W        W26500   4.757   8.499  14.195
22540W        W26501   7.216   8.358  12.694
22541W        W26502   6.980   9.401  13.553
22542W        W26503   5.288   8.734  12.580
22543W        W26504   5.834  10.073  12.949
22544W        W26505   4.334   9.507  13.181
22545W        W26506   3.693   9.035  12.752
22546W        W26507   4.729   9.007  13.944
22547W        W26508   7.000   8.790  14.198
22548W        W26509   4.616  10.234  12.643
22549W        W26510   5.737   9.923  13.777
22550W        W26511   4.957   8.563  13.002
22551W        W26512   5.249   9.347  12.645
22552W        W26513   6.246  10.120  14.493
22553W        W26514   5.325   9.440  14.503
22554W        W26515   5.306   9.156  13.981
22555W        W26516   3.715   8.547  14.503
22556W        W26517   6.547  10.082  14.102
22557W        W26518   4.128   7.664  12.100
22558W        W26519   4.655   9.922  13.099
22559W        W26520   7.118   9.705  12.389
22560W        W26521   6.531   8.105  12.956
22561W        W26522   6.816   8.058  11.051
22562W        W26523   7.281   8.859  13.357
22563W        W26524   5.248  10.566  13.110
22564W        W26525   7.022  10.032  11.548
22565W        W26526   4.151  10.818  11.302
22566W        W26527   4.544  10.864  11.978
22567W        W26528   4.341   7.618  13.404
22568W        W26529   6.964   8.636  13.679
22569W        W26530   6.369   9.058  12.138
22570W        W26531   6.335   8.746  11.165
22571W        W26532   5.543   9.890  13.305
22572W        W26533   5.349   8.220  12.504
22573W        W26534   5.949  10.307  13.498
22574W        W26535   6.820   9.098  11.920
22575W        W26536   5.722   7.756  11.936
22576W        W26537   4.379  10.450  11.619
22577W        W26538   3.750   7.949  12.218
22578W        W26539   6.536   8.556  12.692
22579W        W26540   3.994  10.173  12.607
22580W        W26541   5.335  10.523  11.477
22581W        W26542   6.727   8.549  10.941
22582W        W26543   3.750  10.307  13.105
22583W        W26544   4.541   9.879  13.585
22584W        W26545   4.914   9.239  12.204
22585W        W26546   4.936   7.644  13.297
22586W        W26547   7.165   7.406  12.594
22587W        W26548   4.384   9.278  11.062
22588W        W26549   4.039   8.311  11.241
22589W        W26550   4.101  10.267  12.035
22590W        W26551   5.232   9.750  12.283
22591W        W26552   6.564  10.609  13.997
22592W        W26553   5.490   8.251  11.681
22593W        W26554   6.873  10.649  12.453
22594W        W26555   6.550   8.502  14.051
22595W        W26556   7.263  10.158  12.185
22596W        W26557   5.890   9.450  13.669
22597W        W26558   3.656   9.001  11.875
22598W        W26559   4.767   9.416  13.448
22599W        W26560   5.971   8.680  11.826
22600W        W26561   5.848   9.170  11.930
22601W        W26562   4.191   8.590  13.404
22602W        W26563   4.176   8.466  14.326
22603W        W26564   4.066   7.383  12.485
22604W        W26565   5.834   7.730  13.046
22605W        W26566   5.482   7.915  14.209
22606W        W26567   5.837   8.064  11.387
22607W        W26568   7.020  10.457  14.141
22608W        W26569   5.987   7.538  14.180
22609W        W26570   7.006   9.839  14.302
22610W        W26571   6.436   8.006  13.898
22611W        W26572   6.236   7.944  12.168
22612W        W26573   6.629   9.078  14.572
22613W        W26574   4.369  10.654  12.558
22614W        W26575   5.027   8.371  11.544
22615W        W26576   4.596   7.655  14.208
22616W        W26577   6.648   8.139  11.889
22617W        W26578   7.015   8.621  11.834
22618W        W26579   4.758  10.838  14.305
22619W        W26580   4.684   7.374  11.540
22620W        W26581   7.005   7.908  12.575
22621W        W26582   7.155  10.157  11.020
22622W        W26583   4.062   9.360  12.722
22623W        W26584   5.979   7.947  10.952
22624W        W26585   7.113  10.279  12.672
22625W        W26586   7.152   7.473  13.422
22626W        W26587   5.597   8.685  13.976
22627W        W26588   5.690  10.024  11.679
22628W        W26589   6.090   9.318  14.419
22629W        W26590   5.764   7.295  12.728
22630W        W26591   4.376   8.198  12.791
22631W        W26592   3.930   9.398  13.565
22632W        W26593   5.789  10.591  12.271
22633W        W26594   6.983   8.188  13.143
22634W        W26595   5.620  10.535  13.910
22635W        W26596   6.963   9.594  11.115
22636W        W26597   5.398   9.077  12.176
22637W        W26598   7.250   7.588  13.917
22638W        W26599   5.399   9.423  13.511
22639W        W26600   5.616   8.309  12.956
22640W        W26601   6.468   8.607  11.794
22641W        W26602   6.755   8.340  11.436
22642W        W26603   6.564  10.380  11.825
22643W        W26604   6.398   9.983  12.621
22644W        W26605   6.294   9.062  11.599
22645W        W26606   5.727   9.272  12.585
22646W        W26607   6.608   9.060  12.652
22647W        W26608   3.983   8.075  13.076
22648W        W26609   6.761   9.127  13.903
22649W        W26610   7.112  10.745  13.049
22650W        W26611   5.042  10.189  12.451
22651W        W26612   6.049  10.722  13.775
22652W        W26613   6.043   8.052  13.539
22653W        W26614   5.250  10.760  13.600
22654W        W26615   6.947   7.714  12.066
22655W        W26616   6.738   9.033  13.367
22656W        W26617   3.721   8.354  13.405
22657W        W26618   6.581   8.149  12.423
22658W        W26619   6.992   8.300  14.200
22659W        W26620   5.877   9.999  12.418
22660W        W26621   5.133  10.590  12.031
22661W        W26622   4.248   7.770  11.289
22662W        W26623   5.352   7.424  13.099
22663W        W26624   4.380  10.544  10.947
22664W        W26625   4.754   9.010  11.698
22665W        W26626   5.408   9.639  14.011
22666W        W26627   5.238   7.997  12.001
22667W        W26628   6.594   7.594  12.429
22668W        W26629   6.314  10.876  12.757
22669W        W26630   5.726  10.524  13.097
22670W        W26631   5.122   9.561  13.058
22671W        W26632   6.892  10.284  13.184
22672W        W26633   4.586   7.787  11.953
22673W        W26634   5.108  10.084  12.913
22674W        W26635   4.591   8.015  10.978
22675W        W26636   5.392   8.624  13.372
22676W        W26637   6.240   7.490  13.242
22677W        W26638   3.660   9.333  13.127
22678W        W26639   5.364   9.151  11.285
22679W        W26640   4.632   7.466  11.055
22680W        W26641   5.370   8.547  12.106
22681W        W26642   6.340   7.523  13.805
22682W        W26643   4.928   9.535  13.914
22683W        W26644   5.732   9.317  14.131
22684W        W26645   6.349   9.347  14.024
22685W        W26646   5.633   7.487  14.529
22686W        W26647   4.855   8.103  12.922
22687W        W26648   4.281   8.059  12.320
22688W        W26649   4.067  10.771  11.996
22689W        W26650   5.399  10.101  14.121
22690W        W26651   4.434   9.586  11.480
22691W        W26652   6.114   8.971  12.701
22692W        W26653   6.394   8.770  13.100
22693W        W26654   5.599   9.444  13.034
22694W        W26655   6.069   9.818  11.166
22695W        W26656   5.741   7.839  12.494
22696W        W26657   7.220   8.117  11.762
22697W        W26658   3.714  10.706  13.793
22698W        W26659   4.131   9.932  13.325
22699W        W26660   3.698  10.778  11.557
22700W        W26661   5.597   8.048  13.363
22701W        W26662   4.960  10.071  11.212
22702W        W26663   6.865  10.453  11.398
22703W        W26664   5.840   9.106  11.412
22704W        W26665   4.683   8.297  11.929
22705W        W26666   5.515   8.207  10.981
22706W        W26667   6.099   9.772  14.159
22707W        W26668   6.452   7.678  11.776
22708W        W26669   3.782   7.526  11.224
22709W        W26670   5.068   9.845  13.514
22710W        W26671   4.867   9.761  12.606
22711W        W26672   4.609   9.713  11.004
22712W        W26673   3.850   9.954  11.772
22713W        W26674   4.354   9.024  14.214
22714W        W26675   5.058   7.584  14.400
22715W        W26676   5.767   7.726  13.756
22716W        W26677   4.962   7.494  12.037
22717W        W26678   6.021   7.571  11.542
22718W        W26679   3.966   7.503  13.119
22719W        W26680   4.014   8.466  12.489
22720W        W26681   6.703   7.574  12.895
22721W        W26682   4.125   8.072  11.709
22722W        W26683   6.696   7.760  13.325
22723W        W26684   7.092   8.963  11.010
22724W        W26685   4.384   7.721  12.829
22725W        W26686   5.498   8.293  13.769
22726W        W26687   3.646   7.983  11.247
22727W        W26688   4.432   9.372  13.808
22728W        W26689   5.790   8.770  12.987
22729W        W26690   5.657  10.849  11.283
22730W        W26691   3.803   9.356  10.980
22731W        W26692   4.538   9.767  14.106
22732W        W26693   4.059   8.934  13.737
22733W        W26694   5.050   9.039  13.531
22734W        W26695   6.818   7.398  13.793
22735W        W26696   7.216   9.008  13.784
22736W        W26697   7.204   9.208  11.470
22737W        W26698   6.067   9.540  11.569
22738W        W26699   6.541  10.840  11.264
22739W        W26700   5.718   8.830  14.406
22740W        W26701   4.048   9.797  14.446
22741W        W26702   7.254   7.719  14.398
22742W        W26703   6.972   8.647  13.019
22743W        W26704   5.280  10.777  14.496
22744W        W26705   5.135   7.406  11.223
22745W        W26706   6.674  10.005  11.166
22746W        W26707   4.443   8.098  14.052
22747W        W26708   4.877  10.092  13.914
22748W        W26709   7.003   8.083  13.712
22749W        W26710   6.214  10.742  11.680
22750W        W26711   6.453   9.361  13.047
22751W        W26712   4.703   7.777  13.714
22752W        W26713   5.172   8.846  14.471
22753W        W26714   4.675  10.025  11.665
22754W        W26715   6.430   9.523  11.929
22755W        W26716   4.198   8.149  13.653
22756W        W26717   5.527  10.211  12.117
22757W        W26718   7.277   8.771  12.298
22758W        W26719   5.499   7.404  14.017
22759W        W26720   6.279  10.109  13.096
22760W        W26721   6.582  10.453  12.804
22761W        W26722   5.801  10.255  11.232
22762W        W26723   3.811  10.147  14.074
22763W        W26724   4.554   8.139  13.312
22764W        W26725   4.524   7.487  12.422
22765W        W26726   6.145   8.329  13.114
22766W        W26727   4.943   9.500  11.314
22767W        W26728   6.941   9.442  12.813
22768W        W26729   4.268  10.200  14.236
22769W        W26730   6.655  10.882  12.033
22770W        W26731   4.754   7.902  12.478
22771W        W26732   4.523   9.395  12.568
22772W        W26733   4.836  10.806  13.318
22773W        W26734   6.903  10.902  14.350
22774W        W26735   6.062   9.090  13.283
22775W        W26736   3.911   8.888  11.198
22776W        W26737   7.045  10.546  11.895
22777W        W26738   6.882   7.870  11.514
22778W        W26739   5.021   7.389  13.917
22779W        W26740   6.727  10.191  12.375
22780W        W26741   6.756   8.747  12.280
22781W        W26742   4.873   8.420  12.496
22782W        W26743   5.118   8.682  13.820
22783W        W26744   6.229   9.835  13.683
22784W        W26745   4.879   8.289  13.795
22785W        W26746   4.858  10.755  12.411
22786W        W26747   4.175  10.714  14.045
22787W        W26748   4.287  10.075  11.175
22788W        W26749   6.804   9.833  11.985
22789W        W26750   4.408   8.625  13.871
22790W        W26751   7.181   8.555  11.352
22791W        W26752   4.926   9.612  11.823
22792W        W26753   6.025   8.994  13.904
22793W        W26754   5.916   8.622  13.448
22794W        W26755   4.476   8.994  13.477
22795W        W26756   6.686  10.882  13.306
22796W        W26757   6.477   7.516  14.300
22797W        W26758   4.141   7.666  13.887
22798W        W26759   4.480   8.689  12.940
22799W        W26760   4.849   8.503  11.062
22800W        W26761   3.652  10.262  13.607
22801W        W26762   5.237   8.971  13.050
22802W        W26763   5.060   7.996  11.155
22803W        W26764   4.195   8.812  11.936
22804W        W26765   3.966  10.664  13.373
22805W        W26766   6.761   8.890  11.481
22806W        W26767   6.856   7.806  14.167
22807W        W26768   6.292  10.015  12.130
22808W        W26769   3.890   8.939  14.307
22809W        W26770   6.856   7.403  11.603
22810W        W26771   6.376   9.878  11.614
22811W        W26772   5.278   8.936  11.699
22812W        W26773   6.465   7.740  11.222
22813W        W26774   6.530   8.347  13.408
22814W        W26775   4.239   8.940  12.615
22815W        W26776   4.533   9.879  12.264
22816W        W26777   6.296   8.499  12.229
22817W        W26778   5.319   7.878  12.925
22818W        W26779   7.281   9.789  13.436
22819W        W26780   7.199   7.776  12.997
22820W        W26781   3.738  10.606  12.373
22821W        W26782   4.247   9.793  11.909
22822W        W26783   4.162   7.410  14.462
22823W        W26784   5.281  10.263  14.564
22824W        W26785   7.036   9.231  12.354
22825W        W26786   6.390   9.408  11.234
22826W        W26787   5.685  10.929  13.446
22827W        W26788   6.542   9.651  14.483
22828W        W26789   5.357   7.361  11.763
22829W        W26790   6.070   8.230  12.622
22830W        W26791   3.756   9.817  12.954
22831W        W26792   5.009   7.779  11.595
22832W        W26793   4.813   9.263  14.444
22833W        W26794   5.807   8.244  12.158
22834W        W26795   6.012   9.654  13.280
22835W        W26796   4.166  10.259  13.715
22836W        W26797   4.757  10.242  14.438
22837W        W26798   4.608   8.039  11.452
22838W        W26799   6.125   8.181  11.777
22839W        W26800   6.083  10.289  14.014
22840W        W26801   4.768   8.881  12.613
22841W        W26802   4.423  10.579  13.478
22842W        W26803   7.168  10.696  11.079
22843W        W26804   4.031   9.368  14.075
22844W        W26805   6.026   9.630  12.763
22845W        W26806   4.462   9.279  12.005
22846W        W26807   4.833  10.286  13.400
22847W        W26808   5.211   7.705  12.441
22848W        W26809   3.822   9.689  11.371
22849W        W26810   5.341   8.640  11.241
22850W        W26811   3.987   9.189  12.260
22851W        W26812   5.277   7.831  13.724
22852W        W26813   6.949   7.540  11.151
22853W        W26814   7.042   9.286  14.250
22854W        W26815   5.696  10.543  14.402
22855W        W26816   7.254   9.637  13.924
22856W        W26817   6.662  10.435  14.535
22857W        W26818   4.401  10.891  13.013
22858W        W26819   7.260   9.513  11.887
22859W        W26820   5.790   8.780  12.400
22860W        W26821   5.557   7.392  12.290
22861W        W26822   4.616  10.376  12.127
22862W        W26823   5.115   8.117  13.352
22863W        W26824   4.815   7.486  12.821
22864W        W26825   3.878  10.308  11.369
22865W        W26826   5.694   9.672  12.087
22866W        W26827   4.569  10.467  13.966
22867W        W26828   4.046   9.290  11.662
22868W        W26829   3.931   7.833  12.661
22869W        W26830   5.479   9.798  12.718
22870W        W26831   3.731   7.652  11.738
22871W        W26832   6.395   8.858  13.665
22872W        W26833   6.272   8.244  11.237
22873W        W26834   6.789   9.916  12.885
22874W        W26835   5.450  10.400  12.716
22875W        W26836   4.862  10.504  11.627
22876W        W26837   6.144   7.407  11.057
22877W        W26838   3.944  10.667  12.798
22878W        W26839   6.141   8.425  14.433
22879W        W26840   4.124   7.955  14.432
22880W        W26841   3.855   8.555  11.765
22881W        W26842   4.546   8.544  11.490
22882W        W26843   6.309   8.871  14.307
22883W        W26844   4.652   9.152  13.016
22884W        W26845   6.126   7.438  12.136
22885W        W26846   5.257  10.869  12.639
22886W        W26847   6.471  10.331  13.576
22887W        W26848   6.055  10.480  12.687
22888W        W26849   6.074   9.460  12.281
22889W        W26850   5.536   7.685  11.352
22890W        W26851   7.217   7.313  12.074
22891W        W26852   4.905   8.948  11.237
22892W        W26853   7.071   8.285  12.227
22893W        W26854   5.763   9.455  11.104
22894W        W26855   6.699   9.655  13.852
22895W        W26856   6.353  10.356  11.319
22896W        W26857   4.968   8.031  14.225
22897W        W26858   4.788   8.615  13.466
22898W        W26859   6.880  10.110  13.743
22899W        W26860   5.980   8.060  14.120
22900W        W26861   3.824   8.531  13.897
22901W        W26862   5.584   9.008  13.623
22902W        W26863   3.941   9.766  12.280
22903W        W26864   4.088   9.063  13.170
22904W        W26865   6.405   9.349  13.520
22905W        W26866   6.177  10.729  14.331
22906W        W26867   6.073   8.468  13.884
22907W        W26868   6.350  10.522  12.289
22908W        W26869   5.352  10.242  13.612
22909W        W26870   4.837  10.597  12.881
22910W        W26871   6.642   9.768  13.300
22911W        W26872   5.692   9.840  14.437
22912W        W26873   4.297   9.793  12.776
22913W        W26874   6.643   9.552  12.421
22914W        W26875   6.284  10.618  13.172
22915W        W26876   4.262  10.347  13.042
22916W        W26877   5.283   8.399  14.252
22917W        W26878   5.734  10.565  11.763
22918W        W26879   5.042   9.820  14.401
22919W        W26880   5.168  10.058  11.778
22920W        W26881   4.389   8.798  11.037
22921W        W26882   3.728  10.884  17.936
22922W        W26883   4.104   9.777  17.459
22923W        W26884   6.809   9.507  15.229
22924W        W26885   6.939  10.592  17.256
22925W        W26886   4.857  10.583  14.782
22926W        W26887   4.940   8.735  15.765
22927W        W26888   4.455   8.583  15.929
22928W        W26889   5.446   9.398  15.363
22929W        W26890   5.121  10.490  17.718
22930W        W26891   3.770   8.051  17.681
22931W        W26892   4.532   7.331  17.483
22932W        W26893   6.226   7.719  16.370
22933W        W26894   5.875   8.590  14.940
22934W        W26895   6.445   8.024  18.031
22935W        W26896   3.811   7.816  17.156
22936W        W26897   3.910  10.435  18.177
22937W        W26898   5.432   9.825  14.909
22938W        W26899   3.864   8.608  16.602
22939W        W26900   4.757   8.499  17.839
22940W        W26901   7.216   8.358  16.338
22941W        W26902   6.980   9.401  17.197
22942W        W26903   5.288   8.734  16.224
22943W        W26904   5.834  10.073  16.593
22944W        W26905   4.334   9.507  16.825
22945W        W26906   3.693   9.035  16.396
22946W        W26907   4.729   9.007  17.588
22947W        W26908   7.000   8.790  17.842
22948W        W26909   4.616  10.234  16.287
22949W        W26910   5.737   9.923  17.421
22950W        W26911   4.957   8.563  16.646
22951W        W26912   5.249   9.347  16.289
22952W        W26913   6.246  10.120  18.137
22953W        W26914   5.325   9.440  18.147
22954W        W26915   5.306   9.156  17.625
22955W        W26916   3.715   8.547  18.147
22956W        W26917   6.547  10.082  17.746
22957W        W26918   4.128   7.664  15.744
22958W        W26919   4.655   9.922  16.743
22959W        W26920   7.118   9.705  16.033
22960W        W26921   6.531   8.105  16.600
22961W        W26922   6.816   8.058  14.695
22962W        W26923   7.281   8.859  17.001
22963W        W26924   5.248  10.566  16.754
22964W        W26925   7.022  10.032  15.192
22965W        W26926   4.151  10.818  14.946
22966W        W26927   4.544  10.864  15.622
22967W        W26928   4.341   7.618  17.048
22968W        W26929   6.964   8.636  17.323
22969W        W26930   6.369   9.058  15.782
22970W        W26931   6.335   8.746  14.809
22971W        W26932   5.543   9.890  16.949
22972W        W26933   5.349   8.220  16.148
22973W        W26934   5.949  10.307  17.142
22974W        W26935   6.820   9.098  15.564
22975W        W26936   5.722   7.756  15.580
22976W        W26937   4.379  10.450  15.263
22977W        W26938   3.750   7.949  15.862
22978W        W26939   6.536   8.556  16.336
22979W        W26940   3.994  10.173  16.251
22980W        W26941   5.335  10.523  15.121
22981W        W26942   6.727   8.549  14.585
22982W        W26943   3.750  10.307  16.749
22983W        W26944   4.541   9.879  17.229
22984W        W26945   4.914   9.239  15.848
22985W        W26946   4.936   7.644  16.941
22986W        W26947   7.165   7.406  16.238
22987W        W26948   4.384   9.278  14.706
22988W        W26949   4.039   8.311  14.885
22989W        W26950   4.101  10.267  15.679
22990W        W26951   5.232   9.750  15.927
22991W        W26952   6.564  10.609  17.641
22992W        W26953   5.490   8.251  15.325
22993W        W26954   6.873  10.649  16.097
22994W        W26955   6.550   8.502  17.695
22995W        W26956   7.263  10.158  15.829
22996W        W26957   5.890   9.450  17.313
22997W        W26958   3.656   9.001  15.519
22998W        W26959   4.767   9.416  17.092
22999W        W26960   5.971   8.680  15.470
23000W        W26961   5.848   9.170  15.574
23001W        W26962   4.191   8.590  17.048
23002W        W26963   4.176   8.466  17.970
23003W        W26964   4.066   7.383  16.129
23004W        W26965   5.834   7.730  16.690
23005W        W26966   5.482   7.915  17.853
23006W        W26967   5.837   8.064  15.031
23007W        W26968   7.020  10.457  17.785
23008W        W26969   5.987   7.538  17.824
23009W        W26970   7.006   9.839  17.946
23010W        W26971   6.436   8.006  17.542
23011W        W26972   6.236   7.944  15.812
23012W        W26973   6.629   9.078  18.216
23013W        W26974   4.369  10.654  16.202
23014W        W26975   5.027   8.371  15.188
23015W        W26976   4.596   7.655  17.852
23016W        W26977   6.648   8.139  15.533
23017W        W26978   7.015   8.621  15.478
23018W        W26979   4.758  10.838  17.949
23019W        W26980   4.684   7.374  15.184
23020W        W26981   7.005   7.908  16.219
23021W        W26982   7.155  10.157  14.664
23022W        W26983   4.062   9.360  16.366
23023W        W26984   5.979   7.947  14.596
23024W        W26985   7.113  10.279  16.316
23025W        W26986   7.152   7.473  17.066
23026W        W26987   5.597   8.685  17.620
23027W        W26988   5.690  10.024  15.323
23028W        W26989   6.090   9.318  18.063
23029W        W26990   5.764   7.295  16.372
23030W        W26991   4.376   8.198  16.435
23031W        W26992   3.930   9.398  17.209
23032W        W26993   5.789  10.591  15.915
23033W        W26994   6.983   8.188  16.787
23034W        W26995   5.620  10.535  17.554
23035W        W26996   6.963   9.594  14.759
23036W        W26997   5.398   9.077  15.820
23037W        W26998   7.250   7.588  17.561
23038W        W26999   5.399   9.423  17.155
23039W        W27000   5.616   8.309  16.600
23040W        W27001   6.468   8.607  15.438
23041W        W27002   6.755   8.340  15.080
23042W        W27003   6.564  10.380  15.469
23043W        W27004   6.398   9.983  16.265
23044W        W27005   6.294   9.062  15.243
23045W        W27006   5.727   9.272  16.229
23046W        W27007   6.608   9.060  16.296
23047W        W27008   3.983   8.075  16.720
23048W        W27009   6.761   9.127  17.547
23049W        W27010   7.112  10.745  16.693
23050W        W27011   5.042  10.189  16.095
23051W        W27012   6.049  10.722  17.419
23052W        W27013   6.043   8.052  17.183
23053W        W27014   5.250  10.760  17.244
23054W        W27015   6.947   7.714  15.710
23055W        W27016   6.738   9.033  17.011
23056W        W27017   3.721   8.354  17.049
23057W        W27018   6.581   8.149  16.067
23058W        W27019   6.992   8.300  17.844
23059W        W27020   5.877   9.999  16.062
23060W        W27021   5.133  10.590  15.675
23061W        W27022   4.248   7.770  14.933
23062W        W27023   5.352   7.424  16.743
23063W        W27024   4.380  10.544  14.591
23064W        W27025   4.754   9.010  15.342
23065W        W27026   5.408   9.639  17.655
23066W        W27027   5.238   7.997  15.645
23067W        W27028   6.594   7.594  16.073
23068W        W27029   6.314  10.876  16.401
23069W        W27030   5.726  10.524  16.741
23070W        W27031   5.122   9.561  16.702
23071W        W27032   6.892  10.284  16.828
23072W        W27033   4.586   7.787  15.597
23073W        W27034   5.108  10.084  16.557
23074W        W27035   4.591   8.015  14.622
23075W        W27036   5.392   8.624  17.016
23076W        W27037   6.240   7.490  16.886
23077W        W27038   3.660   9.333  16.771
23078W        W27039   5.364   9.151  14.929
23079W        W27040   4.632   7.466  14.699
23080W        W27041   5.370   8.547  15.750
23081W        W27042   6.340   7.523  17.449
23082W        W27043   4.928   9.535  17.558
23083W        W27044   5.732   9.317  17.775
23084W        W27045   6.349   9.347  17.668
23085W        W27046   5.633   7.487  18.173
23086W        W27047   4.855   8.103  16.566
23087W        W27048   4.281   8.059  15.964
23088W        W27049   4.067  10.771  15.640
23089W        W27050   5.399  10.101  17.765
23090W        W27051   4.434   9.586  15.124
23091W        W27052   6.114   8.971  16.345
23092W        W27053   6.394   8.770  16.744
23093W        W27054   5.599   9.444  16.678
23094W        W27055   6.069   9.818  14.810
23095W        W27056   5.741   7.839  16.138
23096W        W27057   7.220   8.117  15.406
23097W        W27058   3.714  10.706  17.437
23098W        W27059   4.131   9.932  16.969
23099W        W27060   3.698  10.778  15.201
23100W        W27061   5.597   8.048  17.007
23101W        W27062   4.960  10.071  14.856
23102W        W27063   6.865  10.453  15.042
23103W        W27064   5.840   9.106  15.056
23104W        W27065   4.683   8.297  15.573
23105W        W27066   5.515   8.207  14.625
23106W        W27067   6.099   9.772  17.803
23107W        W27068   6.452   7.678  15.420
23108W        W27069   3.782   7.526  14.868
23109W        W27070   5.068   9.845  17.158
23110W        W27071   4.867   9.761  16.250
23111W        W27072   4.609   9.713  14.648
23112W        W27073   3.850   9.954  15.416
23113W        W27074   4.354   9.024  17.858
23114W        W27075   5.058   7.584  18.044
23115W        W27076   5.767   7.726  17.400
23116W        W27077   4.962   7.494  15.681
23117W        W27078   6.021   7.571  15.186
23118W        W27079   3.966   7.503  16.763
23119W        W27080   4.014   8.466  16.133
23120W        W27081   6.703   7.574  16.539
23121W        W27082   4.125   8.072  15.353
23122W        W27083   6.696   7.760  16.969
23123W        W27084   7.092   8.963  14.654
23124W        W27085   4.384   7.721  16.473
23125W        W27086   5.498   8.293  17.413
23126W        W27087   3.646   7.983  14.891
23127W        W27088   4.432   9.372  17.452
23128W        W27089   5.790   8.770  16.631
23129W        W27090   5.657  10.849  14.927
23130W        W27091   3.803   9.356  14.624
23131W        W27092   4.538   9.767  17.750
23132W        W27093   4.059   8.934  17.381
23133W        W27094   5.050   9.039  17.175
23134W        W27095   6.818   7.398  17.437
23135W        W27096   7.216   9.008  17.428
23136W        W27097   7.204   9.208  15.114
23137W        W27098   6.067   9.540  15.213
23138W        W27099   6.541  10.840  14.908
23139W        W27100   5.718   8.830  18.050
23140W        W27101   4.048   9.797  18.090
23141W        W27102   7.254   7.719  18.042
23142W        W27103   6.972   8.647  16.663
23143W        W27104   5.280  10.777  18.140
23144W        W27105   5.135   7.406  14.867
23145W        W27106   6.674  10.005  14.810
23146W        W27107   4.443   8.098  17.696
23147W        W27108   4.877  10.092  17.558
23148W        W27109   7.003   8.083  17.356
23149W        W27110   6.214  10.742  15.324
23150W        W27111   6.453   9.361  16.691
23151W        W27112   4.703   7.777  17.358
23152W        W27113   5.172   8.846  18.115
23153W        W27114   4.675  10.025  15.309
23154W        W27115   6.430   9.523  15.573
23155W        W27116   4.198   8.149  17.297
23156W        W27117   5.527  10.211  15.761
23157W        W27118   7.277   8.771  15.942
23158W        W27119   5.499   7.404  17.661
23159W        W27120   6.279  10.109  16.740
23160W        W27121   6.582  10.453  16.448
23161W        W27122   5.801  10.255  14.876
23162W        W27123   3.811  10.147  17.718
23163W        W27124   4.554   8.139  16.956
23164W        W27125   4.524   7.487  16.066
23165W        W27126   6.145   8.329  16.758
23166W        W27127   4.943   9.500  14.958
23167W        W27128   6.941   9.442  16.457
23168W        W27129   4.268  10.200  17.880
23169W        W27130   6.655  10.882  15.677
23170W        W27131   4.754   7.902  16.122
23171W        W27132   4.523   9.395  16.212
23172W        W27133   4.836  10.806  16.962
23173W        W27134   6.903  10.902  17.994
23174W        W27135   6.062   9.090  16.927
23175W        W27136   3.911   8.888  14.842
23176W        W27137   7.045  10.546  15.539
23177W        W27138   6.882   7.870  15.158
23178W        W27139   5.021   7.389  17.561
23179W        W27140   6.727  10.191  16.019
23180W        W27141   6.756   8.747  15.924
23181W        W27142   4.873   8.420  16.140
23182W        W27143   5.118   8.682  17.464
23183W        W27144   6.229   9.835  17.327
23184W        W27145   4.879   8.289  17.439
23185W        W27146   4.858  10.755  16.055
23186W        W27147   4.175  10.714  17.689
23187W        W27148   4.287  10.075  14.819
23188W        W27149   6.804   9.833  15.629
23189W        W27150   4.408   8.625  17.515
23190W        W27151   7.181   8.555  14.996
23191W        W27152   4.926   9.612  15.467
23192W        W27153   6.025   8.994  17.548
23193W        W27154   5.916   8.622  17.092
23194W        W27155   4.476   8.994  17.121
23195W        W27156   6.686  10.882  16.950
23196W        W27157   6.477   7.516  17.944
23197W        W27158   4.141   7.666  17.531
23198W        W27159   4.480   8.689  16.584
23199W        W27160   4.849   8.503  14.706
23200W        W27161   3.652  10.262  17.251
23201W        W27162   5.237   8.971  16.694
23202W        W27163   5.060   7.996  14.799
23203W        W27164   4.195   8.812  15.580
23204W        W27165   3.966  10.664  17.017
23205W        W27166   6.761   8.890  15.125
23206W        W27167   6.856   7.806  17.811
23207W        W27168   6.292  10.015  15.774
23208W        W27169   3.890   8.939  17.951
23209W        W27170   6.856   7.403  15.247
23210W        W27171   6.376   9.878  15.258
23211W        W27172   5.278   8.936  15.343
23212W        W27173   6.465   7.740  14.866
23213W        W27174   6.530   8.347  17.052
23214W        W27175   4.239   8.940  16.259
23215W        W27176   4.533   9.879  15.908
23216W        W27177   6.296   8.499  15.873
23217W        W27178   5.319   7.878  16.569
23218W        W27179   7.281   9.789  17.080
23219W        W27180   7.199   7.776  16.641
23220W        W27181   3.738  10.606  16.017
23221W        W27182   4.247   9.793  15.553
23222W        W27183   4.162   7.410  18.106
23223W        W27184   5.281  10.263  18.208
23224W        W27185   7.036   9.231  15.998
23225W        W27186   6.390   9.408  14.878
23226W        W27187   5.685  10.929  17.090
23227W        W27188   6.542   9.651  18.127
23228W        W27189   5.357   7.361  15.407
23229W        W27190   6.070   8.230  16.266
23230W        W27191   3.756   9.817  16.598
23231W        W27192   5.009   7.779  15.239
23232W        W27193   4.813   9.263  18.088
23233W        W27194   5.807   8.244  15.802
23234W        W27195   6.012   9.654  16.924
23235W        W27196   4.166  10.259  17.359
23236W        W27197   4.757  10.242  18.082
23237W        W27198   4.608   8.039  15.096
23238W        W27199   6.125   8.181  15.421
23239W        W27200   6.083  10.289  17.658
23240W        W27201   4.768   8.881  16.257
23241W        W27202   4.423  10.579  17.122
23242W        W27203   7.168  10.696  14.723
23243W        W27204   4.031   9.368  17.719
23244W        W27205   6.026   9.630  16.407
23245W        W27206   4.462   9.279  15.649
23246W        W27207   4.833  10.286  17.044
23247W        W27208   5.211   7.705  16.085
23248W        W27209   3.822   9.689  15.015
23249W        W27210   5.341   8.640  14.885
23250W        W27211   3.987   9.189  15.904
23251W        W27212   5.277   7.831  17.368
23252W        W27213   6.949   7.540  14.795
23253W        W27214   7.042   9.286  17.894
23254W        W27215   5.696  10.543  18.046
23255W        W27216   7.254   9.637  17.568
23256W        W27217   6.662  10.435  18.179
23257W        W27218   4.401  10.891  16.657
23258W        W27219   7.260   9.513  15.531
23259W        W27220   5.790   8.780  16.044
23260W        W27221   5.557   7.392  15.934
23261W        W27222   4.616  10.376  15.771
23262W        W27223   5.115   8.117  16.996
23263W        W27224   4.815   7.486  16.465
23264W        W27225   3.878  10.308  15.013
23265W        W27226   5.694   9.672  15.731
23266W        W27227   4.569  10.467  17.610
23267W        W27228   4.046   9.290  15.306
23268W        W27229   3.931   7.833  16.305
23269W        W27230   5.479   9.798  16.362
23270W        W27231   3.731   7.652  15.382
23271W        W27232   6.395   8.858  17.309
23272W        W27233   6.272   8.244  14.881
23273W        W27234   6.789   9.916  16.529
23274W        W27235   5.450  10.400  16.360
23275W        W27236   4.862  10.504  15.271
23276W        W27237   6.144   7.407  14.701
23277W        W27238   3.944  10.667  16.442
23278W        W27239   6.141   8.425  18.077
23279W        W27240   4.124   7.955  18.076
23280W        W27241   3.855   8.555  15.409
23281W        W27242   4.546   8.544  15.134
23282W        W27243   6.309   8.871  17.951
23283W        W27244   4.652   9.152  16.660
23284W        W27245   6.126   7.438  15.780
23285W        W27246   5.257  10.869  16.283
23286W        W27247   6.471  10.331  17.220
23287W        W27248   6.055  10.480  16.331
23288W        W27249   6.074   9.460  15.925
23289W        W27250   5.536   7.685  14.996
23290W        W27251   7.217   7.313  15.718
23291W        W27252   4.905   8.948  14.881
23292W        W27253   7.071   8.285  15.871
23293W        W27254   5.763   9.455  14.748
23294W        W27255   6.699   9.655  17.496
23295W        W27256   6.353  10.356  14.963
23296W        W27257   4.968   8.031  17.869
23297W        W27258   4.788   8.615  17.110
23298W        W27259   6.880  10.110  17.387
23299W        W27260   5.980   8.060  17.764
23300W        W27261   3.824   8.531  17.541
23301W        W27262   5.584   9.008  17.267
23302W        W27263   3.941   9.766  15.924
23303W        W27264   4.088   9.063  16.814
23304W        W27265   6.405   9.349  17.164
23305W        W27266   6.177  10.729  17.975
23306W        W27267   6.073   8.468  17.528
23307W        W27268   6.350  10.522  15.933
23308W        W27269   5.352  10.242  17.256
23309W        W27270   4.837  10.597  16.525
23310W        W27271   6.642   9.768  16.944
23311W        W27272   5.692   9.840  18.081
23312W        W27273   4.297   9.793  16.420
23313W        W27274   6.643   9.552  16.065
23314W        W27275   6.284  10.618  16.816
23315W        W27276   4.262  10.347  16.686
23316W        W27277   5.283   8.399  17.896
23317W        W27278   5.734  10.565  15.407
23318W        W27279   5.042   9.820  18.045
23319W        W27280   5.168  10.058  15.422
23320W        W27281   4.389   8.798  14.681
23321W        W27282   3.728  10.884  21.580
23322W        W27283   4.104   9.777  21.103
23323W        W27284   6.809   9.507  18.873
23324W        W27285   6.939  10.592  20.900
23325W        W27286   4.857  10.583  18.426
23326W        W27287   4.940   8.735  19.409
23327W        W27288   4.455   8.583  19.573
23328W        W27289   5.446   9.398  19.007
23329W        W27290   5.121  10.490  21.362
23330W        W27291   3.770   8.051  21.325
23331W        W27292   4.532   7.331  21.127
23332W        W27293   6.226   7.719  20.014
23333W        W27294   5.875   8.590  18.584
23334W        W27295   6.445   8.024  21.675
23335W        W27296   3.811   7.816  20.800
23336W        W27297   3.910  10.435  21.821
23337W        W27298   5.432   9.825  18.553
23338W        W27299   3.864   8.608  20.246
23339W        W27300   4.757   8.499  21.483
23340W        W27301   7.216   8.358  19.982
23341W        W27302   6.980   9.401  20.841
23342W        W27303   5.288   8.734  19.868
23343W        W27304   5.834  10.073  20.237
23344W        W27305   4.334   9.507  20.469
23345W        W27306   3.693   9.035  20.040
23346W        W27307   4.729   9.007  21.232
23347W        W27308   7.000   8.790  21.486
23348W        W27309   4.616  10.234  19.931
23349W        W27310   5.737   9.923  21.065
23350W        W27311   4.957   8.563  20.290
23351W        W27312   5.249   9.347  19.933
23352W        W27313   6.246  10.120  21.781
23353W        W27314   5.325   9.440  21.791
23354W        W27315   5.306   9.156  21.269
23355W        W27316   3.715   8.547  21.791
23356W        W27317   4.128   7.664  19.388
23357W        W27318   4.655   9.922  20.387
23358W        W27319   7.118   9.705  19.677
23359W        W27320   6.531   8.105  20.244
23360W        W27321   6.816   8.058  18.339
23361W        W27322   7.281   8.859  20.645
23362W        W27323   5.248  10.566  20.398
23363W        W27324   7.022  10.032  18.836
23364W        W27325   4.151  10.818  18.590
23365W        W27326   4.544  10.864  19.266
23366W        W27327   4.341   7.618  20.692
23367W        W27328   6.964   8.636  20.967
23368W        W27329   6.369   9.058  19.426
23369W        W27330   6.335   8.746  18.453
23370W        W27331   5.543   9.890  20.593
23371W        W27332   5.349   8.220  19.792
23372W        W27333   5.949  10.307  20.786
23373W        W27334   6.820   9.098  19.208
23374W        W27335   5.722   7.756  19.224
23375W        W27336   4.379  10.450  18.907
23376W        W27337   3.750   7.949  19.506
23377W        W27338   6.536   8.556  19.980
23378W        W27339   3.994  10.173  19.895
23379W        W27340   5.335  10.523  18.765
23380W        W27341   6.727   8.549  18.229
23381W        W27342   3.750  10.307  20.393
23382W        W27343   4.541   9.879  20.873
23383W        W27344   4.914   9.239  19.492
23384W        W27345   4.936   7.644  20.585
23385W        W27346   7.165   7.406  19.882
23386W        W27347   4.384   9.278  18.350
23387W        W27348   4.039   8.311  18.529
23388W        W27349   4.101  10.267  19.323
23389W        W27350   5.232   9.750  19.571
23390W        W27351   5.490   8.251  18.969
23391W        W27352   6.873  10.649  19.741
23392W        W27353   6.550   8.502  21.339
23393W        W27354   7.263  10.158  19.473
23394W        W27355   5.890   9.450  20.957
23395W        W27356   3.656   9.001  19.163
23396W        W27357   4.767   9.416  20.736
23397W        W27358   5.971   8.680  19.114
23398W        W27359   5.848   9.170  19.218
23399W        W27360   4.191   8.590  20.692
23400W        W27361   4.176   8.466  21.614
23401W        W27362   4.066   7.383  19.773
23402W        W27363   5.834   7.730  20.334
23403W        W27364   5.482   7.915  21.497
23404W        W27365   5.837   8.064  18.675
23405W        W27366   5.987   7.538  21.468
23406W        W27367   7.006   9.839  21.590
23407W        W27368   6.436   8.006  21.186
23408W        W27369   6.236   7.944  19.456
23409W        W27370   6.629   9.078  21.860
23410W        W27371   4.369  10.654  19.846
23411W        W27372   5.027   8.371  18.832
23412W        W27373   4.596   7.655  21.496
23413W        W27374   6.648   8.139  19.177
23414W        W27375   7.015   8.621  19.122
23415W        W27376   4.758  10.838  21.593
23416W        W27377   4.684   7.374  18.828
23417W        W27378   7.005   7.908  19.863
23418W        W27379   7.155  10.157  18.308
23419W        W27380   4.062   9.360  20.010
23420W        W27381   5.979   7.947  18.240
23421W        W27382   7.113  10.279  19.960
23422W        W27383   7.152   7.473  20.710
23423W        W27384   5.597   8.685  21.264
23424W        W27385   5.690  10.024  18.967
23425W        W27386   6.090   9.318  21.707
23426W        W27387   5.764   7.295  20.016
23427W        W27388   4.376   8.198  20.079
23428W        W27389   3.930   9.398  20.853
23429W        W27390   5.789  10.591  19.559
23430W        W27391   6.983   8.188  20.431
23431W        W27392   5.620  10.535  21.198
23432W        W27393   6.963   9.594  18.403
23433W        W27394   5.398   9.077  19.464
23434W        W27395   7.250   7.588  21.205
23435W        W27396   5.399   9.423  20.799
23436W        W27397   5.616   8.309  20.244
23437W        W27398   6.468   8.607  19.082
23438W        W27399   6.755   8.340  18.724
23439W        W27400   6.564  10.380  19.113
23440W        W27401   6.398   9.983  19.909
23441W        W27402   6.294   9.062  18.887
23442W        W27403   5.727   9.272  19.873
23443W        W27404   6.608   9.060  19.940
23444W        W27405   3.983   8.075  20.364
23445W        W27406   6.761   9.127  21.191
23446W        W27407   7.112  10.745  20.337
23447W        W27408   5.042  10.189  19.739
23448W        W27409   6.049  10.722  21.063
23449W        W27410   6.043   8.052  20.827
23450W        W27411   5.250  10.760  20.888
23451W        W27412   6.947   7.714  19.354
23452W        W27413   6.738   9.033  20.655
23453W        W27414   3.721   8.354  20.693
23454W        W27415   6.581   8.149  19.711
23455W        W27416   6.992   8.300  21.488
23456W        W27417   5.877   9.999  19.706
23457W        W27418   5.133  10.590  19.319
23458W        W27419   4.248   7.770  18.577
23459W        W27420   5.352   7.424  20.387
23460W        W27421   4.380  10.544  18.235
23461W        W27422   4.754   9.010  18.986
23462W        W27423   5.408   9.639  21.299
23463W        W27424   5.238   7.997  19.289
23464W        W27425   6.594   7.594  19.717
23465W        W27426   6.314  10.876  20.045
23466W        W27427   5.726  10.524  20.385
23467W        W27428   5.122   9.561  20.346
23468W        W27429   6.892  10.284  20.472
23469W        W27430   4.586   7.787  19.241
23470W        W27431   5.108  10.084  20.201
23471W        W27432   4.591   8.015  18.266
23472W        W27433   5.392   8.624  20.660
23473W        W27434   6.240   7.490  20.530
23474W        W27435   3.660   9.333  20.415
23475W        W27436   5.364   9.151  18.573
23476W        W27437   4.632   7.466  18.343
23477W        W27438   5.370   8.547  19.394
23478W        W27439   6.340   7.523  21.093
23479W        W27440   4.928   9.535  21.202
23480W        W27441   5.732   9.317  21.419
23481W        W27442   6.349   9.347  21.312
23482W        W27443   5.633   7.487  21.817
23483W        W27444   4.855   8.103  20.210
23484W        W27445   4.281   8.059  19.608
23485W        W27446   4.067  10.771  19.284
23486W        W27447   5.399  10.101  21.409
23487W        W27448   4.434   9.586  18.768
23488W        W27449   6.114   8.971  19.989
23489W        W27450   6.394   8.770  20.388
23490W        W27451   5.599   9.444  20.322
23491W        W27452   6.069   9.818  18.454
23492W        W27453   5.741   7.839  19.782
23493W        W27454   7.220   8.117  19.050
23494W        W27455   3.714  10.706  21.081
23495W        W27456   4.131   9.932  20.613
23496W        W27457   3.698  10.778  18.845
23497W        W27458   5.597   8.048  20.651
23498W        W27459   4.960  10.071  18.500
23499W        W27460   6.865  10.453  18.686
23500W        W27461   5.840   9.106  18.700
23501W        W27462   4.683   8.297  19.217
23502W        W27463   5.515   8.207  18.269
23503W        W27464   6.099   9.772  21.447
23504W        W27465   6.452   7.678  19.064
23505W        W27466   3.782   7.526  18.512
23506W        W27467   5.068   9.845  20.802
23507W        W27468   4.867   9.761  19.894
23508W        W27469   4.609   9.713  18.292
23509W        W27470   3.850   9.954  19.060
23510W        W27471   4.354   9.024  21.502
23511W        W27472   5.058   7.584  21.688
23512W        W27473   5.767   7.726  21.044
23513W        W27474   4.962   7.494  19.325
23514W        W27475   6.021   7.571  18.830
23515W        W27476   3.966   7.503  20.407
23516W        W27477   4.014   8.466  19.777
23517W        W27478   6.703   7.574  20.183
23518W        W27479   4.125   8.072  18.997
23519W        W27480   6.696   7.760  20.613
23520W        W27481   7.092   8.963  18.298
23521W        W27482   4.384   7.721  20.117
23522W        W27483   5.498   8.293  21.057
23523W        W27484   3.646   7.983  18.535
23524W        W27485   4.432   9.372  21.096
23525W        W27486   5.790   8.770  20.275
23526W        W27487   5.657  10.849  18.571
23527W        W27488   3.803   9.356  18.268
23528W        W27489   4.538   9.767  21.394
23529W        W27490   4.059   8.934  21.025
23530W        W27491   5.050   9.039  20.819
23531W        W27492   6.818   7.398  21.081
23532W        W27493   7.216   9.008  21.072
23533W        W27494   7.204   9.208  18.758
23534W        W27495   6.067   9.540  18.857
23535W        W27496   6.541  10.840  18.552
23536W        W27497   5.718   8.830  21.694
23537W        W27498   4.048   9.797  21.734
23538W        W27499   7.254   7.719  21.686
23539W        W27500   6.972   8.647  20.307
23540W        W27501   5.280  10.777  21.784
23541W        W27502   5.135   7.406  18.511
23542W        W27503   6.674  10.005  18.454
23543W        W27504   4.443   8.098  21.340
23544W        W27505   4.877  10.092  21.202
23545W        W27506   7.003   8.083  21.000
23546W        W27507   6.214  10.742  18.968
23547W        W27508   6.453   9.361  20.335
23548W        W27509   4.703   7.777  21.002
23549W        W27510   5.172   8.846  21.759
23550W        W27511   4.675  10.025  18.953
23551W        W27512   6.430   9.523  19.217
23552W        W27513   4.198   8.149  20.941
23553W        W27514   5.527  10.211  19.405
23554W        W27515   7.277   8.771  19.586
23555W        W27516   5.499   7.404  21.305
23556W        W27517   6.279  10.109  20.384
23557W        W27518   6.582  10.453  20.092
23558W        W27519   5.801  10.255  18.520
23559W        W27520   3.811  10.147  21.362
23560W        W27521   4.554   8.139  20.600
23561W        W27522   4.524   7.487  19.710
23562W        W27523   6.145   8.329  20.402
23563W        W27524   4.943   9.500  18.602
23564W        W27525   6.941   9.442  20.101
23565W        W27526   4.268  10.200  21.524
23566W        W27527   6.655  10.882  19.321
23567W        W27528   4.754   7.902  19.766
23568W        W27529   4.523   9.395  19.856
23569W        W27530   4.836  10.806  20.606
23570W        W27531   6.903  10.902  21.638
23571W        W27532   6.062   9.090  20.571
23572W        W27533   3.911   8.888  18.486
23573W        W27534   7.045  10.546  19.183
23574W        W27535   6.882   7.870  18.802
23575W        W27536   5.021   7.389  21.205
23576W        W27537   6.727  10.191  19.663
23577W        W27538   6.756   8.747  19.568
23578W        W27539   4.873   8.420  19.784
23579W        W27540   5.118   8.682  21.108
23580W        W27541   6.229   9.835  20.971
23581W        W27542   4.879   8.289  21.083
23582W        W27543   4.858  10.755  19.699
23583W        W27544   4.175  10.714  21.333
23584W        W27545   4.287  10.075  18.463
23585W        W27546   6.804   9.833  19.273
23586W        W27547   4.408   8.625  21.159
23587W        W27548   7.181   8.555  18.640
23588W        W27549   4.926   9.612  19.111
23589W        W27550   6.025   8.994  21.192
23590W        W27551   5.916   8.622  20.736
23591W        W27552   4.476   8.994  20.765
23592W        W27553   6.686  10.882  20.594
23593W        W27554   6.477   7.516  21.588
23594W        W27555   4.141   7.666  21.175
23595W        W27556   4.480   8.689  20.228
23596W        W27557   4.849   8.503  18.350
23597W        W27558   3.652  10.262  20.895
23598W        W27559   5.237   8.971  20.338
23599W        W27560   5.060   7.996  18.443
23600W        W27561   4.195   8.812  19.224
23601W        W27562   3.966  10.664  20.661
23602W        W27563   6.761   8.890  18.769
23603W        W27564   6.856   7.806  21.455
23604W        W27565   6.292  10.015  19.418
23605W        W27566   3.890   8.939  21.595
23606W        W27567   6.856   7.403  18.891
23607W        W27568   6.376   9.878  18.902
23608W        W27569   5.278   8.936  18.987
23609W        W27570   6.465   7.740  18.510
23610W        W27571   6.530   8.347  20.696
23611W        W27572   4.239   8.940  19.903
23612W        W27573   4.533   9.879  19.552
23613W        W27574   6.296   8.499  19.517
23614W        W27575   5.319   7.878  20.213
23615W        W27576   7.281   9.789  20.724
23616W        W27577   7.199   7.776  20.285
23617W        W27578   3.738  10.606  19.661
23618W        W27579   4.247   9.793  19.197
23619W        W27580   4.162   7.410  21.750
23620W        W27581   5.281  10.263  21.852
23621W        W27582   7.036   9.231  19.642
23622W        W27583   6.390   9.408  18.522
23623W        W27584   5.685  10.929  20.734
23624W        W27585   5.357   7.361  19.051
23625W        W27586   6.070   8.230  19.910
23626W        W27587   3.756   9.817  20.242
23627W        W27588   5.009   7.779  18.883
23628W        W27589   4.813   9.263  21.732
23629W        W27590   5.807   8.244  19.446
23630W        W27591   6.012   9.654  20.568
23631W        W27592   4.166  10.259  21.003
23632W        W27593   4.757  10.242  21.726
23633W        W27594   4.608   8.039  18.740
23634W        W27595   6.125   8.181  19.065
23635W        W27596   6.083  10.289  21.302
23636W        W27597   4.768   8.881  19.901
23637W        W27598   4.423  10.579  20.766
23638W        W27599   7.168  10.696  18.367
23639W        W27600   4.031   9.368  21.363
23640W        W27601   6.026   9.630  20.051
23641W        W27602   4.462   9.279  19.293
23642W        W27603   4.833  10.286  20.688
23643W        W27604   5.211   7.705  19.729
23644W        W27605   3.822   9.689  18.659
23645W        W27606   5.341   8.640  18.529
23646W        W27607   3.987   9.189  19.548
23647W        W27608   5.277   7.831  21.012
23648W        W27609   6.949   7.540  18.439
23649W        W27610   7.042   9.286  21.538
23650W        W27611   5.696  10.543  21.690
23651W        W27612   7.254   9.637  21.212
23652W        W27613   4.401  10.891  20.301
23653W        W27614   7.260   9.513  19.175
23654W        W27615   5.790   8.780  19.688
23655W        W27616   5.557   7.392  19.578
23656W        W27617   4.616  10.376  19.415
23657W        W27618   5.115   8.117  20.640
23658W        W27619   4.815   7.486  20.109
23659W        W27620   3.878  10.308  18.657
23660W        W27621   5.694   9.672  19.375
23661W        W27622   4.569  10.467  21.254
23662W        W27623   4.046   9.290  18.950
23663W        W27624   3.931   7.833  19.949
23664W        W27625   5.479   9.798  20.006
23665W        W27626   3.731   7.652  19.026
23666W        W27627   6.395   8.858  20.953
23667W        W27628   6.272   8.244  18.525
23668W        W27629   6.789   9.916  20.173
23669W        W27630   5.450  10.400  20.004
23670W        W27631   4.862  10.504  18.915
23671W        W27632   6.144   7.407  18.345
23672W        W27633   3.944  10.667  20.086
23673W        W27634   6.141   8.425  21.721
23674W        W27635   4.124   7.955  21.720
23675W        W27636   3.855   8.555  19.053
23676W        W27637   4.546   8.544  18.778
23677W        W27638   6.309   8.871  21.595
23678W        W27639   4.652   9.152  20.304
23679W        W27640   6.126   7.438  19.424
23680W        W27641   5.257  10.869  19.927
23681W        W27642   6.471  10.331  20.864
23682W        W27643   6.055  10.480  19.975
23683W        W27644   6.074   9.460  19.569
23684W        W27645   5.536   7.685  18.640
23685W        W27646   7.217   7.313  19.362
23686W        W27647   4.905   8.948  18.525
23687W        W27648   7.071   8.285  19.515
23688W        W27649   5.763   9.455  18.392
23689W        W27650   6.699   9.655  21.140
23690W        W27651   6.353  10.356  18.607
23691W        W27652   4.968   8.031  21.513
23692W        W27653   4.788   8.615  20.754
23693W        W27654   5.980   8.060  21.408
23694W        W27655   3.824   8.531  21.185
23695W        W27656   5.584   9.008  20.911
23696W        W27657   3.941   9.766  19.568
23697W        W27658   4.088   9.063  20.458
23698W        W27659   6.405   9.349  20.808
23699W        W27660   6.073   8.468  21.172
23700W        W27661   6.350  10.522  19.577
23701W        W27662   5.352  10.242  20.900
23702W        W27663   4.837  10.597  20.169
23703W        W27664   6.642   9.768  20.588
23704W        W27665   5.692   9.840  21.725
23705W        W27666   4.297   9.793  20.064
23706W        W27667   6.643   9.552  19.709
23707W        W27668   6.284  10.618  20.460
23708W        W27669   4.262  10.347  20.330
23709W        W27670   5.283   8.399  21.540
23710W        W27671   5.734  10.565  19.051
23711W        W27672   5.042   9.820  21.689
23712W        W27673   5.168  10.058  19.066
23713W        W27674   4.389   8.798  18.325
23714W        W27675   6.809   9.507  22.518
23715W        W27676   4.857  10.583  22.071
23716W        W27677   4.940   8.735  23.054
23717W        W27678   4.455   8.583  23.218
23718W        W27679   5.446   9.398  22.652
23719W        W27680   5.875   8.590  22.229
23720W        W27681   5.432   9.825  22.198
23721W        W27682   4.128   7.664  23.033
23722W        W27683   6.816   8.058  21.984
23723W        W27684   7.022  10.032  22.481
23724W        W27685   4.151  10.818  22.235
23725W        W27686   4.544  10.864  22.911
23726W        W27687   6.369   9.058  23.071
23727W        W27688   6.335   8.746  22.098
23728W        W27689   6.820   9.098  22.853
23729W        W27690   5.722   7.756  22.869
23730W        W27691   4.379  10.450  22.552
23731W        W27692   5.335  10.523  22.410
23732W        W27693   6.727   8.549  21.874
23733W        W27694   4.914   9.239  23.137
23734W        W27695   4.384   9.278  21.995
23735W        W27696   4.039   8.311  22.174
23736W        W27697   4.101  10.267  22.968
23737W        W27698   5.232   9.750  23.216
23738W        W27699   5.490   8.251  22.614
23739W        W27700   3.656   9.001  22.808
23740W        W27701   5.971   8.680  22.759
23741W        W27702   5.848   9.170  22.863
23742W        W27703   5.837   8.064  22.320
23743W        W27704   6.236   7.944  23.101
23744W        W27705   5.027   8.371  22.477
23745W        W27706   6.648   8.139  22.822
23746W        W27707   7.015   8.621  22.767
23747W        W27708   4.684   7.374  22.473
23748W        W27709   7.155  10.157  21.953
23749W        W27710   5.979   7.947  21.885
23750W        W27711   5.789  10.591  23.204
23751W        W27712   6.963   9.594  22.048
23752W        W27713   5.398   9.077  23.109
23753W        W27714   6.468   8.607  22.727
23754W        W27715   6.755   8.340  22.369
23755W        W27716   6.564  10.380  22.758
23756W        W27717   6.294   9.062  22.532
23757W        W27718   6.947   7.714  22.999
23758W        W27719   5.133  10.590  22.964
23759W        W27720   4.248   7.770  22.222
23760W        W27721   4.380  10.544  21.880
23761W        W27722   4.754   9.010  22.631
23762W        W27723   5.238   7.997  22.934
23763W        W27724   4.586   7.787  22.886
23764W        W27725   4.591   8.015  21.911
23765W        W27726   5.364   9.151  22.218
23766W        W27727   4.632   7.466  21.988
23767W        W27728   5.370   8.547  23.039
23768W        W27729   4.281   8.059  23.253
23769W        W27730   4.067  10.771  22.929
23770W        W27731   4.434   9.586  22.413
23771W        W27732   7.220   8.117  22.695
23772W        W27733   3.698  10.778  22.490
23773W        W27734   6.865  10.453  22.331
23774W        W27735   5.840   9.106  22.345
23775W        W27736   4.683   8.297  22.862
23776W        W27737   5.515   8.207  21.914
23777W        W27738   6.452   7.678  22.709
23778W        W27739   3.782   7.526  22.157
23779W        W27740   4.609   9.713  21.937
23780W        W27741   3.850   9.954  22.705
23781W        W27742   4.962   7.494  22.970
23782W        W27743   6.021   7.571  22.475
23783W        W27744   4.125   8.072  22.642
23784W        W27745   7.092   8.963  21.943
23785W        W27746   3.646   7.983  22.180
23786W        W27747   5.657  10.849  22.216
23787W        W27748   3.803   9.356  21.913
23788W        W27749   7.204   9.208  22.403
23789W        W27750   6.067   9.540  22.502
23790W        W27751   6.541  10.840  22.197
23791W        W27752   5.135   7.406  22.156
23792W        W27753   6.674  10.005  22.099
23793W        W27754   6.214  10.742  22.613
23794W        W27755   4.675  10.025  22.598
23795W        W27756   6.430   9.523  22.862
23796W        W27757   5.527  10.211  23.050
23797W        W27758   7.277   8.771  23.231
23798W        W27759   4.943   9.500  22.247
23799W        W27760   6.655  10.882  22.966
23800W        W27761   3.911   8.888  22.131
23801W        W27762   7.045  10.546  22.828
23802W        W27763   6.882   7.870  22.447
23803W        W27764   6.756   8.747  23.213
23804W        W27765   4.287  10.075  22.108
23805W        W27766   6.804   9.833  22.918
23806W        W27767   7.181   8.555  22.285
23807W        W27768   4.926   9.612  22.756
23808W        W27769   4.849   8.503  21.995
23809W        W27770   5.060   7.996  22.088
23810W        W27771   4.195   8.812  22.869
23811W        W27772   6.761   8.890  22.414
23812W        W27773   6.292  10.015  23.063
23813W        W27774   6.856   7.403  22.536
23814W        W27775   6.376   9.878  22.547
23815W        W27776   5.278   8.936  22.632
23816W        W27777   6.465   7.740  22.155
23817W        W27778   4.533   9.879  23.197
23818W        W27779   6.296   8.499  23.162
23819W        W27780   3.738  10.606  23.306
23820W        W27781   4.247   9.793  22.842
23821W        W27782   7.036   9.231  23.287
23822W        W27783   6.390   9.408  22.167
23823W        W27784   5.357   7.361  22.696
23824W        W27785   5.009   7.779  22.528
23825W        W27786   5.807   8.244  23.091
23826W        W27787   4.608   8.039  22.385
23827W        W27788   6.125   8.181  22.710
23828W        W27789   7.168  10.696  22.012
23829W        W27790   3.822   9.689  22.304
23830W        W27791   5.341   8.640  22.174
23831W        W27792   3.987   9.189  23.193
23832W        W27793   6.949   7.540  22.084
23833W        W27794   7.260   9.513  22.820
23834W        W27795   5.557   7.392  23.223
23835W        W27796   4.616  10.376  23.060
23836W        W27797   3.878  10.308  22.302
23837W        W27798   5.694   9.672  23.020
23838W        W27799   4.046   9.290  22.595
23839W        W27800   3.731   7.652  22.671
23840W        W27801   6.272   8.244  22.170
23841W        W27802   4.862  10.504  22.560
23842W        W27803   6.144   7.407  21.990
23843W        W27804   3.855   8.555  22.698
23844W        W27805   4.546   8.544  22.423
23845W        W27806   6.074   9.460  23.214
23846W        W27807   5.536   7.685  22.285
23847W        W27808   7.217   7.313  23.007
23848W        W27809   4.905   8.948  22.170
23849W        W27810   7.071   8.285  23.160
23850W        W27811   5.763   9.455  22.037
23851W        W27812   6.353  10.356  22.252
23852W        W27813   3.941   9.766  23.213
23853W        W27814   6.350  10.522  23.222
23854W        W27815   5.734  10.565  22.696
23855W        W27816   5.168  10.058  22.711
23856W        W27817   4.389   8.798  21.970
23857W        W27818   3.728  14.528   3.359
23858W        W27819   4.104  13.421   2.882
23859W        W27820   6.809  13.151   0.652
23860W        W27821   6.939  14.236   2.679
23861W        W27822   4.857  14.227   0.205
23862W        W27823   4.940  12.379   1.188
23863W        W27824   4.455  12.227   1.352
23864W        W27825   5.446  13.042   0.786
23865W        W27826   5.121  14.134   3.141
23866W        W27827   3.770  11.695   3.104
23867W        W27828   4.532  10.975   2.906
23868W        W27829   6.226  11.363   1.793
23869W        W27830   5.875  12.234   0.363
23870W        W27831   6.445  11.668   3.454
23871W        W27832   3.811  11.460   2.579
23872W        W27833   3.910  14.079   3.600
23873W        W27834   5.432  13.469   0.332
23874W        W27835   3.864  12.252   2.025
23875W        W27836   4.757  12.143   3.262
23876W        W27837   7.216  12.002   1.761
23877W        W27838   6.980  13.045   2.620
23878W        W27839   5.288  12.378   1.647
23879W        W27840   5.834  13.717   2.016
23880W        W27841   4.334  13.151   2.248
23881W        W27842   3.693  12.679   1.819
23882W        W27843   4.729  12.651   3.011
23883W        W27844   7.000  12.434   3.265
23884W        W27845   4.616  13.878   1.710
23885W        W27846   5.737  13.567   2.844
23886W        W27847   4.957  12.207   2.069
23887W        W27848   5.249  12.991   1.712
23888W        W27849   6.246  13.764   3.560
23889W        W27850   5.325  13.084   3.570
23890W        W27851   5.306  12.800   3.048
23891W        W27852   3.715  12.191   3.570
23892W        W27853   6.547  13.726   3.169
23893W        W27854   4.128  11.308   1.167
23894W        W27855   4.655  13.566   2.166
23895W        W27856   7.118  13.349   1.456
23896W        W27857   6.531  11.749   2.023
23897W        W27858   6.816  11.702   0.118
23898W        W27859   7.281  12.503   2.424
23899W        W27860   5.248  14.210   2.177
23900W        W27861   7.022  13.676   0.615
23901W        W27862   4.151  14.462   0.369
23902W        W27863   4.544  14.508   1.045
23903W        W27864   4.341  11.262   2.471
23904W        W27865   6.964  12.280   2.746
23905W        W27866   6.369  12.702   1.205
23906W        W27867   6.335  12.390   0.232
23907W        W27868   5.543  13.534   2.372
23908W        W27869   5.349  11.864   1.571
23909W        W27870   5.949  13.951   2.565
23910W        W27871   6.820  12.742   0.987
23911W        W27872   5.722  11.400   1.003
23912W        W27873   4.379  14.094   0.686
23913W        W27874   3.750  11.593   1.285
23914W        W27875   6.536  12.200   1.759
23915W        W27876   3.994  13.817   1.674
23916W        W27877   5.335  14.167   0.544
23917W        W27878   6.727  12.193   0.008
23918W        W27879   3.750  13.951   2.172
23919W        W27880   4.541  13.523   2.652
23920W        W27881   4.914  12.883   1.271
23921W        W27882   4.936  11.288   2.364
23922W        W27883   7.165  11.050   1.661
23923W        W27884   4.384  12.922   0.129
23924W        W27885   4.101  13.911   1.102
23925W        W27886   5.232  13.394   1.350
23926W        W27887   6.564  14.253   3.064
23927W        W27888   5.490  11.895   0.748
23928W        W27889   6.873  14.293   1.520
23929W        W27890   6.550  12.146   3.118
23930W        W27891   7.263  13.802   1.252
23931W        W27892   5.890  13.094   2.736
23932W        W27893   3.656  12.645   0.942
23933W        W27894   4.767  13.060   2.515
23934W        W27895   5.971  12.324   0.893
23935W        W27896   5.848  12.814   0.997
23936W        W27897   4.191  12.234   2.471
23937W        W27898   4.176  12.110   3.393
23938W        W27899   4.066  11.027   1.552
23939W        W27900   5.834  11.374   2.113
23940W        W27901   5.482  11.559   3.276
23941W        W27902   5.837  11.708   0.454
23942W        W27903   7.020  14.101   3.208
23943W        W27904   5.987  11.182   3.247
23944W        W27905   7.006  13.483   3.369
23945W        W27906   6.436  11.650   2.965
23946W        W27907   6.236  11.588   1.235
23947W        W27908   6.629  12.722   3.639
23948W        W27909   4.369  14.298   1.625
23949W        W27910   5.027  12.015   0.611
23950W        W27911   4.596  11.299   3.275
23951W        W27912   6.648  11.783   0.956
23952W        W27913   7.015  12.265   0.901
23953W        W27914   4.758  14.482   3.372
23954W        W27915   4.684  11.018   0.607
23955W        W27916   7.005  11.552   1.642
23956W        W27917   7.155  13.801   0.087
23957W        W27918   4.062  13.004   1.789
23958W        W27919   5.979  11.591   0.019
23959W        W27920   7.113  13.923   1.739
23960W        W27921   5.597  12.329   3.043
23961W        W27922   5.690  13.668   0.746
23962W        W27923   6.090  12.962   3.486
23963W        W27924   5.764  10.939   1.795
23964W        W27925   4.376  11.842   1.858
23965W        W27926   3.930  13.042   2.632
23966W        W27927   5.789  14.235   1.338
23967W        W27928   5.620  14.179   2.977
23968W        W27929   6.963  13.238   0.182
23969W        W27930   5.398  12.721   1.243
23970W        W27931   7.250  11.232   2.984
23971W        W27932   5.399  13.067   2.578
23972W        W27933   5.616  11.953   2.023
23973W        W27934   6.468  12.251   0.861
23974W        W27935   6.755  11.984   0.503
23975W        W27936   6.564  14.024   0.892
23976W        W27937   6.398  13.627   1.688
23977W        W27938   6.294  12.706   0.666
23978W        W27939   5.727  12.916   1.652
23979W        W27940   6.608  12.704   1.719
23980W        W27941   3.983  11.719   2.143
23981W        W27942   6.761  12.771   2.970
23982W        W27943   7.112  14.389   2.116
23983W        W27944   5.042  13.833   1.518
23984W        W27945   6.049  14.366   2.842
23985W        W27946   6.043  11.696   2.606
23986W        W27947   5.250  14.404   2.667
23987W        W27948   6.947  11.358   1.133
23988W        W27949   6.738  12.677   2.434
23989W        W27950   3.721  11.998   2.472
23990W        W27951   6.581  11.793   1.490
23991W        W27952   6.992  11.944   3.267
23992W        W27953   5.877  13.643   1.485
23993W        W27954   5.133  14.234   1.098
23994W        W27955   4.248  11.414   0.356
23995W        W27956   5.352  11.068   2.166
23996W        W27957   4.380  14.188   0.014
23997W        W27958   4.754  12.654   0.765
23998W        W27959   5.408  13.283   3.078
23999W        W27960   5.238  11.641   1.068
24000W        W27961   6.594  11.238   1.496
24001W        W27962   6.314  14.520   1.824
24002W        W27963   5.726  14.168   2.164
24003W        W27964   5.122  13.205   2.125
24004W        W27965   6.892  13.928   2.251
24005W        W27966   4.586  11.431   1.020
24006W        W27967   5.108  13.728   1.980
24007W        W27968   5.392  12.268   2.439
24008W        W27969   6.240  11.134   2.309
24009W        W27970   3.660  12.977   2.194
24010W        W27971   5.364  12.795   0.352
24011W        W27972   4.632  11.110   0.122
24012W        W27973   5.370  12.191   1.173
24013W        W27974   6.340  11.167   2.872
24014W        W27975   4.928  13.179   2.981
24015W        W27976   5.732  12.961   3.198
24016W        W27977   6.349  12.991   3.091
24017W        W27978   5.633  11.131   3.596
24018W        W27979   4.855  11.747   1.989
24019W        W27980   4.281  11.703   1.387
24020W        W27981   4.067  14.415   1.063
24021W        W27982   5.399  13.745   3.188
24022W        W27983   4.434  13.230   0.547
24023W        W27984   6.114  12.615   1.768
24024W        W27985   6.394  12.414   2.167
24025W        W27986   5.599  13.088   2.101
24026W        W27987   6.069  13.462   0.233
24027W        W27988   5.741  11.483   1.561
24028W        W27989   7.220  11.761   0.829
24029W        W27990   3.714  14.350   2.860
24030W        W27991   4.131  13.576   2.392
24031W        W27992   3.698  14.422   0.624
24032W        W27993   5.597  11.692   2.430
24033W        W27994   4.960  13.715   0.279
24034W        W27995   6.865  14.097   0.465
24035W        W27996   5.840  12.750   0.479
24036W        W27997   4.683  11.941   0.996
24037W        W27998   5.515  11.851   0.048
24038W        W27999   6.099  13.416   3.226
24039W        W28000   6.452  11.322   0.843
24040W        W28001   3.782  11.170   0.291
24041W        W28002   5.068  13.489   2.581
24042W        W28003   4.867  13.405   1.673
24043W        W28004   4.609  13.357   0.071
24044W        W28005   3.850  13.598   0.839
24045W        W28006   4.354  12.668   3.281
24046W        W28007   5.058  11.228   3.467
24047W        W28008   5.767  11.370   2.823
24048W        W28009   4.962  11.138   1.104
24049W        W28010   6.021  11.215   0.609
24050W        W28011   3.966  11.147   2.186
24051W        W28012   4.014  12.110   1.556
24052W        W28013   6.703  11.218   1.962
24053W        W28014   6.696  11.404   2.392
24054W        W28015   7.092  12.607   0.077
24055W        W28016   4.384  11.365   1.896
24056W        W28017   5.498  11.937   2.836
24057W        W28018   3.646  11.627   0.314
24058W        W28019   4.432  13.016   2.875
24059W        W28020   5.790  12.414   2.054
24060W        W28021   5.657  14.493   0.350
24061W        W28022   3.803  13.000   0.047
24062W        W28023   4.538  13.411   3.173
24063W        W28024   4.059  12.578   2.804
24064W        W28025   5.050  12.683   2.598
24065W        W28026   6.818  11.042   2.860
24066W        W28027   7.216  12.652   2.851
24067W        W28028   7.204  12.852   0.537
24068W        W28029   6.067  13.184   0.636
24069W        W28030   6.541  14.484   0.331
24070W        W28031   5.718  12.474   3.473
24071W        W28032   4.048  13.441   3.513
24072W        W28033   7.254  11.363   3.465
24073W        W28034   6.972  12.291   2.086
24074W        W28035   5.280  14.421   3.563
24075W        W28036   5.135  11.050   0.290
24076W        W28037   6.674  13.649   0.233
24077W        W28038   4.443  11.742   3.119
24078W        W28039   4.877  13.736   2.981
24079W        W28040   6.214  14.386   0.747
24080W        W28041   6.453  13.005   2.114
24081W        W28042   4.703  11.421   2.781
24082W        W28043   5.172  12.490   3.538
24083W        W28044   4.675  13.669   0.732
24084W        W28045   6.430  13.167   0.996
24085W        W28046   4.198  11.793   2.720
24086W        W28047   5.527  13.855   1.184
24087W        W28048   7.277  12.415   1.365
24088W        W28049   5.499  11.048   3.084
24089W        W28050   6.279  13.753   2.163
24090W        W28051   6.582  14.097   1.871
24091W        W28052   5.801  13.899   0.299
24092W        W28053   3.811  13.791   3.141
24093W        W28054   4.554  11.783   2.379
24094W        W28055   4.524  11.131   1.489
24095W        W28056   6.145  11.973   2.181
24096W        W28057   4.943  13.144   0.381
24097W        W28058   6.941  13.086   1.880
24098W        W28059   4.268  13.844   3.303
24099W        W28060   6.655  14.526   1.100
24100W        W28061   4.754  11.546   1.545
24101W        W28062   4.523  13.039   1.635
24102W        W28063   4.836  14.450   2.385
24103W        W28064   6.903  14.546   3.417
24104W        W28065   6.062  12.734   2.350
24105W        W28066   3.911  12.532   0.265
24106W        W28067   7.045  14.190   0.962
24107W        W28068   6.882  11.514   0.581
24108W        W28069   5.021  11.033   2.984
24109W        W28070   6.727  13.835   1.442
24110W        W28071   6.756  12.391   1.347
24111W        W28072   4.873  12.064   1.563
24112W        W28073   5.118  12.326   2.887
24113W        W28074   6.229  13.479   2.750
24114W        W28075   4.879  11.933   2.862
24115W        W28076   4.858  14.399   1.478
24116W        W28077   4.175  14.358   3.112
24117W        W28078   4.287  13.719   0.242
24118W        W28079   6.804  13.477   1.052
24119W        W28080   4.408  12.269   2.938
24120W        W28081   7.181  12.199   0.419
24121W        W28082   4.926  13.256   0.890
24122W        W28083   6.025  12.638   2.971
24123W        W28084   5.916  12.266   2.515
24124W        W28085   4.476  12.638   2.544
24125W        W28086   6.686  14.526   2.373
24126W        W28087   6.477  11.160   3.367
24127W        W28088   4.141  11.310   2.954
24128W        W28089   4.480  12.333   2.007
24129W        W28090   4.849  12.147   0.129
24130W        W28091   3.652  13.906   2.674
24131W        W28092   5.237  12.615   2.117
24132W        W28093   5.060  11.640   0.222
24133W        W28094   4.195  12.456   1.003
24134W        W28095   3.966  14.308   2.440
24135W        W28096   6.761  12.534   0.548
24136W        W28097   6.856  11.450   3.234
24137W        W28098   6.292  13.659   1.197
24138W        W28099   3.890  12.583   3.374
24139W        W28100   6.856  11.047   0.670
24140W        W28101   6.376  13.522   0.681
24141W        W28102   5.278  12.580   0.766
24142W        W28103   6.465  11.384   0.289
24143W        W28104   6.530  11.991   2.475
24144W        W28105   4.239  12.584   1.682
24145W        W28106   4.533  13.523   1.331
24146W        W28107   6.296  12.143   1.296
24147W        W28108   5.319  11.522   1.992
24148W        W28109   7.281  13.433   2.503
24149W        W28110   7.199  11.420   2.064
24150W        W28111   3.738  14.250   1.440
24151W        W28112   4.247  13.437   0.976
24152W        W28113   4.162  11.054   3.529
24153W        W28114   5.281  13.907   3.631
24154W        W28115   7.036  12.875   1.421
24155W        W28116   6.390  13.052   0.301
24156W        W28117   5.685  14.573   2.513
24157W        W28118   6.542  13.295   3.550
24158W        W28119   5.357  11.005   0.830
24159W        W28120   6.070  11.874   1.689
24160W        W28121   3.756  13.461   2.021
24161W        W28122   5.009  11.423   0.662
24162W        W28123   4.813  12.907   3.511
24163W        W28124   5.807  11.888   1.225
24164W        W28125   6.012  13.298   2.347
24165W        W28126   4.166  13.903   2.782
24166W        W28127   4.757  13.886   3.505
24167W        W28128   4.608  11.683   0.519
24168W        W28129   6.125  11.825   0.844
24169W        W28130   6.083  13.933   3.081
24170W        W28131   4.768  12.525   1.680
24171W        W28132   4.423  14.223   2.545
24172W        W28133   7.168  14.340   0.146
24173W        W28134   4.031  13.012   3.142
24174W        W28135   6.026  13.274   1.830
24175W        W28136   4.462  12.923   1.072
24176W        W28137   4.833  13.930   2.467
24177W        W28138   5.211  11.349   1.508
24178W        W28139   3.822  13.333   0.438
24179W        W28140   5.341  12.284   0.308
24180W        W28141   3.987  12.833   1.327
24181W        W28142   5.277  11.475   2.791
24182W        W28143   6.949  11.184   0.218
24183W        W28144   7.042  12.930   3.317
24184W        W28145   5.696  14.187   3.469
24185W        W28146   7.254  13.281   2.991
24186W        W28147   6.662  14.079   3.602
24187W        W28148   4.401  14.535   2.080
24188W        W28149   7.260  13.157   0.954
24189W        W28150   5.790  12.424   1.467
24190W        W28151   5.557  11.036   1.357
24191W        W28152   4.616  14.020   1.194
24192W        W28153   5.115  11.761   2.419
24193W        W28154   4.815  11.130   1.888
24194W        W28155   3.878  13.952   0.436
24195W        W28156   5.694  13.316   1.154
24196W        W28157   4.569  14.111   3.033
24197W        W28158   4.046  12.934   0.729
24198W        W28159   3.931  11.477   1.728
24199W        W28160   5.479  13.442   1.785
24200W        W28161   3.731  11.296   0.805
24201W        W28162   6.395  12.502   2.732
24202W        W28163   6.272  11.888   0.304
24203W        W28164   6.789  13.560   1.952
24204W        W28165   5.450  14.044   1.783
24205W        W28166   4.862  14.148   0.694
24206W        W28167   6.144  11.051   0.124
24207W        W28168   3.944  14.311   1.865
24208W        W28169   6.141  12.069   3.500
24209W        W28170   4.124  11.599   3.499
24210W        W28171   3.855  12.199   0.832
24211W        W28172   4.546  12.188   0.557
24212W        W28173   6.309  12.515   3.374
24213W        W28174   4.652  12.796   2.083
24214W        W28175   6.126  11.082   1.203
24215W        W28176   5.257  14.513   1.706
24216W        W28177   6.471  13.975   2.643
24217W        W28178   6.055  14.124   1.754
24218W        W28179   6.074  13.104   1.348
24219W        W28180   5.536  11.329   0.419
24220W        W28181   7.217  10.957   1.141
24221W        W28182   4.905  12.592   0.304
24222W        W28183   7.071  11.929   1.294
24223W        W28184   5.763  13.099   0.171
24224W        W28185   6.699  13.299   2.919
24225W        W28186   6.353  14.000   0.386
24226W        W28187   4.968  11.675   3.292
24227W        W28188   4.788  12.259   2.533
24228W        W28189   6.880  13.754   2.810
24229W        W28190   5.980  11.704   3.187
24230W        W28191   3.824  12.175   2.964
24231W        W28192   5.584  12.652   2.690
24232W        W28193   3.941  13.410   1.347
24233W        W28194   4.088  12.707   2.237
24234W        W28195   6.405  12.993   2.587
24235W        W28196   6.177  14.373   3.398
24236W        W28197   6.073  12.112   2.951
24237W        W28198   6.350  14.166   1.356
24238W        W28199   5.352  13.886   2.679
24239W        W28200   4.837  14.241   1.948
24240W        W28201   6.642  13.412   2.367
24241W        W28202   5.692  13.484   3.504
24242W        W28203   4.297  13.437   1.843
24243W        W28204   6.643  13.196   1.488
24244W        W28205   6.284  14.262   2.239
24245W        W28206   4.262  13.991   2.109
24246W        W28207   5.283  12.043   3.319
24247W        W28208   5.734  14.209   0.830
24248W        W28209   5.042  13.464   3.468
24249W        W28210   5.168  13.702   0.845
24250W        W28211   3.728  14.528   7.003
24251W        W28212   4.104  13.421   6.526
24252W        W28213   6.809  13.151   4.296
24253W        W28214   6.939  14.236   6.323
24254W        W28215   4.857  14.227   3.849
24255W        W28216   4.940  12.379   4.832
24256W        W28217   4.455  12.227   4.996
24257W        W28218   5.446  13.042   4.430
24258W        W28219   5.121  14.134   6.785
24259W        W28220   3.770  11.695   6.748
24260W        W28221   4.532  10.975   6.550
24261W        W28222   6.226  11.363   5.437
24262W        W28223   5.875  12.234   4.007
24263W        W28224   6.445  11.668   7.098
24264W        W28225   3.811  11.460   6.223
24265W        W28226   3.910  14.079   7.244
24266W        W28227   5.432  13.469   3.976
24267W        W28228   3.864  12.252   5.669
24268W        W28229   4.757  12.143   6.906
24269W        W28230   7.216  12.002   5.405
24270W        W28231   6.980  13.045   6.264
24271W        W28232   5.288  12.378   5.291
24272W        W28233   5.834  13.717   5.660
24273W        W28234   4.334  13.151   5.892
24274W        W28235   3.693  12.679   5.463
24275W        W28236   4.729  12.651   6.655
24276W        W28237   7.000  12.434   6.909
24277W        W28238   4.616  13.878   5.354
24278W        W28239   5.737  13.567   6.488
24279W        W28240   4.957  12.207   5.713
24280W        W28241   5.249  12.991   5.356
24281W        W28242   6.246  13.764   7.204
24282W        W28243   5.325  13.084   7.214
24283W        W28244   5.306  12.800   6.692
24284W        W28245   3.715  12.191   7.214
24285W        W28246   6.547  13.726   6.813
24286W        W28247   4.128  11.308   4.811
24287W        W28248   4.655  13.566   5.810
24288W        W28249   7.118  13.349   5.100
24289W        W28250   6.531  11.749   5.667
24290W        W28251   6.816  11.702   3.762
24291W        W28252   7.281  12.503   6.068
24292W        W28253   5.248  14.210   5.821
24293W        W28254   7.022  13.676   4.259
24294W        W28255   4.151  14.462   4.013
24295W        W28256   4.544  14.508   4.689
24296W        W28257   4.341  11.262   6.115
24297W        W28258   6.964  12.280   6.390
24298W        W28259   6.369  12.702   4.849
24299W        W28260   6.335  12.390   3.876
24300W        W28261   5.543  13.534   6.016
24301W        W28262   5.349  11.864   5.215
24302W        W28263   5.949  13.951   6.209
24303W        W28264   6.820  12.742   4.631
24304W        W28265   5.722  11.400   4.647
24305W        W28266   4.379  14.094   4.330
24306W        W28267   3.750  11.593   4.929
24307W        W28268   6.536  12.200   5.403
24308W        W28269   3.994  13.817   5.318
24309W        W28270   5.335  14.167   4.188
24310W        W28271   6.727  12.193   3.652
24311W        W28272   3.750  13.951   5.816
24312W        W28273   4.541  13.523   6.296
24313W        W28274   4.914  12.883   4.915
24314W        W28275   4.936  11.288   6.008
24315W        W28276   7.165  11.050   5.305
24316W        W28277   4.384  12.922   3.773
24317W        W28278   4.039  11.955   3.952
24318W        W28279   4.101  13.911   4.746
24319W        W28280   5.232  13.394   4.994
24320W        W28281   6.564  14.253   6.708
24321W        W28282   5.490  11.895   4.392
24322W        W28283   6.873  14.293   5.164
24323W        W28284   6.550  12.146   6.762
24324W        W28285   7.263  13.802   4.896
24325W        W28286   5.890  13.094   6.380
24326W        W28287   3.656  12.645   4.586
24327W        W28288   4.767  13.060   6.159
24328W        W28289   5.971  12.324   4.537
24329W        W28290   5.848  12.814   4.641
24330W        W28291   4.191  12.234   6.115
24331W        W28292   4.176  12.110   7.037
24332W        W28293   4.066  11.027   5.196
24333W        W28294   5.834  11.374   5.757
24334W        W28295   5.482  11.559   6.920
24335W        W28296   5.837  11.708   4.098
24336W        W28297   7.020  14.101   6.852
24337W        W28298   5.987  11.182   6.891
24338W        W28299   7.006  13.483   7.013
24339W        W28300   6.436  11.650   6.609
24340W        W28301   6.236  11.588   4.879
24341W        W28302   6.629  12.722   7.283
24342W        W28303   4.369  14.298   5.269
24343W        W28304   5.027  12.015   4.255
24344W        W28305   4.596  11.299   6.919
24345W        W28306   6.648  11.783   4.600
24346W        W28307   7.015  12.265   4.545
24347W        W28308   4.758  14.482   7.016
24348W        W28309   4.684  11.018   4.251
24349W        W28310   7.005  11.552   5.286
24350W        W28311   7.155  13.801   3.731
24351W        W28312   4.062  13.004   5.433
24352W        W28313   5.979  11.591   3.663
24353W        W28314   7.113  13.923   5.383
24354W        W28315   7.152  11.117   6.133
24355W        W28316   5.597  12.329   6.687
24356W        W28317   5.690  13.668   4.390
24357W        W28318   6.090  12.962   7.130
24358W        W28319   5.764  10.939   5.439
24359W        W28320   4.376  11.842   5.502
24360W        W28321   3.930  13.042   6.276
24361W        W28322   5.789  14.235   4.982
24362W        W28323   6.983  11.832   5.854
24363W        W28324   5.620  14.179   6.621
24364W        W28325   6.963  13.238   3.826
24365W        W28326   5.398  12.721   4.887
24366W        W28327   7.250  11.232   6.628
24367W        W28328   5.399  13.067   6.222
24368W        W28329   5.616  11.953   5.667
24369W        W28330   6.468  12.251   4.505
24370W        W28331   6.755  11.984   4.147
24371W        W28332   6.564  14.024   4.536
24372W        W28333   6.398  13.627   5.332
24373W        W28334   6.294  12.706   4.310
24374W        W28335   5.727  12.916   5.296
24375W        W28336   6.608  12.704   5.363
24376W        W28337   3.983  11.719   5.787
24377W        W28338   6.761  12.771   6.614
24378W        W28339   7.112  14.389   5.760
24379W        W28340   5.042  13.833   5.162
24380W        W28341   6.049  14.366   6.486
24381W        W28342   6.043  11.696   6.250
24382W        W28343   5.250  14.404   6.311
24383W        W28344   6.947  11.358   4.777
24384W        W28345   6.738  12.677   6.078
24385W        W28346   3.721  11.998   6.116
24386W        W28347   6.581  11.793   5.134
24387W        W28348   6.992  11.944   6.911
24388W        W28349   5.877  13.643   5.129
24389W        W28350   5.133  14.234   4.742
24390W        W28351   4.248  11.414   4.000
24391W        W28352   5.352  11.068   5.810
24392W        W28353   4.380  14.188   3.658
24393W        W28354   4.754  12.654   4.409
24394W        W28355   5.408  13.283   6.722
24395W        W28356   5.238  11.641   4.712
24396W        W28357   6.594  11.238   5.140
24397W        W28358   6.314  14.520   5.468
24398W        W28359   5.726  14.168   5.808
24399W        W28360   5.122  13.205   5.769
24400W        W28361   6.892  13.928   5.895
24401W        W28362   4.586  11.431   4.664
24402W        W28363   5.108  13.728   5.624
24403W        W28364   4.591  11.659   3.689
24404W        W28365   5.392  12.268   6.083
24405W        W28366   6.240  11.134   5.953
24406W        W28367   3.660  12.977   5.838
24407W        W28368   5.364  12.795   3.996
24408W        W28369   4.632  11.110   3.766
24409W        W28370   5.370  12.191   4.817
24410W        W28371   6.340  11.167   6.516
24411W        W28372   4.928  13.179   6.625
24412W        W28373   5.732  12.961   6.842
24413W        W28374   6.349  12.991   6.735
24414W        W28375   5.633  11.131   7.240
24415W        W28376   4.855  11.747   5.633
24416W        W28377   4.281  11.703   5.031
24417W        W28378   4.067  14.415   4.707
24418W        W28379   5.399  13.745   6.832
24419W        W28380   4.434  13.230   4.191
24420W        W28381   6.114  12.615   5.412
24421W        W28382   6.394  12.414   5.811
24422W        W28383   5.599  13.088   5.745
24423W        W28384   6.069  13.462   3.877
24424W        W28385   5.741  11.483   5.205
24425W        W28386   7.220  11.761   4.473
24426W        W28387   3.714  14.350   6.504
24427W        W28388   4.131  13.576   6.036
24428W        W28389   3.698  14.422   4.268
24429W        W28390   5.597  11.692   6.074
24430W        W28391   4.960  13.715   3.923
24431W        W28392   6.865  14.097   4.109
24432W        W28393   5.840  12.750   4.123
24433W        W28394   4.683  11.941   4.640
24434W        W28395   5.515  11.851   3.692
24435W        W28396   6.099  13.416   6.870
24436W        W28397   6.452  11.322   4.487
24437W        W28398   3.782  11.170   3.935
24438W        W28399   5.068  13.489   6.225
24439W        W28400   4.867  13.405   5.317
24440W        W28401   4.609  13.357   3.715
24441W        W28402   3.850  13.598   4.483
24442W        W28403   4.354  12.668   6.925
24443W        W28404   5.058  11.228   7.111
24444W        W28405   5.767  11.370   6.467
24445W        W28406   4.962  11.138   4.748
24446W        W28407   6.021  11.215   4.253
24447W        W28408   3.966  11.147   5.830
24448W        W28409   4.014  12.110   5.200
24449W        W28410   6.703  11.218   5.606
24450W        W28411   4.125  11.716   4.420
24451W        W28412   6.696  11.404   6.036
24452W        W28413   7.092  12.607   3.721
24453W        W28414   4.384  11.365   5.540
24454W        W28415   5.498  11.937   6.480
24455W        W28416   3.646  11.627   3.958
24456W        W28417   4.432  13.016   6.519
24457W        W28418   5.790  12.414   5.698
24458W        W28419   5.657  14.493   3.994
24459W        W28420   3.803  13.000   3.691
24460W        W28421   4.538  13.411   6.817
24461W        W28422   4.059  12.578   6.448
24462W        W28423   5.050  12.683   6.242
24463W        W28424   6.818  11.042   6.504
24464W        W28425   7.216  12.652   6.495
24465W        W28426   7.204  12.852   4.181
24466W        W28427   6.067  13.184   4.280
24467W        W28428   6.541  14.484   3.975
24468W        W28429   5.718  12.474   7.117
24469W        W28430   4.048  13.441   7.157
24470W        W28431   7.254  11.363   7.109
24471W        W28432   6.972  12.291   5.730
24472W        W28433   5.280  14.421   7.207
24473W        W28434   5.135  11.050   3.934
24474W        W28435   6.674  13.649   3.877
24475W        W28436   4.443  11.742   6.763
24476W        W28437   4.877  13.736   6.625
24477W        W28438   7.003  11.727   6.423
24478W        W28439   6.214  14.386   4.391
24479W        W28440   6.453  13.005   5.758
24480W        W28441   4.703  11.421   6.425
24481W        W28442   5.172  12.490   7.182
24482W        W28443   4.675  13.669   4.376
24483W        W28444   6.430  13.167   4.640
24484W        W28445   4.198  11.793   6.364
24485W        W28446   5.527  13.855   4.828
24486W        W28447   7.277  12.415   5.009
24487W        W28448   5.499  11.048   6.728
24488W        W28449   6.279  13.753   5.807
24489W        W28450   6.582  14.097   5.515
24490W        W28451   5.801  13.899   3.943
24491W        W28452   3.811  13.791   6.785
24492W        W28453   4.554  11.783   6.023
24493W        W28454   4.524  11.131   5.133
24494W        W28455   6.145  11.973   5.825
24495W        W28456   4.943  13.144   4.025
24496W        W28457   6.941  13.086   5.524
24497W        W28458   4.268  13.844   6.947
24498W        W28459   6.655  14.526   4.744
24499W        W28460   4.754  11.546   5.189
24500W        W28461   4.523  13.039   5.279
24501W        W28462   4.836  14.450   6.029
24502W        W28463   6.903  14.546   7.061
24503W        W28464   6.062  12.734   5.994
24504W        W28465   3.911  12.532   3.909
24505W        W28466   7.045  14.190   4.606
24506W        W28467   6.882  11.514   4.225
24507W        W28468   5.021  11.033   6.628
24508W        W28469   6.727  13.835   5.086
24509W        W28470   6.756  12.391   4.991
24510W        W28471   4.873  12.064   5.207
24511W        W28472   5.118  12.326   6.531
24512W        W28473   6.229  13.479   6.394
24513W        W28474   4.879  11.933   6.506
24514W        W28475   4.858  14.399   5.122
24515W        W28476   4.175  14.358   6.756
24516W        W28477   4.287  13.719   3.886
24517W        W28478   6.804  13.477   4.696
24518W        W28479   4.408  12.269   6.582
24519W        W28480   7.181  12.199   4.063
24520W        W28481   4.926  13.256   4.534
24521W        W28482   6.025  12.638   6.615
24522W        W28483   5.916  12.266   6.159
24523W        W28484   4.476  12.638   6.188
24524W        W28485   6.686  14.526   6.017
24525W        W28486   6.477  11.160   7.011
24526W        W28487   4.141  11.310   6.598
24527W        W28488   4.480  12.333   5.651
24528W        W28489   4.849  12.147   3.773
24529W        W28490   3.652  13.906   6.318
24530W        W28491   5.237  12.615   5.761
24531W        W28492   5.060  11.640   3.866
24532W        W28493   4.195  12.456   4.647
24533W        W28494   3.966  14.308   6.084
24534W        W28495   6.761  12.534   4.192
24535W        W28496   6.856  11.450   6.878
24536W        W28497   6.292  13.659   4.841
24537W        W28498   3.890  12.583   7.018
24538W        W28499   6.856  11.047   4.314
24539W        W28500   6.376  13.522   4.325
24540W        W28501   5.278  12.580   4.410
24541W        W28502   6.465  11.384   3.933
24542W        W28503   6.530  11.991   6.119
24543W        W28504   4.239  12.584   5.326
24544W        W28505   4.533  13.523   4.975
24545W        W28506   6.296  12.143   4.940
24546W        W28507   5.319  11.522   5.636
24547W        W28508   7.281  13.433   6.147
24548W        W28509   7.199  11.420   5.708
24549W        W28510   3.738  14.250   5.084
24550W        W28511   4.247  13.437   4.620
24551W        W28512   4.162  11.054   7.173
24552W        W28513   5.281  13.907   7.275
24553W        W28514   7.036  12.875   5.065
24554W        W28515   6.390  13.052   3.945
24555W        W28516   5.685  14.573   6.157
24556W        W28517   6.542  13.295   7.194
24557W        W28518   5.357  11.005   4.474
24558W        W28519   6.070  11.874   5.333
24559W        W28520   3.756  13.461   5.665
24560W        W28521   5.009  11.423   4.306
24561W        W28522   4.813  12.907   7.155
24562W        W28523   5.807  11.888   4.869
24563W        W28524   6.012  13.298   5.991
24564W        W28525   4.166  13.903   6.426
24565W        W28526   4.757  13.886   7.149
24566W        W28527   4.608  11.683   4.163
24567W        W28528   6.125  11.825   4.488
24568W        W28529   6.083  13.933   6.725
24569W        W28530   4.768  12.525   5.324
24570W        W28531   4.423  14.223   6.189
24571W        W28532   7.168  14.340   3.790
24572W        W28533   4.031  13.012   6.786
24573W        W28534   6.026  13.274   5.474
24574W        W28535   4.462  12.923   4.716
24575W        W28536   4.833  13.930   6.111
24576W        W28537   5.211  11.349   5.152
24577W        W28538   3.822  13.333   4.082
24578W        W28539   5.341  12.284   3.952
24579W        W28540   3.987  12.833   4.971
24580W        W28541   5.277  11.475   6.435
24581W        W28542   6.949  11.184   3.862
24582W        W28543   7.042  12.930   6.961
24583W        W28544   5.696  14.187   7.113
24584W        W28545   7.254  13.281   6.635
24585W        W28546   6.662  14.079   7.246
24586W        W28547   4.401  14.535   5.724
24587W        W28548   7.260  13.157   4.598
24588W        W28549   5.790  12.424   5.111
24589W        W28550   5.557  11.036   5.001
24590W        W28551   4.616  14.020   4.838
24591W        W28552   5.115  11.761   6.063
24592W        W28553   4.815  11.130   5.532
24593W        W28554   3.878  13.952   4.080
24594W        W28555   5.694  13.316   4.798
24595W        W28556   4.569  14.111   6.677
24596W        W28557   4.046  12.934   4.373
24597W        W28558   3.931  11.477   5.372
24598W        W28559   5.479  13.442   5.429
24599W        W28560   3.731  11.296   4.449
24600W        W28561   6.395  12.502   6.376
24601W        W28562   6.272  11.888   3.948
24602W        W28563   6.789  13.560   5.596
24603W        W28564   5.450  14.044   5.427
24604W        W28565   4.862  14.148   4.338
24605W        W28566   6.144  11.051   3.768
24606W        W28567   3.944  14.311   5.509
24607W        W28568   6.141  12.069   7.144
24608W        W28569   4.124  11.599   7.143
24609W        W28570   3.855  12.199   4.476
24610W        W28571   4.546  12.188   4.201
24611W        W28572   6.309  12.515   7.018
24612W        W28573   4.652  12.796   5.727
24613W        W28574   6.126  11.082   4.847
24614W        W28575   5.257  14.513   5.350
24615W        W28576   6.471  13.975   6.287
24616W        W28577   6.055  14.124   5.398
24617W        W28578   6.074  13.104   4.992
24618W        W28579   5.536  11.329   4.063
24619W        W28580   7.217  10.957   4.785
24620W        W28581   4.905  12.592   3.948
24621W        W28582   7.071  11.929   4.938
24622W        W28583   5.763  13.099   3.815
24623W        W28584   6.699  13.299   6.563
24624W        W28585   6.353  14.000   4.030
24625W        W28586   4.968  11.675   6.936
24626W        W28587   4.788  12.259   6.177
24627W        W28588   6.880  13.754   6.454
24628W        W28589   5.980  11.704   6.831
24629W        W28590   3.824  12.175   6.608
24630W        W28591   5.584  12.652   6.334
24631W        W28592   3.941  13.410   4.991
24632W        W28593   4.088  12.707   5.881
24633W        W28594   6.405  12.993   6.231
24634W        W28595   6.177  14.373   7.042
24635W        W28596   6.073  12.112   6.595
24636W        W28597   6.350  14.166   5.000
24637W        W28598   5.352  13.886   6.323
24638W        W28599   4.837  14.241   5.592
24639W        W28600   6.642  13.412   6.011
24640W        W28601   5.692  13.484   7.148
24641W        W28602   4.297  13.437   5.487
24642W        W28603   6.643  13.196   5.132
24643W        W28604   6.284  14.262   5.883
24644W        W28605   4.262  13.991   5.753
24645W        W28606   5.283  12.043   6.963
24646W        W28607   5.734  14.209   4.474
24647W        W28608   5.042  13.464   7.112
24648W        W28609   5.168  13.702   4.489
24649W        W28610   4.389  12.442   3.748
24650W        W28611   3.728  14.528  10.648
24651W        W28612   4.104  13.421  10.171
24652W        W28613   6.809  13.151   7.941
24653W        W28614   6.939  14.236   9.968
24654W        W28615   4.857  14.227   7.494
24655W        W28616   4.940  12.379   8.477
24656W        W28617   4.455  12.227   8.641
24657W        W28618   5.446  13.042   8.075
24658W        W28619   5.121  14.134  10.430
24659W        W28620   3.770  11.695  10.393
24660W        W28621   4.532  10.975  10.195
24661W        W28622   6.226  11.363   9.082
24662W        W28623   5.875  12.234   7.652
24663W        W28624   6.445  11.668  10.743
24664W        W28625   3.811  11.460   9.868
24665W        W28626   3.910  14.079  10.889
24666W        W28627   5.432  13.469   7.621
24667W        W28628   3.864  12.252   9.314
24668W        W28629   4.757  12.143  10.551
24669W        W28630   7.216  12.002   9.050
24670W        W28631   6.980  13.045   9.909
24671W        W28632   5.288  12.378   8.936
24672W        W28633   5.834  13.717   9.305
24673W        W28634   4.334  13.151   9.537
24674W        W28635   3.693  12.679   9.108
24675W        W28636   4.729  12.651  10.300
24676W        W28637   7.000  12.434  10.554
24677W        W28638   4.616  13.878   8.999
24678W        W28639   5.737  13.567  10.133
24679W        W28640   4.957  12.207   9.358
24680W        W28641   5.249  12.991   9.001
24681W        W28642   6.246  13.764  10.849
24682W        W28643   5.325  13.084  10.859
24683W        W28644   5.306  12.800  10.337
24684W        W28645   3.715  12.191  10.859
24685W        W28646   6.547  13.726  10.458
24686W        W28647   4.128  11.308   8.456
24687W        W28648   4.655  13.566   9.455
24688W        W28649   7.118  13.349   8.745
24689W        W28650   6.531  11.749   9.312
24690W        W28651   6.816  11.702   7.407
24691W        W28652   7.281  12.503   9.713
24692W        W28653   5.248  14.210   9.466
24693W        W28654   7.022  13.676   7.904
24694W        W28655   4.151  14.462   7.658
24695W        W28656   4.544  14.508   8.334
24696W        W28657   4.341  11.262   9.760
24697W        W28658   6.964  12.280  10.035
24698W        W28659   6.369  12.702   8.494
24699W        W28660   6.335  12.390   7.521
24700W        W28661   5.543  13.534   9.661
24701W        W28662   5.349  11.864   8.860
24702W        W28663   5.949  13.951   9.854
24703W        W28664   6.820  12.742   8.276
24704W        W28665   5.722  11.400   8.292
24705W        W28666   4.379  14.094   7.975
24706W        W28667   3.750  11.593   8.574
24707W        W28668   6.536  12.200   9.048
24708W        W28669   3.994  13.817   8.963
24709W        W28670   5.335  14.167   7.833
24710W        W28671   6.727  12.193   7.297
24711W        W28672   3.750  13.951   9.461
24712W        W28673   4.541  13.523   9.941
24713W        W28674   4.914  12.883   8.560
24714W        W28675   4.936  11.288   9.653
24715W        W28676   7.165  11.050   8.950
24716W        W28677   4.384  12.922   7.418
24717W        W28678   4.039  11.955   7.597
24718W        W28679   4.101  13.911   8.391
24719W        W28680   5.232  13.394   8.639
24720W        W28681   6.564  14.253  10.353
24721W        W28682   5.490  11.895   8.037
24722W        W28683   6.873  14.293   8.809
24723W        W28684   6.550  12.146  10.407
24724W        W28685   7.263  13.802   8.541
24725W        W28686   5.890  13.094  10.025
24726W        W28687   3.656  12.645   8.231
24727W        W28688   4.767  13.060   9.804
24728W        W28689   5.971  12.324   8.182
24729W        W28690   5.848  12.814   8.286
24730W        W28691   4.191  12.234   9.760
24731W        W28692   4.176  12.110  10.682
24732W        W28693   4.066  11.027   8.841
24733W        W28694   5.834  11.374   9.402
24734W        W28695   5.482  11.559  10.565
24735W        W28696   5.837  11.708   7.743
24736W        W28697   7.020  14.101  10.497
24737W        W28698   5.987  11.182  10.536
24738W        W28699   7.006  13.483  10.658
24739W        W28700   6.436  11.650  10.254
24740W        W28701   6.236  11.588   8.524
24741W        W28702   6.629  12.722  10.928
24742W        W28703   4.369  14.298   8.914
24743W        W28704   5.027  12.015   7.900
24744W        W28705   4.596  11.299  10.564
24745W        W28706   6.648  11.783   8.245
24746W        W28707   7.015  12.265   8.190
24747W        W28708   4.758  14.482  10.661
24748W        W28709   4.684  11.018   7.896
24749W        W28710   7.005  11.552   8.931
24750W        W28711   7.155  13.801   7.376
24751W        W28712   5.979  11.591   7.308
24752W        W28713   7.113  13.923   9.028
24753W        W28714   7.152  11.117   9.778
24754W        W28715   5.597  12.329  10.332
24755W        W28716   5.690  13.668   8.035
24756W        W28717   6.090  12.962  10.775
24757W        W28718   5.764  10.939   9.084
24758W        W28719   4.376  11.842   9.147
24759W        W28720   3.930  13.042   9.921
24760W        W28721   5.789  14.235   8.627
24761W        W28722   6.983  11.832   9.499
24762W        W28723   5.620  14.179  10.266
24763W        W28724   6.963  13.238   7.471
24764W        W28725   5.398  12.721   8.532
24765W        W28726   7.250  11.232  10.273
24766W        W28727   5.399  13.067   9.867
24767W        W28728   5.616  11.953   9.312
24768W        W28729   6.468  12.251   8.150
24769W        W28730   6.755  11.984   7.792
24770W        W28731   6.564  14.024   8.181
24771W        W28732   6.398  13.627   8.977
24772W        W28733   6.294  12.706   7.955
24773W        W28734   5.727  12.916   8.941
24774W        W28735   6.608  12.704   9.008
24775W        W28736   3.983  11.719   9.432
24776W        W28737   6.761  12.771  10.259
24777W        W28738   7.112  14.389   9.405
24778W        W28739   5.042  13.833   8.807
24779W        W28740   6.049  14.366  10.131
24780W        W28741   6.043  11.696   9.895
24781W        W28742   5.250  14.404   9.956
24782W        W28743   6.947  11.358   8.422
24783W        W28744   6.738  12.677   9.723
24784W        W28745   3.721  11.998   9.761
24785W        W28746   6.581  11.793   8.779
24786W        W28747   6.992  11.944  10.556
24787W        W28748   5.877  13.643   8.774
24788W        W28749   5.133  14.234   8.387
24789W        W28750   4.248  11.414   7.645
24790W        W28751   5.352  11.068   9.455
24791W        W28752   4.380  14.188   7.303
24792W        W28753   4.754  12.654   8.054
24793W        W28754   5.408  13.283  10.367
24794W        W28755   5.238  11.641   8.357
24795W        W28756   6.594  11.238   8.785
24796W        W28757   6.314  14.520   9.113
24797W        W28758   5.726  14.168   9.453
24798W        W28759   5.122  13.205   9.414
24799W        W28760   6.892  13.928   9.540
24800W        W28761   4.586  11.431   8.309
24801W        W28762   5.108  13.728   9.269
24802W        W28763   4.591  11.659   7.334
24803W        W28764   5.392  12.268   9.728
24804W        W28765   6.240  11.134   9.598
24805W        W28766   3.660  12.977   9.483
24806W        W28767   5.364  12.795   7.641
24807W        W28768   4.632  11.110   7.411
24808W        W28769   5.370  12.191   8.462
24809W        W28770   6.340  11.167  10.161
24810W        W28771   4.928  13.179  10.270
24811W        W28772   5.732  12.961  10.487
24812W        W28773   6.349  12.991  10.380
24813W        W28774   5.633  11.131  10.885
24814W        W28775   4.855  11.747   9.278
24815W        W28776   4.281  11.703   8.676
24816W        W28777   4.067  14.415   8.352
24817W        W28778   5.399  13.745  10.477
24818W        W28779   6.114  12.615   9.057
24819W        W28780   6.394  12.414   9.456
24820W        W28781   5.599  13.088   9.390
24821W        W28782   6.069  13.462   7.522
24822W        W28783   5.741  11.483   8.850
24823W        W28784   7.220  11.761   8.118
24824W        W28785   3.714  14.350  10.149
24825W        W28786   4.131  13.576   9.681
24826W        W28787   3.698  14.422   7.913
24827W        W28788   5.597  11.692   9.719
24828W        W28789   4.960  13.715   7.568
24829W        W28790   6.865  14.097   7.754
24830W        W28791   5.840  12.750   7.768
24831W        W28792   4.683  11.941   8.285
24832W        W28793   5.515  11.851   7.337
24833W        W28794   6.099  13.416  10.515
24834W        W28795   6.452  11.322   8.132
24835W        W28796   3.782  11.170   7.580
24836W        W28797   5.068  13.489   9.870
24837W        W28798   4.867  13.405   8.962
24838W        W28799   4.609  13.357   7.360
24839W        W28800   3.850  13.598   8.128
24840W        W28801   4.354  12.668  10.570
24841W        W28802   5.058  11.228  10.756
24842W        W28803   5.767  11.370  10.112
24843W        W28804   4.962  11.138   8.393
24844W        W28805   6.021  11.215   7.898
24845W        W28806   3.966  11.147   9.475
24846W        W28807   4.014  12.110   8.845
24847W        W28808   6.703  11.218   9.251
24848W        W28809   4.125  11.716   8.065
24849W        W28810   6.696  11.404   9.681
24850W        W28811   7.092  12.607   7.366
24851W        W28812   4.384  11.365   9.185
24852W        W28813   5.498  11.937  10.125
24853W        W28814   3.646  11.627   7.603
24854W        W28815   4.432  13.016  10.164
24855W        W28816   5.790  12.414   9.343
24856W        W28817   5.657  14.493   7.639
24857W        W28818   3.803  13.000   7.336
24858W        W28819   4.538  13.411  10.462
24859W        W28820   4.059  12.578  10.093
24860W        W28821   5.050  12.683   9.887
24861W        W28822   6.818  11.042  10.149
24862W        W28823   7.216  12.652  10.140
24863W        W28824   7.204  12.852   7.826
24864W        W28825   6.067  13.184   7.925
24865W        W28826   6.541  14.484   7.620
24866W        W28827   5.718  12.474  10.762
24867W        W28828   4.048  13.441  10.802
24868W        W28829   7.254  11.363  10.754
24869W        W28830   6.972  12.291   9.375
24870W        W28831   5.280  14.421  10.852
24871W        W28832   5.135  11.050   7.579
24872W        W28833   6.674  13.649   7.522
24873W        W28834   4.443  11.742  10.408
24874W        W28835   4.877  13.736  10.270
24875W        W28836   7.003  11.727  10.068
24876W        W28837   6.214  14.386   8.036
24877W        W28838   6.453  13.005   9.403
24878W        W28839   4.703  11.421  10.070
24879W        W28840   5.172  12.490  10.827
24880W        W28841   4.675  13.669   8.021
24881W        W28842   6.430  13.167   8.285
24882W        W28843   4.198  11.793  10.009
24883W        W28844   5.527  13.855   8.473
24884W        W28845   7.277  12.415   8.654
24885W        W28846   5.499  11.048  10.373
24886W        W28847   6.279  13.753   9.452
24887W        W28848   6.582  14.097   9.160
24888W        W28849   5.801  13.899   7.588
24889W        W28850   3.811  13.791  10.430
24890W        W28851   4.554  11.783   9.668
24891W        W28852   4.524  11.131   8.778
24892W        W28853   6.145  11.973   9.470
24893W        W28854   4.943  13.144   7.670
24894W        W28855   6.941  13.086   9.169
24895W        W28856   4.268  13.844  10.592
24896W        W28857   6.655  14.526   8.389
24897W        W28858   4.754  11.546   8.834
24898W        W28859   4.523  13.039   8.924
24899W        W28860   4.836  14.450   9.674
24900W        W28861   6.903  14.546  10.706
24901W        W28862   6.062  12.734   9.639
24902W        W28863   3.911  12.532   7.554
24903W        W28864   7.045  14.190   8.251
24904W        W28865   6.882  11.514   7.870
24905W        W28866   5.021  11.033  10.273
24906W        W28867   6.727  13.835   8.731
24907W        W28868   6.756  12.391   8.636
24908W        W28869   4.873  12.064   8.852
24909W        W28870   5.118  12.326  10.176
24910W        W28871   6.229  13.479  10.039
24911W        W28872   4.879  11.933  10.151
24912W        W28873   4.858  14.399   8.767
24913W        W28874   4.175  14.358  10.401
24914W        W28875   4.287  13.719   7.531
24915W        W28876   6.804  13.477   8.341
24916W        W28877   4.408  12.269  10.227
24917W        W28878   7.181  12.199   7.708
24918W        W28879   4.926  13.256   8.179
24919W        W28880   6.025  12.638  10.260
24920W        W28881   5.916  12.266   9.804
24921W        W28882   4.476  12.638   9.833
24922W        W28883   6.686  14.526   9.662
24923W        W28884   6.477  11.160  10.656
24924W        W28885   4.141  11.310  10.243
24925W        W28886   4.480  12.333   9.296
24926W        W28887   4.849  12.147   7.418
24927W        W28888   3.652  13.906   9.963
24928W        W28889   5.237  12.615   9.406
24929W        W28890   5.060  11.640   7.511
24930W        W28891   4.195  12.456   8.292
24931W        W28892   3.966  14.308   9.729
24932W        W28893   6.761  12.534   7.837
24933W        W28894   6.856  11.450  10.523
24934W        W28895   6.292  13.659   8.486
24935W        W28896   3.890  12.583  10.663
24936W        W28897   6.856  11.047   7.959
24937W        W28898   6.376  13.522   7.970
24938W        W28899   5.278  12.580   8.055
24939W        W28900   6.465  11.384   7.578
24940W        W28901   6.530  11.991   9.764
24941W        W28902   4.239  12.584   8.971
24942W        W28903   4.533  13.523   8.620
24943W        W28904   6.296  12.143   8.585
24944W        W28905   5.319  11.522   9.281
24945W        W28906   7.281  13.433   9.792
24946W        W28907   7.199  11.420   9.353
24947W        W28908   3.738  14.250   8.729
24948W        W28909   4.162  11.054  10.818
24949W        W28910   5.281  13.907  10.920
24950W        W28911   7.036  12.875   8.710
24951W        W28912   6.390  13.052   7.590
24952W        W28913   5.685  14.573   9.802
24953W        W28914   6.542  13.295  10.839
24954W        W28915   5.357  11.005   8.119
24955W        W28916   6.070  11.874   8.978
24956W        W28917   3.756  13.461   9.310
24957W        W28918   5.009  11.423   7.951
24958W        W28919   4.813  12.907  10.800
24959W        W28920   5.807  11.888   8.514
24960W        W28921   6.012  13.298   9.636
24961W        W28922   4.166  13.903  10.071
24962W        W28923   4.757  13.886  10.794
24963W        W28924   4.608  11.683   7.808
24964W        W28925   6.125  11.825   8.133
24965W        W28926   6.083  13.933  10.370
24966W        W28927   4.768  12.525   8.969
24967W        W28928   4.423  14.223   9.834
24968W        W28929   7.168  14.340   7.435
24969W        W28930   4.031  13.012  10.431
24970W        W28931   6.026  13.274   9.119
24971W        W28932   4.462  12.923   8.361
24972W        W28933   4.833  13.930   9.756
24973W        W28934   5.211  11.349   8.797
24974W        W28935   3.822  13.333   7.727
24975W        W28936   5.341  12.284   7.597
24976W        W28937   3.987  12.833   8.616
24977W        W28938   5.277  11.475  10.080
24978W        W28939   6.949  11.184   7.507
24979W        W28940   7.042  12.930  10.606
24980W        W28941   5.696  14.187  10.758
24981W        W28942   7.254  13.281  10.280
24982W        W28943   6.662  14.079  10.891
24983W        W28944   4.401  14.535   9.369
24984W        W28945   7.260  13.157   8.243
24985W        W28946   5.790  12.424   8.756
24986W        W28947   5.557  11.036   8.646
24987W        W28948   4.616  14.020   8.483
24988W        W28949   5.115  11.761   9.708
24989W        W28950   4.815  11.130   9.177
24990W        W28951   3.878  13.952   7.725
24991W        W28952   5.694  13.316   8.443
24992W        W28953   4.569  14.111  10.322
24993W        W28954   4.046  12.934   8.018
24994W        W28955   3.931  11.477   9.017
24995W        W28956   5.479  13.442   9.074
24996W        W28957   3.731  11.296   8.094
24997W        W28958   6.395  12.502  10.021
24998W        W28959   6.272  11.888   7.593
24999W        W28960   6.789  13.560   9.241
25000W        W28961   5.450  14.044   9.072
25001W        W28962   4.862  14.148   7.983
25002W        W28963   6.144  11.051   7.413
25003W        W28964   3.944  14.311   9.154
25004W        W28965   6.141  12.069  10.789
25005W        W28966   4.124  11.599  10.788
25006W        W28967   3.855  12.199   8.121
25007W        W28968   4.546  12.188   7.846
25008W        W28969   6.309  12.515  10.663
25009W        W28970   4.652  12.796   9.372
25010W        W28971   6.126  11.082   8.492
25011W        W28972   5.257  14.513   8.995
25012W        W28973   6.471  13.975   9.932
25013W        W28974   6.055  14.124   9.043
25014W        W28975   6.074  13.104   8.637
25015W        W28976   5.536  11.329   7.708
25016W        W28977   7.217  10.957   8.430
25017W        W28978   4.905  12.592   7.593
25018W        W28979   7.071  11.929   8.583
25019W        W28980   5.763  13.099   7.460
25020W        W28981   6.699  13.299  10.208
25021W        W28982   6.353  14.000   7.675
25022W        W28983   4.968  11.675  10.581
25023W        W28984   4.788  12.259   9.822
25024W        W28985   6.880  13.754  10.099
25025W        W28986   5.980  11.704  10.476
25026W        W28987   3.824  12.175  10.253
25027W        W28988   5.584  12.652   9.979
25028W        W28989   4.088  12.707   9.526
25029W        W28990   6.405  12.993   9.876
25030W        W28991   6.177  14.373  10.687
25031W        W28992   6.073  12.112  10.240
25032W        W28993   6.350  14.166   8.645
25033W        W28994   5.352  13.886   9.968
25034W        W28995   4.837  14.241   9.237
25035W        W28996   6.642  13.412   9.656
25036W        W28997   5.692  13.484  10.793
25037W        W28998   4.297  13.437   9.132
25038W        W28999   6.643  13.196   8.777
25039W        W29000   6.284  14.262   9.528
25040W        W29001   4.262  13.991   9.398
25041W        W29002   5.283  12.043  10.608
25042W        W29003   5.734  14.209   8.119
25043W        W29004   5.042  13.464  10.757
25044W        W29005   5.168  13.702   8.134
25045W        W29006   4.389  12.442   7.393
25046W        W29007   3.728  14.528  14.292
25047W        W29008   4.104  13.421  13.815
25048W        W29009   6.809  13.151  11.585
25049W        W29010   6.939  14.236  13.612
25050W        W29011   4.857  14.227  11.138
25051W        W29012   4.940  12.379  12.121
25052W        W29013   4.455  12.227  12.285
25053W        W29014   5.446  13.042  11.719
25054W        W29015   5.121  14.134  14.074
25055W        W29016   3.770  11.695  14.037
25056W        W29017   4.532  10.975  13.839
25057W        W29018   6.226  11.363  12.726
25058W        W29019   5.875  12.234  11.296
25059W        W29020   6.445  11.668  14.387
25060W        W29021   3.811  11.460  13.512
25061W        W29022   3.910  14.079  14.533
25062W        W29023   5.432  13.469  11.265
25063W        W29024   3.864  12.252  12.958
25064W        W29025   4.757  12.143  14.195
25065W        W29026   7.216  12.002  12.694
25066W        W29027   6.980  13.045  13.553
25067W        W29028   5.288  12.378  12.580
25068W        W29029   5.834  13.717  12.949
25069W        W29030   4.334  13.151  13.181
25070W        W29031   3.693  12.679  12.752
25071W        W29032   4.729  12.651  13.944
25072W        W29033   7.000  12.434  14.198
25073W        W29034   4.616  13.878  12.643
25074W        W29035   5.737  13.567  13.777
25075W        W29036   4.957  12.207  13.002
25076W        W29037   5.249  12.991  12.645
25077W        W29038   6.246  13.764  14.493
25078W        W29039   5.325  13.084  14.503
25079W        W29040   5.306  12.800  13.981
25080W        W29041   3.715  12.191  14.503
25081W        W29042   6.547  13.726  14.102
25082W        W29043   4.128  11.308  12.100
25083W        W29044   4.655  13.566  13.099
25084W        W29045   7.118  13.349  12.389
25085W        W29046   6.531  11.749  12.956
25086W        W29047   6.816  11.702  11.051
25087W        W29048   7.281  12.503  13.357
25088W        W29049   5.248  14.210  13.110
25089W        W29050   7.022  13.676  11.548
25090W        W29051   4.151  14.462  11.302
25091W        W29052   4.544  14.508  11.978
25092W        W29053   4.341  11.262  13.404
25093W        W29054   6.964  12.280  13.679
25094W        W29055   6.369  12.702  12.138
25095W        W29056   6.335  12.390  11.165
25096W        W29057   5.543  13.534  13.305
25097W        W29058   5.349  11.864  12.504
25098W        W29059   5.949  13.951  13.498
25099W        W29060   6.820  12.742  11.920
25100W        W29061   5.722  11.400  11.936
25101W        W29062   4.379  14.094  11.619
25102W        W29063   3.750  11.593  12.218
25103W        W29064   6.536  12.200  12.692
25104W        W29065   3.994  13.817  12.607
25105W        W29066   5.335  14.167  11.477
25106W        W29067   6.727  12.193  10.941
25107W        W29068   3.750  13.951  13.105
25108W        W29069   4.541  13.523  13.585
25109W        W29070   4.914  12.883  12.204
25110W        W29071   4.936  11.288  13.297
25111W        W29072   7.165  11.050  12.594
25112W        W29073   4.384  12.922  11.062
25113W        W29074   4.039  11.955  11.241
25114W        W29075   4.101  13.911  12.035
25115W        W29076   5.232  13.394  12.283
25116W        W29077   6.564  14.253  13.997
25117W        W29078   5.490  11.895  11.681
25118W        W29079   6.873  14.293  12.453
25119W        W29080   6.550  12.146  14.051
25120W        W29081   7.263  13.802  12.185
25121W        W29082   5.890  13.094  13.669
25122W        W29083   3.656  12.645  11.875
25123W        W29084   4.767  13.060  13.448
25124W        W29085   5.971  12.324  11.826
25125W        W29086   5.848  12.814  11.930
25126W        W29087   4.191  12.234  13.404
25127W        W29088   4.176  12.110  14.326
25128W        W29089   4.066  11.027  12.485
25129W        W29090   5.834  11.374  13.046
25130W        W29091   5.482  11.559  14.209
25131W        W29092   5.837  11.708  11.387
25132W        W29093   7.020  14.101  14.141
25133W        W29094   5.987  11.182  14.180
25134W        W29095   7.006  13.483  14.302
25135W        W29096   6.436  11.650  13.898
25136W        W29097   6.236  11.588  12.168
25137W        W29098   6.629  12.722  14.572
25138W        W29099   4.369  14.298  12.558
25139W        W29100   5.027  12.015  11.544
25140W        W29101   4.596  11.299  14.208
25141W        W29102   6.648  11.783  11.889
25142W        W29103   7.015  12.265  11.834
25143W        W29104   4.758  14.482  14.305
25144W        W29105   4.684  11.018  11.540
25145W        W29106   7.005  11.552  12.575
25146W        W29107   7.155  13.801  11.020
25147W        W29108   4.062  13.004  12.722
25148W        W29109   5.979  11.591  10.952
25149W        W29110   7.113  13.923  12.672
25150W        W29111   7.152  11.117  13.422
25151W        W29112   5.597  12.329  13.976
25152W        W29113   5.690  13.668  11.679
25153W        W29114   6.090  12.962  14.419
25154W        W29115   5.764  10.939  12.728
25155W        W29116   4.376  11.842  12.791
25156W        W29117   3.930  13.042  13.565
25157W        W29118   5.789  14.235  12.271
25158W        W29119   6.983  11.832  13.143
25159W        W29120   5.620  14.179  13.910
25160W        W29121   6.963  13.238  11.115
25161W        W29122   5.398  12.721  12.176
25162W        W29123   7.250  11.232  13.917
25163W        W29124   5.399  13.067  13.511
25164W        W29125   5.616  11.953  12.956
25165W        W29126   6.468  12.251  11.794
25166W        W29127   6.755  11.984  11.436
25167W        W29128   6.564  14.024  11.825
25168W        W29129   6.398  13.627  12.621
25169W        W29130   6.294  12.706  11.599
25170W        W29131   5.727  12.916  12.585
25171W        W29132   6.608  12.704  12.652
25172W        W29133   3.983  11.719  13.076
25173W        W29134   6.761  12.771  13.903
25174W        W29135   7.112  14.389  13.049
25175W        W29136   5.042  13.833  12.451
25176W        W29137   6.049  14.366  13.775
25177W        W29138   6.043  11.696  13.539
25178W        W29139   5.250  14.404  13.600
25179W        W29140   6.947  11.358  12.066
25180W        W29141   6.738  12.677  13.367
25181W        W29142   3.721  11.998  13.405
25182W        W29143   6.581  11.793  12.423
25183W        W29144   6.992  11.944  14.200
25184W        W29145   5.877  13.643  12.418
25185W        W29146   5.133  14.234  12.031
25186W        W29147   4.248  11.414  11.289
25187W        W29148   5.352  11.068  13.099
25188W        W29149   4.380  14.188  10.947
25189W        W29150   4.754  12.654  11.698
25190W        W29151   5.408  13.283  14.011
25191W        W29152   5.238  11.641  12.001
25192W        W29153   6.594  11.238  12.429
25193W        W29154   6.314  14.520  12.757
25194W        W29155   5.726  14.168  13.097
25195W        W29156   5.122  13.205  13.058
25196W        W29157   6.892  13.928  13.184
25197W        W29158   4.586  11.431  11.953
25198W        W29159   5.108  13.728  12.913
25199W        W29160   4.591  11.659  10.978
25200W        W29161   5.392  12.268  13.372
25201W        W29162   6.240  11.134  13.242
25202W        W29163   3.660  12.977  13.127
25203W        W29164   5.364  12.795  11.285
25204W        W29165   4.632  11.110  11.055
25205W        W29166   5.370  12.191  12.106
25206W        W29167   6.340  11.167  13.805
25207W        W29168   4.928  13.179  13.914
25208W        W29169   5.732  12.961  14.131
25209W        W29170   6.349  12.991  14.024
25210W        W29171   5.633  11.131  14.529
25211W        W29172   4.855  11.747  12.922
25212W        W29173   4.281  11.703  12.320
25213W        W29174   4.067  14.415  11.996
25214W        W29175   5.399  13.745  14.121
25215W        W29176   4.434  13.230  11.480
25216W        W29177   6.114  12.615  12.701
25217W        W29178   6.394  12.414  13.100
25218W        W29179   5.599  13.088  13.034
25219W        W29180   6.069  13.462  11.166
25220W        W29181   5.741  11.483  12.494
25221W        W29182   7.220  11.761  11.762
25222W        W29183   3.714  14.350  13.793
25223W        W29184   4.131  13.576  13.325
25224W        W29185   3.698  14.422  11.557
25225W        W29186   5.597  11.692  13.363
25226W        W29187   4.960  13.715  11.212
25227W        W29188   6.865  14.097  11.398
25228W        W29189   5.840  12.750  11.412
25229W        W29190   4.683  11.941  11.929
25230W        W29191   5.515  11.851  10.981
25231W        W29192   6.099  13.416  14.159
25232W        W29193   6.452  11.322  11.776
25233W        W29194   3.782  11.170  11.224
25234W        W29195   5.068  13.489  13.514
25235W        W29196   4.867  13.405  12.606
25236W        W29197   4.609  13.357  11.004
25237W        W29198   3.850  13.598  11.772
25238W        W29199   4.354  12.668  14.214
25239W        W29200   5.058  11.228  14.400
25240W        W29201   5.767  11.370  13.756
25241W        W29202   4.962  11.138  12.037
25242W        W29203   6.021  11.215  11.542
25243W        W29204   3.966  11.147  13.119
25244W        W29205   4.014  12.110  12.489
25245W        W29206   6.703  11.218  12.895
25246W        W29207   4.125  11.716  11.709
25247W        W29208   6.696  11.404  13.325
25248W        W29209   7.092  12.607  11.010
25249W        W29210   4.384  11.365  12.829
25250W        W29211   5.498  11.937  13.769
25251W        W29212   3.646  11.627  11.247
25252W        W29213   4.432  13.016  13.808
25253W        W29214   5.790  12.414  12.987
25254W        W29215   5.657  14.493  11.283
25255W        W29216   3.803  13.000  10.980
25256W        W29217   4.538  13.411  14.106
25257W        W29218   4.059  12.578  13.737
25258W        W29219   5.050  12.683  13.531
25259W        W29220   6.818  11.042  13.793
25260W        W29221   7.216  12.652  13.784
25261W        W29222   7.204  12.852  11.470
25262W        W29223   6.067  13.184  11.569
25263W        W29224   6.541  14.484  11.264
25264W        W29225   5.718  12.474  14.406
25265W        W29226   4.048  13.441  14.446
25266W        W29227   7.254  11.363  14.398
25267W        W29228   6.972  12.291  13.019
25268W        W29229   5.280  14.421  14.496
25269W        W29230   5.135  11.050  11.223
25270W        W29231   6.674  13.649  11.166
25271W        W29232   4.443  11.742  14.052
25272W        W29233   4.877  13.736  13.914
25273W        W29234   7.003  11.727  13.712
25274W        W29235   6.214  14.386  11.680
25275W        W29236   6.453  13.005  13.047
25276W        W29237   4.703  11.421  13.714
25277W        W29238   5.172  12.490  14.471
25278W        W29239   4.675  13.669  11.665
25279W        W29240   6.430  13.167  11.929
25280W        W29241   4.198  11.793  13.653
25281W        W29242   5.527  13.855  12.117
25282W        W29243   7.277  12.415  12.298
25283W        W29244   5.499  11.048  14.017
25284W        W29245   6.279  13.753  13.096
25285W        W29246   6.582  14.097  12.804
25286W        W29247   5.801  13.899  11.232
25287W        W29248   3.811  13.791  14.074
25288W        W29249   4.554  11.783  13.312
25289W        W29250   4.524  11.131  12.422
25290W        W29251   6.145  11.973  13.114
25291W        W29252   4.943  13.144  11.314
25292W        W29253   6.941  13.086  12.813
25293W        W29254   4.268  13.844  14.236
25294W        W29255   6.655  14.526  12.033
25295W        W29256   4.754  11.546  12.478
25296W        W29257   4.523  13.039  12.568
25297W        W29258   4.836  14.450  13.318
25298W        W29259   6.903  14.546  14.350
25299W        W29260   6.062  12.734  13.283
25300W        W29261   3.911  12.532  11.198
25301W        W29262   7.045  14.190  11.895
25302W        W29263   6.882  11.514  11.514
25303W        W29264   5.021  11.033  13.917
25304W        W29265   6.727  13.835  12.375
25305W        W29266   6.756  12.391  12.280
25306W        W29267   4.873  12.064  12.496
25307W        W29268   5.118  12.326  13.820
25308W        W29269   6.229  13.479  13.683
25309W        W29270   4.879  11.933  13.795
25310W        W29271   4.858  14.399  12.411
25311W        W29272   4.175  14.358  14.045
25312W        W29273   4.287  13.719  11.175
25313W        W29274   6.804  13.477  11.985
25314W        W29275   4.408  12.269  13.871
25315W        W29276   7.181  12.199  11.352
25316W        W29277   4.926  13.256  11.823
25317W        W29278   6.025  12.638  13.904
25318W        W29279   5.916  12.266  13.448
25319W        W29280   4.476  12.638  13.477
25320W        W29281   6.686  14.526  13.306
25321W        W29282   6.477  11.160  14.300
25322W        W29283   4.141  11.310  13.887
25323W        W29284   4.480  12.333  12.940
25324W        W29285   4.849  12.147  11.062
25325W        W29286   3.652  13.906  13.607
25326W        W29287   5.237  12.615  13.050
25327W        W29288   5.060  11.640  11.155
25328W        W29289   4.195  12.456  11.936
25329W        W29290   3.966  14.308  13.373
25330W        W29291   6.761  12.534  11.481
25331W        W29292   6.856  11.450  14.167
25332W        W29293   6.292  13.659  12.130
25333W        W29294   3.890  12.583  14.307
25334W        W29295   6.856  11.047  11.603
25335W        W29296   6.376  13.522  11.614
25336W        W29297   5.278  12.580  11.699
25337W        W29298   6.465  11.384  11.222
25338W        W29299   6.530  11.991  13.408
25339W        W29300   4.239  12.584  12.615
25340W        W29301   4.533  13.523  12.264
25341W        W29302   6.296  12.143  12.229
25342W        W29303   5.319  11.522  12.925
25343W        W29304   7.281  13.433  13.436
25344W        W29305   7.199  11.420  12.997
25345W        W29306   3.738  14.250  12.373
25346W        W29307   4.247  13.437  11.909
25347W        W29308   4.162  11.054  14.462
25348W        W29309   5.281  13.907  14.564
25349W        W29310   7.036  12.875  12.354
25350W        W29311   6.390  13.052  11.234
25351W        W29312   5.685  14.573  13.446
25352W        W29313   6.542  13.295  14.483
25353W        W29314   5.357  11.005  11.763
25354W        W29315   6.070  11.874  12.622
25355W        W29316   3.756  13.461  12.954
25356W        W29317   5.009  11.423  11.595
25357W        W29318   4.813  12.907  14.444
25358W        W29319   5.807  11.888  12.158
25359W        W29320   6.012  13.298  13.280
25360W        W29321   4.166  13.903  13.715
25361W        W29322   4.757  13.886  14.438
25362W        W29323   4.608  11.683  11.452
25363W        W29324   6.125  11.825  11.777
25364W        W29325   6.083  13.933  14.014
25365W        W29326   4.768  12.525  12.613
25366W        W29327   4.423  14.223  13.478
25367W        W29328   7.168  14.340  11.079
25368W        W29329   4.031  13.012  14.075
25369W        W29330   6.026  13.274  12.763
25370W        W29331   4.462  12.923  12.005
25371W        W29332   4.833  13.930  13.400
25372W        W29333   5.211  11.349  12.441
25373W        W29334   3.822  13.333  11.371
25374W        W29335   5.341  12.284  11.241
25375W        W29336   3.987  12.833  12.260
25376W        W29337   5.277  11.475  13.724
25377W        W29338   6.949  11.184  11.151
25378W        W29339   7.042  12.930  14.250
25379W        W29340   5.696  14.187  14.402
25380W        W29341   7.254  13.281  13.924
25381W        W29342   6.662  14.079  14.535
25382W        W29343   4.401  14.535  13.013
25383W        W29344   7.260  13.157  11.887
25384W        W29345   5.790  12.424  12.400
25385W        W29346   5.557  11.036  12.290
25386W        W29347   4.616  14.020  12.127
25387W        W29348   5.115  11.761  13.352
25388W        W29349   4.815  11.130  12.821
25389W        W29350   3.878  13.952  11.369
25390W        W29351   5.694  13.316  12.087
25391W        W29352   4.569  14.111  13.966
25392W        W29353   4.046  12.934  11.662
25393W        W29354   3.931  11.477  12.661
25394W        W29355   5.479  13.442  12.718
25395W        W29356   3.731  11.296  11.738
25396W        W29357   6.395  12.502  13.665
25397W        W29358   6.272  11.888  11.237
25398W        W29359   6.789  13.560  12.885
25399W        W29360   5.450  14.044  12.716
25400W        W29361   4.862  14.148  11.627
25401W        W29362   6.144  11.051  11.057
25402W        W29363   3.944  14.311  12.798
25403W        W29364   6.141  12.069  14.433
25404W        W29365   4.124  11.599  14.432
25405W        W29366   3.855  12.199  11.765
25406W        W29367   4.546  12.188  11.490
25407W        W29368   6.309  12.515  14.307
25408W        W29369   4.652  12.796  13.016
25409W        W29370   6.126  11.082  12.136
25410W        W29371   5.257  14.513  12.639
25411W        W29372   6.471  13.975  13.576
25412W        W29373   6.055  14.124  12.687
25413W        W29374   6.074  13.104  12.281
25414W        W29375   5.536  11.329  11.352
25415W        W29376   7.217  10.957  12.074
25416W        W29377   4.905  12.592  11.237
25417W        W29378   7.071  11.929  12.227
25418W        W29379   5.763  13.099  11.104
25419W        W29380   6.699  13.299  13.852
25420W        W29381   6.353  14.000  11.319
25421W        W29382   4.968  11.675  14.225
25422W        W29383   4.788  12.259  13.466
25423W        W29384   6.880  13.754  13.743
25424W        W29385   5.980  11.704  14.120
25425W        W29386   3.824  12.175  13.897
25426W        W29387   5.584  12.652  13.623
25427W        W29388   3.941  13.410  12.280
25428W        W29389   4.088  12.707  13.170
25429W        W29390   6.405  12.993  13.520
25430W        W29391   6.177  14.373  14.331
25431W        W29392   6.073  12.112  13.884
25432W        W29393   6.350  14.166  12.289
25433W        W29394   5.352  13.886  13.612
25434W        W29395   4.837  14.241  12.881
25435W        W29396   6.642  13.412  13.300
25436W        W29397   5.692  13.484  14.437
25437W        W29398   4.297  13.437  12.776
25438W        W29399   6.643  13.196  12.421
25439W        W29400   6.284  14.262  13.172
25440W        W29401   4.262  13.991  13.042
25441W        W29402   5.283  12.043  14.252
25442W        W29403   5.734  14.209  11.763
25443W        W29404   5.042  13.464  14.401
25444W        W29405   5.168  13.702  11.778
25445W        W29406   4.389  12.442  11.037
25446W        W29407   3.728  14.528  17.936
25447W        W29408   4.104  13.421  17.459
25448W        W29409   6.809  13.151  15.229
25449W        W29410   6.939  14.236  17.256
25450W        W29411   4.857  14.227  14.782
25451W        W29412   4.940  12.379  15.765
25452W        W29413   4.455  12.227  15.929
25453W        W29414   5.446  13.042  15.363
25454W        W29415   5.121  14.134  17.718
25455W        W29416   3.770  11.695  17.681
25456W        W29417   4.532  10.975  17.483
25457W        W29418   6.226  11.363  16.370
25458W        W29419   5.875  12.234  14.940
25459W        W29420   6.445  11.668  18.031
25460W        W29421   3.811  11.460  17.156
25461W        W29422   3.910  14.079  18.177
25462W        W29423   5.432  13.469  14.909
25463W        W29424   3.864  12.252  16.602
25464W        W29425   4.757  12.143  17.839
25465W        W29426   7.216  12.002  16.338
25466W        W29427   6.980  13.045  17.197
25467W        W29428   5.288  12.378  16.224
25468W        W29429   5.834  13.717  16.593
25469W        W29430   4.334  13.151  16.825
25470W        W29431   3.693  12.679  16.396
25471W        W29432   4.729  12.651  17.588
25472W        W29433   7.000  12.434  17.842
25473W        W29434   4.616  13.878  16.287
25474W        W29435   5.737  13.567  17.421
25475W        W29436   4.957  12.207  16.646
25476W        W29437   5.249  12.991  16.289
25477W        W29438   6.246  13.764  18.137
25478W        W29439   5.325  13.084  18.147
25479W        W29440   5.306  12.800  17.625
25480W        W29441   3.715  12.191  18.147
25481W        W29442   6.547  13.726  17.746
25482W        W29443   4.128  11.308  15.744
25483W        W29444   4.655  13.566  16.743
25484W        W29445   7.118  13.349  16.033
25485W        W29446   6.531  11.749  16.600
25486W        W29447   6.816  11.702  14.695
25487W        W29448   7.281  12.503  17.001
25488W        W29449   5.248  14.210  16.754
25489W        W29450   7.022  13.676  15.192
25490W        W29451   4.151  14.462  14.946
25491W        W29452   4.544  14.508  15.622
25492W        W29453   4.341  11.262  17.048
25493W        W29454   6.964  12.280  17.323
25494W        W29455   6.369  12.702  15.782
25495W        W29456   6.335  12.390  14.809
25496W        W29457   5.543  13.534  16.949
25497W        W29458   5.349  11.864  16.148
25498W        W29459   5.949  13.951  17.142
25499W        W29460   6.820  12.742  15.564
25500W        W29461   5.722  11.400  15.580
25501W        W29462   4.379  14.094  15.263
25502W        W29463   3.750  11.593  15.862
25503W        W29464   6.536  12.200  16.336
25504W        W29465   3.994  13.817  16.251
25505W        W29466   5.335  14.167  15.121
25506W        W29467   6.727  12.193  14.585
25507W        W29468   3.750  13.951  16.749
25508W        W29469   4.541  13.523  17.229
25509W        W29470   4.914  12.883  15.848
25510W        W29471   4.936  11.288  16.941
25511W        W29472   7.165  11.050  16.238
25512W        W29473   4.384  12.922  14.706
25513W        W29474   4.039  11.955  14.885
25514W        W29475   4.101  13.911  15.679
25515W        W29476   5.232  13.394  15.927
25516W        W29477   6.564  14.253  17.641
25517W        W29478   5.490  11.895  15.325
25518W        W29479   6.873  14.293  16.097
25519W        W29480   6.550  12.146  17.695
25520W        W29481   7.263  13.802  15.829
25521W        W29482   5.890  13.094  17.313
25522W        W29483   3.656  12.645  15.519
25523W        W29484   4.767  13.060  17.092
25524W        W29485   5.971  12.324  15.470
25525W        W29486   5.848  12.814  15.574
25526W        W29487   4.191  12.234  17.048
25527W        W29488   4.176  12.110  17.970
25528W        W29489   4.066  11.027  16.129
25529W        W29490   5.834  11.374  16.690
25530W        W29491   5.482  11.559  17.853
25531W        W29492   5.837  11.708  15.031
25532W        W29493   7.020  14.101  17.785
25533W        W29494   5.987  11.182  17.824
25534W        W29495   7.006  13.483  17.946
25535W        W29496   6.436  11.650  17.542
25536W        W29497   6.236  11.588  15.812
25537W        W29498   6.629  12.722  18.216
25538W        W29499   4.369  14.298  16.202
25539W        W29500   5.027  12.015  15.188
25540W        W29501   4.596  11.299  17.852
25541W        W29502   6.648  11.783  15.533
25542W        W29503   7.015  12.265  15.478
25543W        W29504   4.758  14.482  17.949
25544W        W29505   4.684  11.018  15.184
25545W        W29506   7.005  11.552  16.219
25546W        W29507   7.155  13.801  14.664
25547W        W29508   4.062  13.004  16.366
25548W        W29509   5.979  11.591  14.596
25549W        W29510   7.113  13.923  16.316
25550W        W29511   7.152  11.117  17.066
25551W        W29512   5.597  12.329  17.620
25552W        W29513   5.690  13.668  15.323
25553W        W29514   6.090  12.962  18.063
25554W        W29515   5.764  10.939  16.372
25555W        W29516   4.376  11.842  16.435
25556W        W29517   3.930  13.042  17.209
25557W        W29518   5.789  14.235  15.915
25558W        W29519   6.983  11.832  16.787
25559W        W29520   5.620  14.179  17.554
25560W        W29521   6.963  13.238  14.759
25561W        W29522   5.398  12.721  15.820
25562W        W29523   7.250  11.232  17.561
25563W        W29524   5.399  13.067  17.155
25564W        W29525   5.616  11.953  16.600
25565W        W29526   6.468  12.251  15.438
25566W        W29527   6.755  11.984  15.080
25567W        W29528   6.564  14.024  15.469
25568W        W29529   6.398  13.627  16.265
25569W        W29530   6.294  12.706  15.243
25570W        W29531   5.727  12.916  16.229
25571W        W29532   6.608  12.704  16.296
25572W        W29533   3.983  11.719  16.720
25573W        W29534   6.761  12.771  17.547
25574W        W29535   7.112  14.389  16.693
25575W        W29536   5.042  13.833  16.095
25576W        W29537   6.049  14.366  17.419
25577W        W29538   6.043  11.696  17.183
25578W        W29539   5.250  14.404  17.244
25579W        W29540   6.947  11.358  15.710
25580W        W29541   6.738  12.677  17.011
25581W        W29542   3.721  11.998  17.049
25582W        W29543   6.581  11.793  16.067
25583W        W29544   6.992  11.944  17.844
25584W        W29545   5.877  13.643  16.062
25585W        W29546   5.133  14.234  15.675
25586W        W29547   4.248  11.414  14.933
25587W        W29548   5.352  11.068  16.743
25588W        W29549   4.380  14.188  14.591
25589W        W29550   4.754  12.654  15.342
25590W        W29551   5.408  13.283  17.655
25591W        W29552   5.238  11.641  15.645
25592W        W29553   6.594  11.238  16.073
25593W        W29554   6.314  14.520  16.401
25594W        W29555   5.726  14.168  16.741
25595W        W29556   5.122  13.205  16.702
25596W        W29557   6.892  13.928  16.828
25597W        W29558   4.586  11.431  15.597
25598W        W29559   5.108  13.728  16.557
25599W        W29560   4.591  11.659  14.622
25600W        W29561   5.392  12.268  17.016
25601W        W29562   6.240  11.134  16.886
25602W        W29563   3.660  12.977  16.771
25603W        W29564   5.364  12.795  14.929
25604W        W29565   4.632  11.110  14.699
25605W        W29566   5.370  12.191  15.750
25606W        W29567   6.340  11.167  17.449
25607W        W29568   4.928  13.179  17.558
25608W        W29569   5.732  12.961  17.775
25609W        W29570   6.349  12.991  17.668
25610W        W29571   5.633  11.131  18.173
25611W        W29572   4.855  11.747  16.566
25612W        W29573   4.281  11.703  15.964
25613W        W29574   4.067  14.415  15.640
25614W        W29575   5.399  13.745  17.765
25615W        W29576   4.434  13.230  15.124
25616W        W29577   6.114  12.615  16.345
25617W        W29578   6.394  12.414  16.744
25618W        W29579   5.599  13.088  16.678
25619W        W29580   6.069  13.462  14.810
25620W        W29581   5.741  11.483  16.138
25621W        W29582   7.220  11.761  15.406
25622W        W29583   3.714  14.350  17.437
25623W        W29584   4.131  13.576  16.969
25624W        W29585   3.698  14.422  15.201
25625W        W29586   5.597  11.692  17.007
25626W        W29587   4.960  13.715  14.856
25627W        W29588   6.865  14.097  15.042
25628W        W29589   5.840  12.750  15.056
25629W        W29590   4.683  11.941  15.573
25630W        W29591   5.515  11.851  14.625
25631W        W29592   6.099  13.416  17.803
25632W        W29593   6.452  11.322  15.420
25633W        W29594   3.782  11.170  14.868
25634W        W29595   5.068  13.489  17.158
25635W        W29596   4.867  13.405  16.250
25636W        W29597   4.609  13.357  14.648
25637W        W29598   3.850  13.598  15.416
25638W        W29599   4.354  12.668  17.858
25639W        W29600   5.058  11.228  18.044
25640W        W29601   5.767  11.370  17.400
25641W        W29602   4.962  11.138  15.681
25642W        W29603   6.021  11.215  15.186
25643W        W29604   3.966  11.147  16.763
25644W        W29605   4.014  12.110  16.133
25645W        W29606   6.703  11.218  16.539
25646W        W29607   4.125  11.716  15.353
25647W        W29608   6.696  11.404  16.969
25648W        W29609   7.092  12.607  14.654
25649W        W29610   4.384  11.365  16.473
25650W        W29611   5.498  11.937  17.413
25651W        W29612   3.646  11.627  14.891
25652W        W29613   4.432  13.016  17.452
25653W        W29614   5.790  12.414  16.631
25654W        W29615   5.657  14.493  14.927
25655W        W29616   3.803  13.000  14.624
25656W        W29617   4.538  13.411  17.750
25657W        W29618   4.059  12.578  17.381
25658W        W29619   5.050  12.683  17.175
25659W        W29620   6.818  11.042  17.437
25660W        W29621   7.216  12.652  17.428
25661W        W29622   7.204  12.852  15.114
25662W        W29623   6.067  13.184  15.213
25663W        W29624   6.541  14.484  14.908
25664W        W29625   5.718  12.474  18.050
25665W        W29626   4.048  13.441  18.090
25666W        W29627   7.254  11.363  18.042
25667W        W29628   6.972  12.291  16.663
25668W        W29629   5.280  14.421  18.140
25669W        W29630   5.135  11.050  14.867
25670W        W29631   6.674  13.649  14.810
25671W        W29632   4.443  11.742  17.696
25672W        W29633   4.877  13.736  17.558
25673W        W29634   7.003  11.727  17.356
25674W        W29635   6.214  14.386  15.324
25675W        W29636   6.453  13.005  16.691
25676W        W29637   4.703  11.421  17.358
25677W        W29638   5.172  12.490  18.115
25678W        W29639   4.675  13.669  15.309
25679W        W29640   6.430  13.167  15.573
25680W        W29641   4.198  11.793  17.297
25681W        W29642   5.527  13.855  15.761
25682W        W29643   7.277  12.415  15.942
25683W        W29644   5.499  11.048  17.661
25684W        W29645   6.279  13.753  16.740
25685W        W29646   6.582  14.097  16.448
25686W        W29647   5.801  13.899  14.876
25687W        W29648   3.811  13.791  17.718
25688W        W29649   4.554  11.783  16.956
25689W        W29650   4.524  11.131  16.066
25690W        W29651   6.145  11.973  16.758
25691W        W29652   4.943  13.144  14.958
25692W        W29653   6.941  13.086  16.457
25693W        W29654   4.268  13.844  17.880
25694W        W29655   6.655  14.526  15.677
25695W        W29656   4.754  11.546  16.122
25696W        W29657   4.523  13.039  16.212
25697W        W29658   4.836  14.450  16.962
25698W        W29659   6.903  14.546  17.994
25699W        W29660   6.062  12.734  16.927
25700W        W29661   3.911  12.532  14.842
25701W        W29662   7.045  14.190  15.539
25702W        W29663   6.882  11.514  15.158
25703W        W29664   5.021  11.033  17.561
25704W        W29665   6.727  13.835  16.019
25705W        W29666   6.756  12.391  15.924
25706W        W29667   4.873  12.064  16.140
25707W        W29668   5.118  12.326  17.464
25708W        W29669   6.229  13.479  17.327
25709W        W29670   4.879  11.933  17.439
25710W        W29671   4.858  14.399  16.055
25711W        W29672   4.175  14.358  17.689
25712W        W29673   4.287  13.719  14.819
25713W        W29674   6.804  13.477  15.629
25714W        W29675   4.408  12.269  17.515
25715W        W29676   7.181  12.199  14.996
25716W        W29677   4.926  13.256  15.467
25717W        W29678   6.025  12.638  17.548
25718W        W29679   5.916  12.266  17.092
25719W        W29680   4.476  12.638  17.121
25720W        W29681   6.686  14.526  16.950
25721W        W29682   6.477  11.160  17.944
25722W        W29683   4.141  11.310  17.531
25723W        W29684   4.480  12.333  16.584
25724W        W29685   4.849  12.147  14.706
25725W        W29686   3.652  13.906  17.251
25726W        W29687   5.237  12.615  16.694
25727W        W29688   5.060  11.640  14.799
25728W        W29689   4.195  12.456  15.580
25729W        W29690   3.966  14.308  17.017
25730W        W29691   6.761  12.534  15.125
25731W        W29692   6.856  11.450  17.811
25732W        W29693   6.292  13.659  15.774
25733W        W29694   3.890  12.583  17.951
25734W        W29695   6.856  11.047  15.247
25735W        W29696   6.376  13.522  15.258
25736W        W29697   5.278  12.580  15.343
25737W        W29698   6.465  11.384  14.866
25738W        W29699   6.530  11.991  17.052
25739W        W29700   4.239  12.584  16.259
25740W        W29701   4.533  13.523  15.908
25741W        W29702   6.296  12.143  15.873
25742W        W29703   5.319  11.522  16.569
25743W        W29704   7.281  13.433  17.080
25744W        W29705   7.199  11.420  16.641
25745W        W29706   3.738  14.250  16.017
25746W        W29707   4.247  13.437  15.553
25747W        W29708   4.162  11.054  18.106
25748W        W29709   5.281  13.907  18.208
25749W        W29710   7.036  12.875  15.998
25750W        W29711   6.390  13.052  14.878
25751W        W29712   5.685  14.573  17.090
25752W        W29713   6.542  13.295  18.127
25753W        W29714   5.357  11.005  15.407
25754W        W29715   6.070  11.874  16.266
25755W        W29716   3.756  13.461  16.598
25756W        W29717   5.009  11.423  15.239
25757W        W29718   4.813  12.907  18.088
25758W        W29719   5.807  11.888  15.802
25759W        W29720   6.012  13.298  16.924
25760W        W29721   4.166  13.903  17.359
25761W        W29722   4.757  13.886  18.082
25762W        W29723   4.608  11.683  15.096
25763W        W29724   6.125  11.825  15.421
25764W        W29725   6.083  13.933  17.658
25765W        W29726   4.768  12.525  16.257
25766W        W29727   4.423  14.223  17.122
25767W        W29728   7.168  14.340  14.723
25768W        W29729   4.031  13.012  17.719
25769W        W29730   6.026  13.274  16.407
25770W        W29731   4.462  12.923  15.649
25771W        W29732   4.833  13.930  17.044
25772W        W29733   5.211  11.349  16.085
25773W        W29734   3.822  13.333  15.015
25774W        W29735   5.341  12.284  14.885
25775W        W29736   3.987  12.833  15.904
25776W        W29737   5.277  11.475  17.368
25777W        W29738   6.949  11.184  14.795
25778W        W29739   7.042  12.930  17.894
25779W        W29740   5.696  14.187  18.046
25780W        W29741   7.254  13.281  17.568
25781W        W29742   6.662  14.079  18.179
25782W        W29743   4.401  14.535  16.657
25783W        W29744   7.260  13.157  15.531
25784W        W29745   5.790  12.424  16.044
25785W        W29746   5.557  11.036  15.934
25786W        W29747   4.616  14.020  15.771
25787W        W29748   5.115  11.761  16.996
25788W        W29749   4.815  11.130  16.465
25789W        W29750   3.878  13.952  15.013
25790W        W29751   5.694  13.316  15.731
25791W        W29752   4.569  14.111  17.610
25792W        W29753   4.046  12.934  15.306
25793W        W29754   3.931  11.477  16.305
25794W        W29755   5.479  13.442  16.362
25795W        W29756   3.731  11.296  15.382
25796W        W29757   6.395  12.502  17.309
25797W        W29758   6.272  11.888  14.881
25798W        W29759   6.789  13.560  16.529
25799W        W29760   5.450  14.044  16.360
25800W        W29761   4.862  14.148  15.271
25801W        W29762   6.144  11.051  14.701
25802W        W29763   3.944  14.311  16.442
25803W        W29764   6.141  12.069  18.077
25804W        W29765   4.124  11.599  18.076
25805W        W29766   3.855  12.199  15.409
25806W        W29767   4.546  12.188  15.134
25807W        W29768   6.309  12.515  17.951
25808W        W29769   4.652  12.796  16.660
25809W        W29770   6.126  11.082  15.780
25810W        W29771   5.257  14.513  16.283
25811W        W29772   6.471  13.975  17.220
25812W        W29773   6.055  14.124  16.331
25813W        W29774   6.074  13.104  15.925
25814W        W29775   5.536  11.329  14.996
25815W        W29776   7.217  10.957  15.718
25816W        W29777   4.905  12.592  14.881
25817W        W29778   7.071  11.929  15.871
25818W        W29779   5.763  13.099  14.748
25819W        W29780   6.699  13.299  17.496
25820W        W29781   6.353  14.000  14.963
25821W        W29782   4.968  11.675  17.869
25822W        W29783   4.788  12.259  17.110
25823W        W29784   6.880  13.754  17.387
25824W        W29785   5.980  11.704  17.764
25825W        W29786   3.824  12.175  17.541
25826W        W29787   5.584  12.652  17.267
25827W        W29788   3.941  13.410  15.924
25828W        W29789   4.088  12.707  16.814
25829W        W29790   6.405  12.993  17.164
25830W        W29791   6.177  14.373  17.975
25831W        W29792   6.073  12.112  17.528
25832W        W29793   6.350  14.166  15.933
25833W        W29794   5.352  13.886  17.256
25834W        W29795   4.837  14.241  16.525
25835W        W29796   6.642  13.412  16.944
25836W        W29797   5.692  13.484  18.081
25837W        W29798   4.297  13.437  16.420
25838W        W29799   6.643  13.196  16.065
25839W        W29800   6.284  14.262  16.816
25840W        W29801   4.262  13.991  16.686
25841W        W29802   5.283  12.043  17.896
25842W        W29803   5.734  14.209  15.407
25843W        W29804   5.042  13.464  18.045
25844W        W29805   5.168  13.702  15.422
25845W        W29806   4.389  12.442  14.681
25846W        W29807   3.728  14.528  21.580
25847W        W29808   4.104  13.421  21.103
25848W        W29809   6.809  13.151  18.873
25849W        W29810   6.939  14.236  20.900
25850W        W29811   4.857  14.227  18.426
25851W        W29812   4.940  12.379  19.409
25852W        W29813   4.455  12.227  19.573
25853W        W29814   5.446  13.042  19.007
25854W        W29815   5.121  14.134  21.362
25855W        W29816   3.770  11.695  21.325
25856W        W29817   4.532  10.975  21.127
25857W        W29818   6.226  11.363  20.014
25858W        W29819   5.875  12.234  18.584
25859W        W29820   6.445  11.668  21.675
25860W        W29821   3.811  11.460  20.800
25861W        W29822   3.910  14.079  21.821
25862W        W29823   5.432  13.469  18.553
25863W        W29824   3.864  12.252  20.246
25864W        W29825   4.757  12.143  21.483
25865W        W29826   7.216  12.002  19.982
25866W        W29827   6.980  13.045  20.841
25867W        W29828   5.288  12.378  19.868
25868W        W29829   5.834  13.717  20.237
25869W        W29830   4.334  13.151  20.469
25870W        W29831   3.693  12.679  20.040
25871W        W29832   4.729  12.651  21.232
25872W        W29833   7.000  12.434  21.486
25873W        W29834   4.616  13.878  19.931
25874W        W29835   5.737  13.567  21.065
25875W        W29836   4.957  12.207  20.290
25876W        W29837   5.249  12.991  19.933
25877W        W29838   6.246  13.764  21.781
25878W        W29839   5.325  13.084  21.791
25879W        W29840   5.306  12.800  21.269
25880W        W29841   3.715  12.191  21.791
25881W        W29842   6.547  13.726  21.390
25882W        W29843   4.128  11.308  19.388
25883W        W29844   4.655  13.566  20.387
25884W        W29845   7.118  13.349  19.677
25885W        W29846   6.531  11.749  20.244
25886W        W29847   6.816  11.702  18.339
25887W        W29848   7.281  12.503  20.645
25888W        W29849   5.248  14.210  20.398
25889W        W29850   7.022  13.676  18.836
25890W        W29851   4.151  14.462  18.590
25891W        W29852   4.544  14.508  19.266
25892W        W29853   4.341  11.262  20.692
25893W        W29854   6.964  12.280  20.967
25894W        W29855   6.369  12.702  19.426
25895W        W29856   6.335  12.390  18.453
25896W        W29857   5.543  13.534  20.593
25897W        W29858   5.349  11.864  19.792
25898W        W29859   5.949  13.951  20.786
25899W        W29860   6.820  12.742  19.208
25900W        W29861   5.722  11.400  19.224
25901W        W29862   4.379  14.094  18.907
25902W        W29863   3.750  11.593  19.506
25903W        W29864   6.536  12.200  19.980
25904W        W29865   3.994  13.817  19.895
25905W        W29866   5.335  14.167  18.765
25906W        W29867   6.727  12.193  18.229
25907W        W29868   3.750  13.951  20.393
25908W        W29869   4.541  13.523  20.873
25909W        W29870   4.914  12.883  19.492
25910W        W29871   4.936  11.288  20.585
25911W        W29872   7.165  11.050  19.882
25912W        W29873   4.384  12.922  18.350
25913W        W29874   4.039  11.955  18.529
25914W        W29875   4.101  13.911  19.323
25915W        W29876   5.232  13.394  19.571
25916W        W29877   6.564  14.253  21.285
25917W        W29878   5.490  11.895  18.969
25918W        W29879   6.873  14.293  19.741
25919W        W29880   6.550  12.146  21.339
25920W        W29881   7.263  13.802  19.473
25921W        W29882   5.890  13.094  20.957
25922W        W29883   3.656  12.645  19.163
25923W        W29884   4.767  13.060  20.736
25924W        W29885   5.971  12.324  19.114
25925W        W29886   5.848  12.814  19.218
25926W        W29887   4.191  12.234  20.692
25927W        W29888   4.176  12.110  21.614
25928W        W29889   4.066  11.027  19.773
25929W        W29890   5.834  11.374  20.334
25930W        W29891   5.482  11.559  21.497
25931W        W29892   5.837  11.708  18.675
25932W        W29893   7.020  14.101  21.429
25933W        W29894   5.987  11.182  21.468
25934W        W29895   7.006  13.483  21.590
25935W        W29896   6.436  11.650  21.186
25936W        W29897   6.236  11.588  19.456
25937W        W29898   6.629  12.722  21.860
25938W        W29899   4.369  14.298  19.846
25939W        W29900   5.027  12.015  18.832
25940W        W29901   4.596  11.299  21.496
25941W        W29902   6.648  11.783  19.177
25942W        W29903   7.015  12.265  19.122
25943W        W29904   4.758  14.482  21.593
25944W        W29905   4.684  11.018  18.828
25945W        W29906   7.005  11.552  19.863
25946W        W29907   7.155  13.801  18.308
25947W        W29908   4.062  13.004  20.010
25948W        W29909   5.979  11.591  18.240
25949W        W29910   7.113  13.923  19.960
25950W        W29911   7.152  11.117  20.710
25951W        W29912   5.597  12.329  21.264
25952W        W29913   5.690  13.668  18.967
25953W        W29914   6.090  12.962  21.707
25954W        W29915   5.764  10.939  20.016
25955W        W29916   4.376  11.842  20.079
25956W        W29917   3.930  13.042  20.853
25957W        W29918   5.789  14.235  19.559
25958W        W29919   6.983  11.832  20.431
25959W        W29920   5.620  14.179  21.198
25960W        W29921   6.963  13.238  18.403
25961W        W29922   5.398  12.721  19.464
25962W        W29923   7.250  11.232  21.205
25963W        W29924   5.399  13.067  20.799
25964W        W29925   5.616  11.953  20.244
25965W        W29926   6.468  12.251  19.082
25966W        W29927   6.755  11.984  18.724
25967W        W29928   6.564  14.024  19.113
25968W        W29929   6.398  13.627  19.909
25969W        W29930   6.294  12.706  18.887
25970W        W29931   5.727  12.916  19.873
25971W        W29932   6.608  12.704  19.940
25972W        W29933   3.983  11.719  20.364
25973W        W29934   6.761  12.771  21.191
25974W        W29935   7.112  14.389  20.337
25975W        W29936   5.042  13.833  19.739
25976W        W29937   6.049  14.366  21.063
25977W        W29938   6.043  11.696  20.827
25978W        W29939   5.250  14.404  20.888
25979W        W29940   6.947  11.358  19.354
25980W        W29941   6.738  12.677  20.655
25981W        W29942   3.721  11.998  20.693
25982W        W29943   6.581  11.793  19.711
25983W        W29944   6.992  11.944  21.488
25984W        W29945   5.877  13.643  19.706
25985W        W29946   5.133  14.234  19.319
25986W        W29947   4.248  11.414  18.577
25987W        W29948   5.352  11.068  20.387
25988W        W29949   4.380  14.188  18.235
25989W        W29950   4.754  12.654  18.986
25990W        W29951   5.408  13.283  21.299
25991W        W29952   5.238  11.641  19.289
25992W        W29953   6.594  11.238  19.717
25993W        W29954   6.314  14.520  20.045
25994W        W29955   5.726  14.168  20.385
25995W        W29956   5.122  13.205  20.346
25996W        W29957   6.892  13.928  20.472
25997W        W29958   4.586  11.431  19.241
25998W        W29959   5.108  13.728  20.201
25999W        W29960   4.591  11.659  18.266
26000W        W29961   5.392  12.268  20.660
26001W        W29962   6.240  11.134  20.530
26002W        W29963   3.660  12.977  20.415
26003W        W29964   5.364  12.795  18.573
26004W        W29965   4.632  11.110  18.343
26005W        W29966   5.370  12.191  19.394
26006W        W29967   6.340  11.167  21.093
26007W        W29968   4.928  13.179  21.202
26008W        W29969   5.732  12.961  21.419
26009W        W29970   6.349  12.991  21.312
26010W        W29971   5.633  11.131  21.817
26011W        W29972   4.855  11.747  20.210
26012W        W29973   4.281  11.703  19.608
26013W        W29974   4.067  14.415  19.284
26014W        W29975   5.399  13.745  21.409
26015W        W29976   4.434  13.230  18.768
26016W        W29977   6.114  12.615  19.989
26017W        W29978   6.394  12.414  20.388
26018W        W29979   5.599  13.088  20.322
26019W        W29980   6.069  13.462  18.454
26020W        W29981   5.741  11.483  19.782
26021W        W29982   7.220  11.761  19.050
26022W        W29983   3.714  14.350  21.081
26023W        W29984   4.131  13.576  20.613
26024W        W29985   3.698  14.422  18.845
26025W        W29986   5.597  11.692  20.651
26026W        W29987   4.960  13.715  18.500
26027W        W29988   6.865  14.097  18.686
26028W        W29989   5.840  12.750  18.700
26029W        W29990   4.683  11.941  19.217
26030W        W29991   5.515  11.851  18.269
26031W        W29992   6.099  13.416  21.447
26032W        W29993   6.452  11.322  19.064
26033W        W29994   3.782  11.170  18.512
26034W        W29995   5.068  13.489  20.802
26035W        W29996   4.867  13.405  19.894
26036W        W29997   4.609  13.357  18.292
26037W        W29998   3.850  13.598  19.060
26038W        W29999   4.354  12.668  21.502
26039W        W30000   5.058  11.228  21.688
26040W        W30001   5.767  11.370  21.044
26041W        W30002   4.962  11.138  19.325
26042W        W30003   6.021  11.215  18.830
26043W        W30004   3.966  11.147  20.407
26044W        W30005   4.014  12.110  19.777
26045W        W30006   6.703  11.218  20.183
26046W        W30007   4.125  11.716  18.997
26047W        W30008   6.696  11.404  20.613
26048W        W30009   7.092  12.607  18.298
26049W        W30010   4.384  11.365  20.117
26050W        W30011   5.498  11.937  21.057
26051W        W30012   3.646  11.627  18.535
26052W        W30013   4.432  13.016  21.096
26053W        W30014   5.790  12.414  20.275
26054W        W30015   3.803  13.000  18.268
26055W        W30016   4.538  13.411  21.394
26056W        W30017   4.059  12.578  21.025
26057W        W30018   5.050  12.683  20.819
26058W        W30019   6.818  11.042  21.081
26059W        W30020   7.216  12.652  21.072
26060W        W30021   7.204  12.852  18.758
26061W        W30022   6.067  13.184  18.857
26062W        W30023   6.541  14.484  18.552
26063W        W30024   5.718  12.474  21.694
26064W        W30025   4.048  13.441  21.734
26065W        W30026   7.254  11.363  21.686
26066W        W30027   6.972  12.291  20.307
26067W        W30028   5.280  14.421  21.784
26068W        W30029   5.135  11.050  18.511
26069W        W30030   6.674  13.649  18.454
26070W        W30031   4.443  11.742  21.340
26071W        W30032   4.877  13.736  21.202
26072W        W30033   7.003  11.727  21.000
26073W        W30034   6.214  14.386  18.968
26074W        W30035   6.453  13.005  20.335
26075W        W30036   4.703  11.421  21.002
26076W        W30037   5.172  12.490  21.759
26077W        W30038   4.675  13.669  18.953
26078W        W30039   6.430  13.167  19.217
26079W        W30040   4.198  11.793  20.941
26080W        W30041   5.527  13.855  19.405
26081W        W30042   7.277  12.415  19.586
26082W        W30043   5.499  11.048  21.305
26083W        W30044   6.279  13.753  20.384
26084W        W30045   6.582  14.097  20.092
26085W        W30046   5.801  13.899  18.520
26086W        W30047   3.811  13.791  21.362
26087W        W30048   4.554  11.783  20.600
26088W        W30049   4.524  11.131  19.710
26089W        W30050   6.145  11.973  20.402
26090W        W30051   4.943  13.144  18.602
26091W        W30052   6.941  13.086  20.101
26092W        W30053   4.268  13.844  21.524
26093W        W30054   6.655  14.526  19.321
26094W        W30055   4.754  11.546  19.766
26095W        W30056   4.523  13.039  19.856
26096W        W30057   4.836  14.450  20.606
26097W        W30058   6.903  14.546  21.638
26098W        W30059   6.062  12.734  20.571
26099W        W30060   3.911  12.532  18.486
26100W        W30061   7.045  14.190  19.183
26101W        W30062   6.882  11.514  18.802
26102W        W30063   5.021  11.033  21.205
26103W        W30064   6.727  13.835  19.663
26104W        W30065   6.756  12.391  19.568
26105W        W30066   4.873  12.064  19.784
26106W        W30067   5.118  12.326  21.108
26107W        W30068   6.229  13.479  20.971
26108W        W30069   4.879  11.933  21.083
26109W        W30070   4.858  14.399  19.699
26110W        W30071   4.175  14.358  21.333
26111W        W30072   4.287  13.719  18.463
26112W        W30073   6.804  13.477  19.273
26113W        W30074   4.408  12.269  21.159
26114W        W30075   7.181  12.199  18.640
26115W        W30076   4.926  13.256  19.111
26116W        W30077   6.025  12.638  21.192
26117W        W30078   5.916  12.266  20.736
26118W        W30079   4.476  12.638  20.765
26119W        W30080   6.686  14.526  20.594
26120W        W30081   6.477  11.160  21.588
26121W        W30082   4.141  11.310  21.175
26122W        W30083   4.480  12.333  20.228
26123W        W30084   4.849  12.147  18.350
26124W        W30085   3.652  13.906  20.895
26125W        W30086   5.237  12.615  20.338
26126W        W30087   5.060  11.640  18.443
26127W        W30088   4.195  12.456  19.224
26128W        W30089   3.966  14.308  20.661
26129W        W30090   6.761  12.534  18.769
26130W        W30091   6.856  11.450  21.455
26131W        W30092   6.292  13.659  19.418
26132W        W30093   3.890  12.583  21.595
26133W        W30094   6.856  11.047  18.891
26134W        W30095   6.376  13.522  18.902
26135W        W30096   5.278  12.580  18.987
26136W        W30097   6.465  11.384  18.510
26137W        W30098   6.530  11.991  20.696
26138W        W30099   4.239  12.584  19.903
26139W        W30100   4.533  13.523  19.552
26140W        W30101   6.296  12.143  19.517
26141W        W30102   5.319  11.522  20.213
26142W        W30103   7.281  13.433  20.724
26143W        W30104   7.199  11.420  20.285
26144W        W30105   3.738  14.250  19.661
26145W        W30106   4.247  13.437  19.197
26146W        W30107   4.162  11.054  21.750
26147W        W30108   5.281  13.907  21.852
26148W        W30109   7.036  12.875  19.642
26149W        W30110   6.390  13.052  18.522
26150W        W30111   5.685  14.573  20.734
26151W        W30112   6.542  13.295  21.771
26152W        W30113   5.357  11.005  19.051
26153W        W30114   6.070  11.874  19.910
26154W        W30115   3.756  13.461  20.242
26155W        W30116   5.009  11.423  18.883
26156W        W30117   4.813  12.907  21.732
26157W        W30118   5.807  11.888  19.446
26158W        W30119   6.012  13.298  20.568
26159W        W30120   4.166  13.903  21.003
26160W        W30121   4.757  13.886  21.726
26161W        W30122   4.608  11.683  18.740
26162W        W30123   6.125  11.825  19.065
26163W        W30124   6.083  13.933  21.302
26164W        W30125   4.768  12.525  19.901
26165W        W30126   4.423  14.223  20.766
26166W        W30127   7.168  14.340  18.367
26167W        W30128   4.031  13.012  21.363
26168W        W30129   6.026  13.274  20.051
26169W        W30130   4.462  12.923  19.293
26170W        W30131   4.833  13.930  20.688
26171W        W30132   5.211  11.349  19.729
26172W        W30133   3.822  13.333  18.659
26173W        W30134   5.341  12.284  18.529
26174W        W30135   3.987  12.833  19.548
26175W        W30136   5.277  11.475  21.012
26176W        W30137   6.949  11.184  18.439
26177W        W30138   7.042  12.930  21.538
26178W        W30139   5.696  14.187  21.690
26179W        W30140   7.254  13.281  21.212
26180W        W30141   6.662  14.079  21.823
26181W        W30142   4.401  14.535  20.301
26182W        W30143   7.260  13.157  19.175
26183W        W30144   5.790  12.424  19.688
26184W        W30145   5.557  11.036  19.578
26185W        W30146   4.616  14.020  19.415
26186W        W30147   5.115  11.761  20.640
26187W        W30148   4.815  11.130  20.109
26188W        W30149   3.878  13.952  18.657
26189W        W30150   5.694  13.316  19.375
26190W        W30151   4.569  14.111  21.254
26191W        W30152   4.046  12.934  18.950
26192W        W30153   3.931  11.477  19.949
26193W        W30154   5.479  13.442  20.006
26194W        W30155   3.731  11.296  19.026
26195W        W30156   6.395  12.502  20.953
26196W        W30157   6.272  11.888  18.525
26197W        W30158   6.789  13.560  20.173
26198W        W30159   5.450  14.044  20.004
26199W        W30160   4.862  14.148  18.915
26200W        W30161   6.144  11.051  18.345
26201W        W30162   3.944  14.311  20.086
26202W        W30163   6.141  12.069  21.721
26203W        W30164   4.124  11.599  21.720
26204W        W30165   3.855  12.199  19.053
26205W        W30166   4.546  12.188  18.778
26206W        W30167   6.309  12.515  21.595
26207W        W30168   4.652  12.796  20.304
26208W        W30169   6.126  11.082  19.424
26209W        W30170   5.257  14.513  19.927
26210W        W30171   6.471  13.975  20.864
26211W        W30172   6.055  14.124  19.975
26212W        W30173   6.074  13.104  19.569
26213W        W30174   5.536  11.329  18.640
26214W        W30175   7.217  10.957  19.362
26215W        W30176   4.905  12.592  18.525
26216W        W30177   7.071  11.929  19.515
26217W        W30178   5.763  13.099  18.392
26218W        W30179   6.699  13.299  21.140
26219W        W30180   6.353  14.000  18.607
26220W        W30181   4.968  11.675  21.513
26221W        W30182   4.788  12.259  20.754
26222W        W30183   6.880  13.754  21.031
26223W        W30184   5.980  11.704  21.408
26224W        W30185   3.824  12.175  21.185
26225W        W30186   5.584  12.652  20.911
26226W        W30187   3.941  13.410  19.568
26227W        W30188   4.088  12.707  20.458
26228W        W30189   6.405  12.993  20.808
26229W        W30190   6.177  14.373  21.619
26230W        W30191   6.073  12.112  21.172
26231W        W30192   6.350  14.166  19.577
26232W        W30193   5.352  13.886  20.900
26233W        W30194   4.837  14.241  20.169
26234W        W30195   6.642  13.412  20.588
26235W        W30196   5.692  13.484  21.725
26236W        W30197   4.297  13.437  20.064
26237W        W30198   6.643  13.196  19.709
26238W        W30199   6.284  14.262  20.460
26239W        W30200   4.262  13.991  20.330
26240W        W30201   5.283  12.043  21.540
26241W        W30202   5.734  14.209  19.051
26242W        W30203   5.042  13.464  21.689
26243W        W30204   5.168  13.702  19.066
26244W        W30205   4.389  12.442  18.325
26245W        W30206   6.809  13.151  22.518
26246W        W30207   4.857  14.227  22.071
26247W        W30208   4.940  12.379  23.054
26248W        W30209   5.446  13.042  22.652
26249W        W30210   5.875  12.234  22.229
26250W        W30211   5.432  13.469  22.198
26251W        W30212   4.128  11.308  23.033
26252W        W30213   6.816  11.702  21.984
26253W        W30214   7.022  13.676  22.481
26254W        W30215   4.151  14.462  22.235
26255W        W30216   4.544  14.508  22.911
26256W        W30217   6.369  12.702  23.071
26257W        W30218   6.335  12.390  22.098
26258W        W30219   6.820  12.742  22.853
26259W        W30220   5.722  11.400  22.869
26260W        W30221   4.379  14.094  22.552
26261W        W30222   5.335  14.167  22.410
26262W        W30223   6.727  12.193  21.874
26263W        W30224   4.914  12.883  23.137
26264W        W30225   4.384  12.922  21.995
26265W        W30226   4.039  11.955  22.174
26266W        W30227   4.101  13.911  22.968
26267W        W30228   5.232  13.394  23.216
26268W        W30229   5.490  11.895  22.614
26269W        W30230   3.656  12.645  22.808
26270W        W30231   5.971  12.324  22.759
26271W        W30232   5.848  12.814  22.863
26272W        W30233   5.837  11.708  22.320
26273W        W30234   6.236  11.588  23.101
26274W        W30235   5.027  12.015  22.477
26275W        W30236   6.648  11.783  22.822
26276W        W30237   7.015  12.265  22.767
26277W        W30238   4.684  11.018  22.473
26278W        W30239   7.155  13.801  21.953
26279W        W30240   5.979  11.591  21.885
26280W        W30241   5.690  13.668  22.612
26281W        W30242   5.789  14.235  23.204
26282W        W30243   6.963  13.238  22.048
26283W        W30244   5.398  12.721  23.109
26284W        W30245   6.468  12.251  22.727
26285W        W30246   6.755  11.984  22.369
26286W        W30247   6.564  14.024  22.758
26287W        W30248   6.294  12.706  22.532
26288W        W30249   6.947  11.358  22.999
26289W        W30250   5.133  14.234  22.964
26290W        W30251   4.248  11.414  22.222
26291W        W30252   4.380  14.188  21.880
26292W        W30253   4.754  12.654  22.631
26293W        W30254   5.238  11.641  22.934
26294W        W30255   4.591  11.659  21.911
26295W        W30256   5.364  12.795  22.218
26296W        W30257   4.632  11.110  21.988
26297W        W30258   5.370  12.191  23.039
26298W        W30259   4.067  14.415  22.929
26299W        W30260   4.434  13.230  22.413
26300W        W30261   6.069  13.462  22.099
26301W        W30262   7.220  11.761  22.695
26302W        W30263   3.698  14.422  22.490
26303W        W30264   4.960  13.715  22.145
26304W        W30265   6.865  14.097  22.331
26305W        W30266   5.840  12.750  22.345
26306W        W30267   4.683  11.941  22.862
26307W        W30268   5.515  11.851  21.914
26308W        W30269   6.452  11.322  22.709
26309W        W30270   3.782  11.170  22.157
26310W        W30271   4.609  13.357  21.937
26311W        W30272   3.850  13.598  22.705
26312W        W30273   4.962  11.138  22.970
26313W        W30274   6.021  11.215  22.475
26314W        W30275   4.125  11.716  22.642
26315W        W30276   7.092  12.607  21.943
26316W        W30277   3.646  11.627  22.180
26317W        W30278   5.657  14.493  22.216
26318W        W30279   3.803  13.000  21.913
26319W        W30280   7.204  12.852  22.403
26320W        W30281   6.067  13.184  22.502
26321W        W30282   6.541  14.484  22.197
26322W        W30283   5.135  11.050  22.156
26323W        W30284   6.674  13.649  22.099
26324W        W30285   4.675  13.669  22.598
26325W        W30286   6.430  13.167  22.862
26326W        W30287   5.527  13.855  23.050
26327W        W30288   7.277  12.415  23.231
26328W        W30289   5.801  13.899  22.165
26329W        W30290   4.943  13.144  22.247
26330W        W30291   6.655  14.526  22.966
26331W        W30292   3.911  12.532  22.131
26332W        W30293   7.045  14.190  22.828
26333W        W30294   6.882  11.514  22.447
26334W        W30295   6.756  12.391  23.213
26335W        W30296   4.287  13.719  22.108
26336W        W30297   7.181  12.199  22.285
26337W        W30298   4.926  13.256  22.756
26338W        W30299   4.849  12.147  21.995
26339W        W30300   5.060  11.640  22.088
26340W        W30301   4.195  12.456  22.869
26341W        W30302   6.761  12.534  22.414
26342W        W30303   6.292  13.659  23.063
26343W        W30304   6.856  11.047  22.536
26344W        W30305   6.376  13.522  22.547
26345W        W30306   5.278  12.580  22.632
26346W        W30307   6.465  11.384  22.155
26347W        W30308   4.533  13.523  23.197
26348W        W30309   6.296  12.143  23.162
26349W        W30310   3.738  14.250  23.306
26350W        W30311   4.247  13.437  22.842
26351W        W30312   7.036  12.875  23.287
26352W        W30313   6.390  13.052  22.167
26353W        W30314   5.357  11.005  22.696
26354W        W30315   5.009  11.423  22.528
26355W        W30316   5.807  11.888  23.091
26356W        W30317   4.608  11.683  22.385
26357W        W30318   6.125  11.825  22.710
26358W        W30319   7.168  14.340  22.012
26359W        W30320   3.822  13.333  22.304
26360W        W30321   5.341  12.284  22.174
26361W        W30322   3.987  12.833  23.193
26362W        W30323   6.949  11.184  22.084
26363W        W30324   7.260  13.157  22.820
26364W        W30325   5.557  11.036  23.223
26365W        W30326   4.616  14.020  23.060
26366W        W30327   3.878  13.952  22.302
26367W        W30328   5.694  13.316  23.020
26368W        W30329   4.046  12.934  22.595
26369W        W30330   3.731  11.296  22.671
26370W        W30331   6.272  11.888  22.170
26371W        W30332   4.862  14.148  22.560
26372W        W30333   6.144  11.051  21.990
26373W        W30334   3.855  12.199  22.698
26374W        W30335   4.546  12.188  22.423
26375W        W30336   6.074  13.104  23.214
26376W        W30337   5.536  11.329  22.285
26377W        W30338   7.217  10.957  23.007
26378W        W30339   4.905  12.592  22.170
26379W        W30340   7.071  11.929  23.160
26380W        W30341   5.763  13.099  22.037
26381W        W30342   6.353  14.000  22.252
26382W        W30343   3.941  13.410  23.213
26383W        W30344   6.350  14.166  23.222
26384W        W30345   5.168  13.702  22.711
26385W        W30346   4.389  12.442  21.970
26386W        W30347   3.728  18.172   3.359
26387W        W30348   4.104  17.065   2.882
26388W        W30349   6.809  16.795   0.652
26389W        W30350   6.939  17.880   2.679
26390W        W30351   4.857  17.871   0.205
26391W        W30352   4.940  16.023   1.188
26392W        W30353   4.455  15.871   1.352
26393W        W30354   5.446  16.686   0.786
26394W        W30355   5.121  17.778   3.141
26395W        W30356   3.770  15.339   3.104
26396W        W30357   4.532  14.619   2.906
26397W        W30358   6.226  15.007   1.793
26398W        W30359   5.875  15.878   0.363
26399W        W30360   6.445  15.312   3.454
26400W        W30361   3.811  15.104   2.579
26401W        W30362   3.910  17.723   3.600
26402W        W30363   5.432  17.113   0.332
26403W        W30364   3.864  15.896   2.025
26404W        W30365   4.757  15.787   3.262
26405W        W30366   7.216  15.646   1.761
26406W        W30367   6.980  16.689   2.620
26407W        W30368   5.288  16.022   1.647
26408W        W30369   5.834  17.361   2.016
26409W        W30370   4.334  16.795   2.248
26410W        W30371   3.693  16.323   1.819
26411W        W30372   4.729  16.295   3.011
26412W        W30373   7.000  16.078   3.265
26413W        W30374   4.616  17.522   1.710
26414W        W30375   5.737  17.211   2.844
26415W        W30376   4.957  15.851   2.069
26416W        W30377   5.249  16.635   1.712
26417W        W30378   6.246  17.408   3.560
26418W        W30379   5.325  16.728   3.570
26419W        W30380   5.306  16.444   3.048
26420W        W30381   3.715  15.835   3.570
26421W        W30382   6.547  17.370   3.169
26422W        W30383   4.128  14.952   1.167
26423W        W30384   4.655  17.210   2.166
26424W        W30385   7.118  16.993   1.456
26425W        W30386   6.531  15.393   2.023
26426W        W30387   6.816  15.346   0.118
26427W        W30388   7.281  16.147   2.424
26428W        W30389   5.248  17.854   2.177
26429W        W30390   7.022  17.320   0.615
26430W        W30391   4.151  18.106   0.369
26431W        W30392   4.544  18.152   1.045
26432W        W30393   4.341  14.906   2.471
26433W        W30394   6.964  15.924   2.746
26434W        W30395   6.369  16.346   1.205
26435W        W30396   6.335  16.034   0.232
26436W        W30397   5.543  17.178   2.372
26437W        W30398   5.349  15.508   1.571
26438W        W30399   5.949  17.595   2.565
26439W        W30400   6.820  16.386   0.987
26440W        W30401   5.722  15.044   1.003
26441W        W30402   4.379  17.738   0.686
26442W        W30403   3.750  15.237   1.285
26443W        W30404   6.536  15.844   1.759
26444W        W30405   3.994  17.461   1.674
26445W        W30406   5.335  17.811   0.544
26446W        W30407   6.727  15.837   0.008
26447W        W30408   3.750  17.595   2.172
26448W        W30409   4.541  17.167   2.652
26449W        W30410   4.914  16.527   1.271
26450W        W30411   4.936  14.932   2.364
26451W        W30412   7.165  14.694   1.661
26452W        W30413   4.384  16.566   0.129
26453W        W30414   4.039  15.599   0.308
26454W        W30415   4.101  17.555   1.102
26455W        W30416   5.232  17.038   1.350
26456W        W30417   6.564  17.897   3.064
26457W        W30418   5.490  15.539   0.748
26458W        W30419   6.873  17.937   1.520
26459W        W30420   6.550  15.790   3.118
26460W        W30421   7.263  17.446   1.252
26461W        W30422   5.890  16.738   2.736
26462W        W30423   3.656  16.289   0.942
26463W        W30424   4.767  16.704   2.515
26464W        W30425   5.971  15.968   0.893
26465W        W30426   5.848  16.458   0.997
26466W        W30427   4.191  15.878   2.471
26467W        W30428   4.176  15.754   3.393
26468W        W30429   4.066  14.671   1.552
26469W        W30430   5.834  15.018   2.113
26470W        W30431   5.482  15.203   3.276
26471W        W30432   5.837  15.352   0.454
26472W        W30433   7.020  17.745   3.208
26473W        W30434   5.987  14.826   3.247
26474W        W30435   7.006  17.127   3.369
26475W        W30436   6.436  15.294   2.965
26476W        W30437   6.236  15.232   1.235
26477W        W30438   6.629  16.366   3.639
26478W        W30439   4.369  17.942   1.625
26479W        W30440   5.027  15.659   0.611
26480W        W30441   4.596  14.943   3.275
26481W        W30442   6.648  15.427   0.956
26482W        W30443   7.015  15.909   0.901
26483W        W30444   4.758  18.126   3.372
26484W        W30445   4.684  14.662   0.607
26485W        W30446   7.005  15.196   1.642
26486W        W30447   7.155  17.445   0.087
26487W        W30448   4.062  16.648   1.789
26488W        W30449   5.979  15.235   0.019
26489W        W30450   7.113  17.567   1.739
26490W        W30451   7.152  14.761   2.489
26491W        W30452   5.597  15.973   3.043
26492W        W30453   5.690  17.312   0.746
26493W        W30454   6.090  16.606   3.486
26494W        W30455   5.764  14.583   1.795
26495W        W30456   4.376  15.486   1.858
26496W        W30457   3.930  16.686   2.632
26497W        W30458   5.789  17.879   1.338
26498W        W30459   6.983  15.476   2.210
26499W        W30460   5.620  17.823   2.977
26500W        W30461   6.963  16.882   0.182
26501W        W30462   5.398  16.365   1.243
26502W        W30463   7.250  14.876   2.984
26503W        W30464   5.399  16.711   2.578
26504W        W30465   5.616  15.597   2.023
26505W        W30466   6.468  15.895   0.861
26506W        W30467   6.755  15.628   0.503
26507W        W30468   6.564  17.668   0.892
26508W        W30469   6.398  17.271   1.688
26509W        W30470   6.294  16.350   0.666
26510W        W30471   5.727  16.560   1.652
26511W        W30472   6.608  16.348   1.719
26512W        W30473   3.983  15.363   2.143
26513W        W30474   6.761  16.415   2.970
26514W        W30475   7.112  18.033   2.116
26515W        W30476   5.042  17.477   1.518
26516W        W30477   6.049  18.010   2.842
26517W        W30478   6.043  15.340   2.606
26518W        W30479   5.250  18.048   2.667
26519W        W30480   6.947  15.002   1.133
26520W        W30481   6.738  16.321   2.434
26521W        W30482   3.721  15.642   2.472
26522W        W30483   6.581  15.437   1.490
26523W        W30484   6.992  15.588   3.267
26524W        W30485   5.877  17.287   1.485
26525W        W30486   5.133  17.878   1.098
26526W        W30487   4.248  15.058   0.356
26527W        W30488   5.352  14.712   2.166
26528W        W30489   4.380  17.832   0.014
26529W        W30490   4.754  16.298   0.765
26530W        W30491   5.408  16.927   3.078
26531W        W30492   5.238  15.285   1.068
26532W        W30493   6.594  14.882   1.496
26533W        W30494   6.314  18.164   1.824
26534W        W30495   5.726  17.812   2.164
26535W        W30496   5.122  16.849   2.125
26536W        W30497   6.892  17.572   2.251
26537W        W30498   4.586  15.075   1.020
26538W        W30499   5.108  17.372   1.980
26539W        W30500   4.591  15.303   0.045
26540W        W30501   5.392  15.912   2.439
26541W        W30502   6.240  14.778   2.309
26542W        W30503   3.660  16.621   2.194
26543W        W30504   5.364  16.439   0.352
26544W        W30505   4.632  14.754   0.122
26545W        W30506   5.370  15.835   1.173
26546W        W30507   6.340  14.811   2.872
26547W        W30508   4.928  16.823   2.981
26548W        W30509   5.732  16.605   3.198
26549W        W30510   6.349  16.635   3.091
26550W        W30511   5.633  14.775   3.596
26551W        W30512   4.855  15.391   1.989
26552W        W30513   4.281  15.347   1.387
26553W        W30514   4.067  18.059   1.063
26554W        W30515   5.399  17.389   3.188
26555W        W30516   4.434  16.874   0.547
26556W        W30517   6.114  16.259   1.768
26557W        W30518   6.394  16.058   2.167
26558W        W30519   5.599  16.732   2.101
26559W        W30520   6.069  17.106   0.233
26560W        W30521   5.741  15.127   1.561
26561W        W30522   7.220  15.405   0.829
26562W        W30523   3.714  17.994   2.860
26563W        W30524   4.131  17.220   2.392
26564W        W30525   3.698  18.066   0.624
26565W        W30526   5.597  15.336   2.430
26566W        W30527   4.960  17.359   0.279
26567W        W30528   6.865  17.741   0.465
26568W        W30529   5.840  16.394   0.479
26569W        W30530   4.683  15.585   0.996
26570W        W30531   5.515  15.495   0.048
26571W        W30532   6.099  17.060   3.226
26572W        W30533   6.452  14.966   0.843
26573W        W30534   3.782  14.814   0.291
26574W        W30535   5.068  17.133   2.581
26575W        W30536   4.867  17.049   1.673
26576W        W30537   4.609  17.001   0.071
26577W        W30538   3.850  17.242   0.839
26578W        W30539   4.354  16.312   3.281
26579W        W30540   5.058  14.872   3.467
26580W        W30541   5.767  15.014   2.823
26581W        W30542   4.962  14.782   1.104
26582W        W30543   6.021  14.859   0.609
26583W        W30544   3.966  14.791   2.186
26584W        W30545   4.014  15.754   1.556
26585W        W30546   6.703  14.862   1.962
26586W        W30547   4.125  15.360   0.776
26587W        W30548   6.696  15.048   2.392
26588W        W30549   7.092  16.251   0.077
26589W        W30550   4.384  15.009   1.896
26590W        W30551   5.498  15.581   2.836
26591W        W30552   3.646  15.271   0.314
26592W        W30553   4.432  16.660   2.875
26593W        W30554   5.790  16.058   2.054
26594W        W30555   5.657  18.137   0.350
26595W        W30556   3.803  16.644   0.047
26596W        W30557   4.538  17.055   3.173
26597W        W30558   4.059  16.222   2.804
26598W        W30559   5.050  16.327   2.598
26599W        W30560   6.818  14.686   2.860
26600W        W30561   7.216  16.296   2.851
26601W        W30562   7.204  16.496   0.537
26602W        W30563   6.067  16.828   0.636
26603W        W30564   6.541  18.128   0.331
26604W        W30565   5.718  16.118   3.473
26605W        W30566   4.048  17.085   3.513
26606W        W30567   7.254  15.007   3.465
26607W        W30568   6.972  15.935   2.086
26608W        W30569   5.280  18.065   3.563
26609W        W30570   5.135  14.694   0.290
26610W        W30571   6.674  17.293   0.233
26611W        W30572   4.443  15.386   3.119
26612W        W30573   4.877  17.380   2.981
26613W        W30574   7.003  15.371   2.779
26614W        W30575   6.214  18.030   0.747
26615W        W30576   6.453  16.649   2.114
26616W        W30577   4.703  15.065   2.781
26617W        W30578   5.172  16.134   3.538
26618W        W30579   4.675  17.313   0.732
26619W        W30580   6.430  16.811   0.996
26620W        W30581   4.198  15.437   2.720
26621W        W30582   5.527  17.499   1.184
26622W        W30583   7.277  16.059   1.365
26623W        W30584   5.499  14.692   3.084
26624W        W30585   6.279  17.397   2.163
26625W        W30586   6.582  17.741   1.871
26626W        W30587   5.801  17.543   0.299
26627W        W30588   3.811  17.435   3.141
26628W        W30589   4.554  15.427   2.379
26629W        W30590   4.524  14.775   1.489
26630W        W30591   6.145  15.617   2.181
26631W        W30592   4.943  16.788   0.381
26632W        W30593   6.941  16.730   1.880
26633W        W30594   4.268  17.488   3.303
26634W        W30595   6.655  18.170   1.100
26635W        W30596   4.754  15.190   1.545
26636W        W30597   4.523  16.683   1.635
26637W        W30598   4.836  18.094   2.385
26638W        W30599   6.903  18.190   3.417
26639W        W30600   6.062  16.378   2.350
26640W        W30601   3.911  16.176   0.265
26641W        W30602   7.045  17.834   0.962
26642W        W30603   6.882  15.158   0.581
26643W        W30604   5.021  14.677   2.984
26644W        W30605   6.727  17.479   1.442
26645W        W30606   6.756  16.035   1.347
26646W        W30607   4.873  15.708   1.563
26647W        W30608   5.118  15.970   2.887
26648W        W30609   6.229  17.123   2.750
26649W        W30610   4.879  15.577   2.862
26650W        W30611   4.858  18.043   1.478
26651W        W30612   4.175  18.002   3.112
26652W        W30613   4.287  17.363   0.242
26653W        W30614   6.804  17.121   1.052
26654W        W30615   4.408  15.913   2.938
26655W        W30616   7.181  15.843   0.419
26656W        W30617   4.926  16.900   0.890
26657W        W30618   6.025  16.282   2.971
26658W        W30619   5.916  15.910   2.515
26659W        W30620   4.476  16.282   2.544
26660W        W30621   6.686  18.170   2.373
26661W        W30622   6.477  14.804   3.367
26662W        W30623   4.141  14.954   2.954
26663W        W30624   4.480  15.977   2.007
26664W        W30625   4.849  15.791   0.129
26665W        W30626   3.652  17.550   2.674
26666W        W30627   5.237  16.259   2.117
26667W        W30628   5.060  15.284   0.222
26668W        W30629   4.195  16.100   1.003
26669W        W30630   3.966  17.952   2.440
26670W        W30631   6.761  16.178   0.548
26671W        W30632   6.856  15.094   3.234
26672W        W30633   6.292  17.303   1.197
26673W        W30634   3.890  16.227   3.374
26674W        W30635   6.856  14.691   0.670
26675W        W30636   6.376  17.166   0.681
26676W        W30637   5.278  16.224   0.766
26677W        W30638   6.465  15.028   0.289
26678W        W30639   6.530  15.635   2.475
26679W        W30640   4.239  16.228   1.682
26680W        W30641   4.533  17.167   1.331
26681W        W30642   6.296  15.787   1.296
26682W        W30643   5.319  15.166   1.992
26683W        W30644   7.281  17.077   2.503
26684W        W30645   7.199  15.064   2.064
26685W        W30646   3.738  17.894   1.440
26686W        W30647   4.247  17.081   0.976
26687W        W30648   4.162  14.698   3.529
26688W        W30649   5.281  17.551   3.631
26689W        W30650   7.036  16.519   1.421
26690W        W30651   6.390  16.696   0.301
26691W        W30652   5.685  18.217   2.513
26692W        W30653   6.542  16.939   3.550
26693W        W30654   5.357  14.649   0.830
26694W        W30655   6.070  15.518   1.689
26695W        W30656   3.756  17.105   2.021
26696W        W30657   5.009  15.067   0.662
26697W        W30658   4.813  16.551   3.511
26698W        W30659   5.807  15.532   1.225
26699W        W30660   6.012  16.942   2.347
26700W        W30661   4.166  17.547   2.782
26701W        W30662   4.757  17.530   3.505
26702W        W30663   4.608  15.327   0.519
26703W        W30664   6.125  15.469   0.844
26704W        W30665   6.083  17.577   3.081
26705W        W30666   4.768  16.169   1.680
26706W        W30667   4.423  17.867   2.545
26707W        W30668   7.168  17.984   0.146
26708W        W30669   4.031  16.656   3.142
26709W        W30670   6.026  16.918   1.830
26710W        W30671   4.462  16.567   1.072
26711W        W30672   4.833  17.574   2.467
26712W        W30673   5.211  14.993   1.508
26713W        W30674   3.822  16.977   0.438
26714W        W30675   5.341  15.928   0.308
26715W        W30676   3.987  16.477   1.327
26716W        W30677   5.277  15.119   2.791
26717W        W30678   6.949  14.828   0.218
26718W        W30679   7.042  16.574   3.317
26719W        W30680   5.696  17.831   3.469
26720W        W30681   7.254  16.925   2.991
26721W        W30682   6.662  17.723   3.602
26722W        W30683   4.401  18.179   2.080
26723W        W30684   7.260  16.801   0.954
26724W        W30685   5.790  16.068   1.467
26725W        W30686   5.557  14.680   1.357
26726W        W30687   4.616  17.664   1.194
26727W        W30688   5.115  15.405   2.419
26728W        W30689   4.815  14.774   1.888
26729W        W30690   3.878  17.596   0.436
26730W        W30691   5.694  16.960   1.154
26731W        W30692   4.569  17.755   3.033
26732W        W30693   4.046  16.578   0.729
26733W        W30694   3.931  15.121   1.728
26734W        W30695   5.479  17.086   1.785
26735W        W30696   3.731  14.940   0.805
26736W        W30697   6.395  16.146   2.732
26737W        W30698   6.272  15.532   0.304
26738W        W30699   6.789  17.204   1.952
26739W        W30700   5.450  17.688   1.783
26740W        W30701   4.862  17.792   0.694
26741W        W30702   6.144  14.695   0.124
26742W        W30703   3.944  17.955   1.865
26743W        W30704   6.141  15.713   3.500
26744W        W30705   4.124  15.243   3.499
26745W        W30706   3.855  15.843   0.832
26746W        W30707   4.546  15.832   0.557
26747W        W30708   6.309  16.159   3.374
26748W        W30709   4.652  16.440   2.083
26749W        W30710   6.126  14.726   1.203
26750W        W30711   5.257  18.157   1.706
26751W        W30712   6.471  17.619   2.643
26752W        W30713   6.055  17.768   1.754
26753W        W30714   6.074  16.748   1.348
26754W        W30715   5.536  14.973   0.419
26755W        W30716   7.217  14.601   1.141
26756W        W30717   4.905  16.236   0.304
26757W        W30718   7.071  15.573   1.294
26758W        W30719   5.763  16.743   0.171
26759W        W30720   6.699  16.943   2.919
26760W        W30721   6.353  17.644   0.386
26761W        W30722   4.968  15.319   3.292
26762W        W30723   4.788  15.903   2.533
26763W        W30724   6.880  17.398   2.810
26764W        W30725   5.980  15.348   3.187
26765W        W30726   3.824  15.819   2.964
26766W        W30727   5.584  16.296   2.690
26767W        W30728   3.941  17.054   1.347
26768W        W30729   4.088  16.351   2.237
26769W        W30730   6.405  16.637   2.587
26770W        W30731   6.177  18.017   3.398
26771W        W30732   6.073  15.756   2.951
26772W        W30733   6.350  17.810   1.356
26773W        W30734   5.352  17.530   2.679
26774W        W30735   4.837  17.885   1.948
26775W        W30736   6.642  17.056   2.367
26776W        W30737   5.692  17.128   3.504
26777W        W30738   4.297  17.081   1.843
26778W        W30739   6.643  16.840   1.488
26779W        W30740   6.284  17.906   2.239
26780W        W30741   4.262  17.635   2.109
26781W        W30742   5.283  15.687   3.319
26782W        W30743   5.734  17.853   0.830
26783W        W30744   5.042  17.108   3.468
26784W        W30745   5.168  17.346   0.845
26785W        W30746   4.389  16.086   0.104
26786W        W30747   3.728  18.172   7.003
26787W        W30748   4.104  17.065   6.526
26788W        W30749   6.809  16.795   4.296
26789W        W30750   6.939  17.880   6.323
26790W        W30751   4.857  17.871   3.849
26791W        W30752   4.940  16.023   4.832
26792W        W30753   4.455  15.871   4.996
26793W        W30754   5.446  16.686   4.430
26794W        W30755   5.121  17.778   6.785
26795W        W30756   3.770  15.339   6.748
26796W        W30757   4.532  14.619   6.550
26797W        W30758   6.226  15.007   5.437
26798W        W30759   5.875  15.878   4.007
26799W        W30760   6.445  15.312   7.098
26800W        W30761   3.811  15.104   6.223
26801W        W30762   3.910  17.723   7.244
26802W        W30763   5.432  17.113   3.976
26803W        W30764   3.864  15.896   5.669
26804W        W30765   4.757  15.787   6.906
26805W        W30766   7.216  15.646   5.405
26806W        W30767   6.980  16.689   6.264
26807W        W30768   5.288  16.022   5.291
26808W        W30769   5.834  17.361   5.660
26809W        W30770   4.334  16.795   5.892
26810W        W30771   3.693  16.323   5.463
26811W        W30772   4.729  16.295   6.655
26812W        W30773   7.000  16.078   6.909
26813W        W30774   4.616  17.522   5.354
26814W        W30775   5.737  17.211   6.488
26815W        W30776   4.957  15.851   5.713
26816W        W30777   5.249  16.635   5.356
26817W        W30778   6.246  17.408   7.204
26818W        W30779   5.325  16.728   7.214
26819W        W30780   5.306  16.444   6.692
26820W        W30781   3.715  15.835   7.214
26821W        W30782   6.547  17.370   6.813
26822W        W30783   4.128  14.952   4.811
26823W        W30784   4.655  17.210   5.810
26824W        W30785   7.118  16.993   5.100
26825W        W30786   6.531  15.393   5.667
26826W        W30787   6.816  15.346   3.762
26827W        W30788   7.281  16.147   6.068
26828W        W30789   5.248  17.854   5.821
26829W        W30790   7.022  17.320   4.259
26830W        W30791   4.151  18.106   4.013
26831W        W30792   4.544  18.152   4.689
26832W        W30793   4.341  14.906   6.115
26833W        W30794   6.964  15.924   6.390
26834W        W30795   6.369  16.346   4.849
26835W        W30796   6.335  16.034   3.876
26836W        W30797   5.543  17.178   6.016
26837W        W30798   5.349  15.508   5.215
26838W        W30799   5.949  17.595   6.209
26839W        W30800   6.820  16.386   4.631
26840W        W30801   5.722  15.044   4.647
26841W        W30802   4.379  17.738   4.330
26842W        W30803   3.750  15.237   4.929
26843W        W30804   6.536  15.844   5.403
26844W        W30805   3.994  17.461   5.318
26845W        W30806   5.335  17.811   4.188
26846W        W30807   6.727  15.837   3.652
26847W        W30808   3.750  17.595   5.816
26848W        W30809   4.541  17.167   6.296
26849W        W30810   4.914  16.527   4.915
26850W        W30811   4.936  14.932   6.008
26851W        W30812   7.165  14.694   5.305
26852W        W30813   4.384  16.566   3.773
26853W        W30814   4.039  15.599   3.952
26854W        W30815   4.101  17.555   4.746
26855W        W30816   5.232  17.038   4.994
26856W        W30817   6.564  17.897   6.708
26857W        W30818   5.490  15.539   4.392
26858W        W30819   6.873  17.937   5.164
26859W        W30820   6.550  15.790   6.762
26860W        W30821   7.263  17.446   4.896
26861W        W30822   5.890  16.738   6.380
26862W        W30823   3.656  16.289   4.586
26863W        W30824   4.767  16.704   6.159
26864W        W30825   5.971  15.968   4.537
26865W        W30826   5.848  16.458   4.641
26866W        W30827   4.191  15.878   6.115
26867W        W30828   4.176  15.754   7.037
26868W        W30829   4.066  14.671   5.196
26869W        W30830   5.834  15.018   5.757
26870W        W30831   5.482  15.203   6.920
26871W        W30832   5.837  15.352   4.098
26872W        W30833   7.020  17.745   6.852
26873W        W30834   5.987  14.826   6.891
26874W        W30835   7.006  17.127   7.013
26875W        W30836   6.436  15.294   6.609
26876W        W30837   6.236  15.232   4.879
26877W        W30838   6.629  16.366   7.283
26878W        W30839   4.369  17.942   5.269
26879W        W30840   5.027  15.659   4.255
26880W        W30841   4.596  14.943   6.919
26881W        W30842   6.648  15.427   4.600
26882W        W30843   7.015  15.909   4.545
26883W        W30844   4.758  18.126   7.016
26884W        W30845   4.684  14.662   4.251
26885W        W30846   7.005  15.196   5.286
26886W        W30847   7.155  17.445   3.731
26887W        W30848   4.062  16.648   5.433
26888W        W30849   5.979  15.235   3.663
26889W        W30850   7.113  17.567   5.383
26890W        W30851   7.152  14.761   6.133
26891W        W30852   5.597  15.973   6.687
26892W        W30853   5.690  17.312   4.390
26893W        W30854   6.090  16.606   7.130
26894W        W30855   5.764  14.583   5.439
26895W        W30856   4.376  15.486   5.502
26896W        W30857   3.930  16.686   6.276
26897W        W30858   5.789  17.879   4.982
26898W        W30859   6.983  15.476   5.854
26899W        W30860   5.620  17.823   6.621
26900W        W30861   6.963  16.882   3.826
26901W        W30862   5.398  16.365   4.887
26902W        W30863   7.250  14.876   6.628
26903W        W30864   5.399  16.711   6.222
26904W        W30865   5.616  15.597   5.667
26905W        W30866   6.468  15.895   4.505
26906W        W30867   6.755  15.628   4.147
26907W        W30868   6.564  17.668   4.536
26908W        W30869   6.398  17.271   5.332
26909W        W30870   6.294  16.350   4.310
26910W        W30871   5.727  16.560   5.296
26911W        W30872   6.608  16.348   5.363
26912W        W30873   3.983  15.363   5.787
26913W        W30874   6.761  16.415   6.614
26914W        W30875   7.112  18.033   5.760
26915W        W30876   5.042  17.477   5.162
26916W        W30877   6.049  18.010   6.486
26917W        W30878   6.043  15.340   6.250
26918W        W30879   5.250  18.048   6.311
26919W        W30880   6.947  15.002   4.777
26920W        W30881   6.738  16.321   6.078
26921W        W30882   3.721  15.642   6.116
26922W        W30883   6.581  15.437   5.134
26923W        W30884   6.992  15.588   6.911
26924W        W30885   5.877  17.287   5.129
26925W        W30886   5.133  17.878   4.742
26926W        W30887   4.248  15.058   4.000
26927W        W30888   5.352  14.712   5.810
26928W        W30889   4.380  17.832   3.658
26929W        W30890   4.754  16.298   4.409
26930W        W30891   5.408  16.927   6.722
26931W        W30892   5.238  15.285   4.712
26932W        W30893   6.594  14.882   5.140
26933W        W30894   6.314  18.164   5.468
26934W        W30895   5.726  17.812   5.808
26935W        W30896   5.122  16.849   5.769
26936W        W30897   6.892  17.572   5.895
26937W        W30898   4.586  15.075   4.664
26938W        W30899   5.108  17.372   5.624
26939W        W30900   4.591  15.303   3.689
26940W        W30901   5.392  15.912   6.083
26941W        W30902   6.240  14.778   5.953
26942W        W30903   3.660  16.621   5.838
26943W        W30904   5.364  16.439   3.996
26944W        W30905   4.632  14.754   3.766
26945W        W30906   5.370  15.835   4.817
26946W        W30907   6.340  14.811   6.516
26947W        W30908   4.928  16.823   6.625
26948W        W30909   5.732  16.605   6.842
26949W        W30910   6.349  16.635   6.735
26950W        W30911   5.633  14.775   7.240
26951W        W30912   4.855  15.391   5.633
26952W        W30913   4.281  15.347   5.031
26953W        W30914   4.067  18.059   4.707
26954W        W30915   5.399  17.389   6.832
26955W        W30916   4.434  16.874   4.191
26956W        W30917   6.114  16.259   5.412
26957W        W30918   6.394  16.058   5.811
26958W        W30919   5.599  16.732   5.745
26959W        W30920   6.069  17.106   3.877
26960W        W30921   5.741  15.127   5.205
26961W        W30922   7.220  15.405   4.473
26962W        W30923   3.714  17.994   6.504
26963W        W30924   4.131  17.220   6.036
26964W        W30925   3.698  18.066   4.268
26965W        W30926   5.597  15.336   6.074
26966W        W30927   4.960  17.359   3.923
26967W        W30928   6.865  17.741   4.109
26968W        W30929   5.840  16.394   4.123
26969W        W30930   4.683  15.585   4.640
26970W        W30931   5.515  15.495   3.692
26971W        W30932   6.099  17.060   6.870
26972W        W30933   6.452  14.966   4.487
26973W        W30934   3.782  14.814   3.935
26974W        W30935   5.068  17.133   6.225
26975W        W30936   4.867  17.049   5.317
26976W        W30937   4.609  17.001   3.715
26977W        W30938   3.850  17.242   4.483
26978W        W30939   4.354  16.312   6.925
26979W        W30940   5.058  14.872   7.111
26980W        W30941   5.767  15.014   6.467
26981W        W30942   4.962  14.782   4.748
26982W        W30943   6.021  14.859   4.253
26983W        W30944   3.966  14.791   5.830
26984W        W30945   4.014  15.754   5.200
26985W        W30946   6.703  14.862   5.606
26986W        W30947   4.125  15.360   4.420
26987W        W30948   6.696  15.048   6.036
26988W        W30949   7.092  16.251   3.721
26989W        W30950   4.384  15.009   5.540
26990W        W30951   5.498  15.581   6.480
26991W        W30952   3.646  15.271   3.958
26992W        W30953   4.432  16.660   6.519
26993W        W30954   5.790  16.058   5.698
26994W        W30955   5.657  18.137   3.994
26995W        W30956   3.803  16.644   3.691
26996W        W30957   4.538  17.055   6.817
26997W        W30958   4.059  16.222   6.448
26998W        W30959   5.050  16.327   6.242
26999W        W30960   6.818  14.686   6.504
27000W        W30961   7.216  16.296   6.495
27001W        W30962   7.204  16.496   4.181
27002W        W30963   6.067  16.828   4.280
27003W        W30964   6.541  18.128   3.975
27004W        W30965   5.718  16.118   7.117
27005W        W30966   4.048  17.085   7.157
27006W        W30967   7.254  15.007   7.109
27007W        W30968   6.972  15.935   5.730
27008W        W30969   5.280  18.065   7.207
27009W        W30970   5.135  14.694   3.934
27010W        W30971   6.674  17.293   3.877
27011W        W30972   4.443  15.386   6.763
27012W        W30973   4.877  17.380   6.625
27013W        W30974   7.003  15.371   6.423
27014W        W30975   6.214  18.030   4.391
27015W        W30976   6.453  16.649   5.758
27016W        W30977   4.703  15.065   6.425
27017W        W30978   4.675  17.313   4.376
27018W        W30979   6.430  16.811   4.640
27019W        W30980   4.198  15.437   6.364
27020W        W30981   5.527  17.499   4.828
27021W        W30982   7.277  16.059   5.009
27022W        W30983   5.499  14.692   6.728
27023W        W30984   6.279  17.397   5.807
27024W        W30985   6.582  17.741   5.515
27025W        W30986   5.801  17.543   3.943
27026W        W30987   3.811  17.435   6.785
27027W        W30988   4.554  15.427   6.023
27028W        W30989   4.524  14.775   5.133
27029W        W30990   6.145  15.617   5.825
27030W        W30991   4.943  16.788   4.025
27031W        W30992   6.941  16.730   5.524
27032W        W30993   4.268  17.488   6.947
27033W        W30994   6.655  18.170   4.744
27034W        W30995   4.754  15.190   5.189
27035W        W30996   4.523  16.683   5.279
27036W        W30997   4.836  18.094   6.029
27037W        W30998   6.903  18.190   7.061
27038W        W30999   6.062  16.378   5.994
27039W        W31000   3.911  16.176   3.909
27040W        W31001   7.045  17.834   4.606
27041W        W31002   6.882  15.158   4.225
27042W        W31003   5.021  14.677   6.628
27043W        W31004   6.727  17.479   5.086
27044W        W31005   6.756  16.035   4.991
27045W        W31006   4.873  15.708   5.207
27046W        W31007   5.118  15.970   6.531
27047W        W31008   6.229  17.123   6.394
27048W        W31009   4.879  15.577   6.506
27049W        W31010   4.858  18.043   5.122
27050W        W31011   4.175  18.002   6.756
27051W        W31012   4.287  17.363   3.886
27052W        W31013   6.804  17.121   4.696
27053W        W31014   4.408  15.913   6.582
27054W        W31015   7.181  15.843   4.063
27055W        W31016   4.926  16.900   4.534
27056W        W31017   6.025  16.282   6.615
27057W        W31018   5.916  15.910   6.159
27058W        W31019   4.476  16.282   6.188
27059W        W31020   6.686  18.170   6.017
27060W        W31021   6.477  14.804   7.011
27061W        W31022   4.141  14.954   6.598
27062W        W31023   4.480  15.977   5.651
27063W        W31024   4.849  15.791   3.773
27064W        W31025   3.652  17.550   6.318
27065W        W31026   5.237  16.259   5.761
27066W        W31027   5.060  15.284   3.866
27067W        W31028   4.195  16.100   4.647
27068W        W31029   3.966  17.952   6.084
27069W        W31030   6.761  16.178   4.192
27070W        W31031   6.856  15.094   6.878
27071W        W31032   6.292  17.303   4.841
27072W        W31033   3.890  16.227   7.018
27073W        W31034   6.856  14.691   4.314
27074W        W31035   6.376  17.166   4.325
27075W        W31036   5.278  16.224   4.410
27076W        W31037   6.465  15.028   3.933
27077W        W31038   6.530  15.635   6.119
27078W        W31039   4.239  16.228   5.326
27079W        W31040   4.533  17.167   4.975
27080W        W31041   6.296  15.787   4.940
27081W        W31042   5.319  15.166   5.636
27082W        W31043   7.281  17.077   6.147
27083W        W31044   7.199  15.064   5.708
27084W        W31045   3.738  17.894   5.084
27085W        W31046   4.247  17.081   4.620
27086W        W31047   4.162  14.698   7.173
27087W        W31048   5.281  17.551   7.275
27088W        W31049   7.036  16.519   5.065
27089W        W31050   6.390  16.696   3.945
27090W        W31051   5.685  18.217   6.157
27091W        W31052   6.542  16.939   7.194
27092W        W31053   5.357  14.649   4.474
27093W        W31054   6.070  15.518   5.333
27094W        W31055   3.756  17.105   5.665
27095W        W31056   5.009  15.067   4.306
27096W        W31057   4.813  16.551   7.155
27097W        W31058   5.807  15.532   4.869
27098W        W31059   6.012  16.942   5.991
27099W        W31060   4.166  17.547   6.426
27100W        W31061   4.757  17.530   7.149
27101W        W31062   4.608  15.327   4.163
27102W        W31063   6.125  15.469   4.488
27103W        W31064   6.083  17.577   6.725
27104W        W31065   4.768  16.169   5.324
27105W        W31066   4.423  17.867   6.189
27106W        W31067   7.168  17.984   3.790
27107W        W31068   4.031  16.656   6.786
27108W        W31069   6.026  16.918   5.474
27109W        W31070   4.462  16.567   4.716
27110W        W31071   4.833  17.574   6.111
27111W        W31072   5.211  14.993   5.152
27112W        W31073   3.822  16.977   4.082
27113W        W31074   5.341  15.928   3.952
27114W        W31075   3.987  16.477   4.971
27115W        W31076   5.277  15.119   6.435
27116W        W31077   6.949  14.828   3.862
27117W        W31078   7.042  16.574   6.961
27118W        W31079   5.696  17.831   7.113
27119W        W31080   7.254  16.925   6.635
27120W        W31081   6.662  17.723   7.246
27121W        W31082   7.260  16.801   4.598
27122W        W31083   5.790  16.068   5.111
27123W        W31084   5.557  14.680   5.001
27124W        W31085   4.616  17.664   4.838
27125W        W31086   5.115  15.405   6.063
27126W        W31087   4.815  14.774   5.532
27127W        W31088   3.878  17.596   4.080
27128W        W31089   5.694  16.960   4.798
27129W        W31090   4.569  17.755   6.677
27130W        W31091   4.046  16.578   4.373
27131W        W31092   3.931  15.121   5.372
27132W        W31093   5.479  17.086   5.429
27133W        W31094   3.731  14.940   4.449
27134W        W31095   6.395  16.146   6.376
27135W        W31096   6.272  15.532   3.948
27136W        W31097   6.789  17.204   5.596
27137W        W31098   5.450  17.688   5.427
27138W        W31099   4.862  17.792   4.338
27139W        W31100   6.144  14.695   3.768
27140W        W31101   3.944  17.955   5.509
27141W        W31102   6.141  15.713   7.144
27142W        W31103   4.124  15.243   7.143
27143W        W31104   3.855  15.843   4.476
27144W        W31105   4.546  15.832   4.201
27145W        W31106   6.309  16.159   7.018
27146W        W31107   4.652  16.440   5.727
27147W        W31108   6.126  14.726   4.847
27148W        W31109   5.257  18.157   5.350
27149W        W31110   6.471  17.619   6.287
27150W        W31111   6.055  17.768   5.398
27151W        W31112   6.074  16.748   4.992
27152W        W31113   5.536  14.973   4.063
27153W        W31114   7.217  14.601   4.785
27154W        W31115   4.905  16.236   3.948
27155W        W31116   7.071  15.573   4.938
27156W        W31117   5.763  16.743   3.815
27157W        W31118   6.699  16.943   6.563
27158W        W31119   6.353  17.644   4.030
27159W        W31120   4.968  15.319   6.936
27160W        W31121   4.788  15.903   6.177
27161W        W31122   6.880  17.398   6.454
27162W        W31123   5.980  15.348   6.831
27163W        W31124   3.824  15.819   6.608
27164W        W31125   5.584  16.296   6.334
27165W        W31126   3.941  17.054   4.991
27166W        W31127   4.088  16.351   5.881
27167W        W31128   6.405  16.637   6.231
27168W        W31129   6.177  18.017   7.042
27169W        W31130   6.073  15.756   6.595
27170W        W31131   6.350  17.810   5.000
27171W        W31132   5.352  17.530   6.323
27172W        W31133   4.837  17.885   5.592
27173W        W31134   6.642  17.056   6.011
27174W        W31135   5.692  17.128   7.148
27175W        W31136   4.297  17.081   5.487
27176W        W31137   6.643  16.840   5.132
27177W        W31138   6.284  17.906   5.883
27178W        W31139   4.262  17.635   5.753
27179W        W31140   5.283  15.687   6.963
27180W        W31141   5.734  17.853   4.474
27181W        W31142   5.042  17.108   7.112
27182W        W31143   5.168  17.346   4.489
27183W        W31144   4.389  16.086   3.748
27184W        W31145   3.728  18.172  10.648
27185W        W31146   4.104  17.065  10.171
27186W        W31147   6.809  16.795   7.941
27187W        W31148   6.939  17.880   9.968
27188W        W31149   4.857  17.871   7.494
27189W        W31150   4.940  16.023   8.477
27190W        W31151   4.455  15.871   8.641
27191W        W31152   5.121  17.778  10.430
27192W        W31153   3.770  15.339  10.393
27193W        W31154   4.532  14.619  10.195
27194W        W31155   6.226  15.007   9.082
27195W        W31156   5.875  15.878   7.652
27196W        W31157   6.445  15.312  10.743
27197W        W31158   3.811  15.104   9.868
27198W        W31159   3.910  17.723  10.889
27199W        W31160   5.432  17.113   7.621
27200W        W31161   3.864  15.896   9.314
27201W        W31162   4.757  15.787  10.551
27202W        W31163   7.216  15.646   9.050
27203W        W31164   6.980  16.689   9.909
27204W        W31165   5.288  16.022   8.936
27205W        W31166   5.834  17.361   9.305
27206W        W31167   4.334  16.795   9.537
27207W        W31168   3.693  16.323   9.108
27208W        W31169   4.729  16.295  10.300
27209W        W31170   7.000  16.078  10.554
27210W        W31171   4.616  17.522   8.999
27211W        W31172   5.737  17.211  10.133
27212W        W31173   4.957  15.851   9.358
27213W        W31174   5.249  16.635   9.001
27214W        W31175   6.246  17.408  10.849
27215W        W31176   5.325  16.728  10.859
27216W        W31177   5.306  16.444  10.337
27217W        W31178   3.715  15.835  10.859
27218W        W31179   6.547  17.370  10.458
27219W        W31180   4.128  14.952   8.456
27220W        W31181   4.655  17.210   9.455
27221W        W31182   7.118  16.993   8.745
27222W        W31183   6.531  15.393   9.312
27223W        W31184   6.816  15.346   7.407
27224W        W31185   7.281  16.147   9.713
27225W        W31186   5.248  17.854   9.466
27226W        W31187   7.022  17.320   7.904
27227W        W31188   4.151  18.106   7.658
27228W        W31189   4.544  18.152   8.334
27229W        W31190   4.341  14.906   9.760
27230W        W31191   6.964  15.924  10.035
27231W        W31192   6.369  16.346   8.494
27232W        W31193   6.335  16.034   7.521
27233W        W31194   5.543  17.178   9.661
27234W        W31195   5.349  15.508   8.860
27235W        W31196   5.949  17.595   9.854
27236W        W31197   6.820  16.386   8.276
27237W        W31198   5.722  15.044   8.292
27238W        W31199   4.379  17.738   7.975
27239W        W31200   3.750  15.237   8.574
27240W        W31201   6.536  15.844   9.048
27241W        W31202   3.994  17.461   8.963
27242W        W31203   5.335  17.811   7.833
27243W        W31204   6.727  15.837   7.297
27244W        W31205   3.750  17.595   9.461
27245W        W31206   4.541  17.167   9.941
27246W        W31207   4.914  16.527   8.560
27247W        W31208   4.936  14.932   9.653
27248W        W31209   7.165  14.694   8.950
27249W        W31210   4.384  16.566   7.418
27250W        W31211   4.039  15.599   7.597
27251W        W31212   4.101  17.555   8.391
27252W        W31213   5.232  17.038   8.639
27253W        W31214   6.564  17.897  10.353
27254W        W31215   5.490  15.539   8.037
27255W        W31216   6.873  17.937   8.809
27256W        W31217   6.550  15.790  10.407
27257W        W31218   7.263  17.446   8.541
27258W        W31219   5.890  16.738  10.025
27259W        W31220   3.656  16.289   8.231
27260W        W31221   4.767  16.704   9.804
27261W        W31222   5.848  16.458   8.286
27262W        W31223   4.191  15.878   9.760
27263W        W31224   4.176  15.754  10.682
27264W        W31225   4.066  14.671   8.841
27265W        W31226   5.834  15.018   9.402
27266W        W31227   5.482  15.203  10.565
27267W        W31228   5.837  15.352   7.743
27268W        W31229   7.020  17.745  10.497
27269W        W31230   5.987  14.826  10.536
27270W        W31231   7.006  17.127  10.658
27271W        W31232   6.436  15.294  10.254
27272W        W31233   6.236  15.232   8.524
27273W        W31234   6.629  16.366  10.928
27274W        W31235   4.369  17.942   8.914
27275W        W31236   5.027  15.659   7.900
27276W        W31237   4.596  14.943  10.564
27277W        W31238   6.648  15.427   8.245
27278W        W31239   7.015  15.909   8.190
27279W        W31240   4.758  18.126  10.661
27280W        W31241   4.684  14.662   7.896
27281W        W31242   7.005  15.196   8.931
27282W        W31243   7.155  17.445   7.376
27283W        W31244   4.062  16.648   9.078
27284W        W31245   5.979  15.235   7.308
27285W        W31246   7.113  17.567   9.028
27286W        W31247   7.152  14.761   9.778
27287W        W31248   5.597  15.973  10.332
27288W        W31249   5.690  17.312   8.035
27289W        W31250   6.090  16.606  10.775
27290W        W31251   5.764  14.583   9.084
27291W        W31252   4.376  15.486   9.147
27292W        W31253   3.930  16.686   9.921
27293W        W31254   5.789  17.879   8.627
27294W        W31255   6.983  15.476   9.499
27295W        W31256   5.620  17.823  10.266
27296W        W31257   6.963  16.882   7.471
27297W        W31258   5.398  16.365   8.532
27298W        W31259   7.250  14.876  10.273
27299W        W31260   5.399  16.711   9.867
27300W        W31261   5.616  15.597   9.312
27301W        W31262   6.468  15.895   8.150
27302W        W31263   6.755  15.628   7.792
27303W        W31264   6.564  17.668   8.181
27304W        W31265   6.398  17.271   8.977
27305W        W31266   6.294  16.350   7.955
27306W        W31267   5.727  16.560   8.941
27307W        W31268   6.608  16.348   9.008
27308W        W31269   3.983  15.363   9.432
27309W        W31270   6.761  16.415  10.259
27310W        W31271   7.112  18.033   9.405
27311W        W31272   5.042  17.477   8.807
27312W        W31273   6.049  18.010  10.131
27313W        W31274   6.043  15.340   9.895
27314W        W31275   5.250  18.048   9.956
27315W        W31276   6.947  15.002   8.422
27316W        W31277   6.738  16.321   9.723
27317W        W31278   3.721  15.642   9.761
27318W        W31279   6.581  15.437   8.779
27319W        W31280   6.992  15.588  10.556
27320W        W31281   5.877  17.287   8.774
27321W        W31282   5.133  17.878   8.387
27322W        W31283   4.248  15.058   7.645
27323W        W31284   5.352  14.712   9.455
27324W        W31285   4.380  17.832   7.303
27325W        W31286   5.408  16.927  10.367
27326W        W31287   5.238  15.285   8.357
27327W        W31288   6.594  14.882   8.785
27328W        W31289   6.314  18.164   9.113
27329W        W31290   5.726  17.812   9.453
27330W        W31291   5.122  16.849   9.414
27331W        W31292   6.892  17.572   9.540
27332W        W31293   4.586  15.075   8.309
27333W        W31294   5.108  17.372   9.269
27334W        W31295   4.591  15.303   7.334
27335W        W31296   5.392  15.912   9.728
27336W        W31297   6.240  14.778   9.598
27337W        W31298   3.660  16.621   9.483
27338W        W31299   5.364  16.439   7.641
27339W        W31300   4.632  14.754   7.411
27340W        W31301   5.370  15.835   8.462
27341W        W31302   6.340  14.811  10.161
27342W        W31303   4.928  16.823  10.270
27343W        W31304   5.732  16.605  10.487
27344W        W31305   6.349  16.635  10.380
27345W        W31306   5.633  14.775  10.885
27346W        W31307   4.855  15.391   9.278
27347W        W31308   4.281  15.347   8.676
27348W        W31309   4.067  18.059   8.352
27349W        W31310   5.399  17.389  10.477
27350W        W31311   4.434  16.874   7.836
27351W        W31312   6.114  16.259   9.057
27352W        W31313   6.394  16.058   9.456
27353W        W31314   5.599  16.732   9.390
27354W        W31315   6.069  17.106   7.522
27355W        W31316   5.741  15.127   8.850
27356W        W31317   7.220  15.405   8.118
27357W        W31318   3.714  17.994  10.149
27358W        W31319   4.131  17.220   9.681
27359W        W31320   3.698  18.066   7.913
27360W        W31321   5.597  15.336   9.719
27361W        W31322   4.960  17.359   7.568
27362W        W31323   6.865  17.741   7.754
27363W        W31324   5.840  16.394   7.768
27364W        W31325   4.683  15.585   8.285
27365W        W31326   5.515  15.495   7.337
27366W        W31327   6.099  17.060  10.515
27367W        W31328   6.452  14.966   8.132
27368W        W31329   3.782  14.814   7.580
27369W        W31330   5.068  17.133   9.870
27370W        W31331   4.867  17.049   8.962
27371W        W31332   4.609  17.001   7.360
27372W        W31333   3.850  17.242   8.128
27373W        W31334   4.354  16.312  10.570
27374W        W31335   5.058  14.872  10.756
27375W        W31336   5.767  15.014  10.112
27376W        W31337   4.962  14.782   8.393
27377W        W31338   6.021  14.859   7.898
27378W        W31339   3.966  14.791   9.475
27379W        W31340   4.014  15.754   8.845
27380W        W31341   6.703  14.862   9.251
27381W        W31342   4.125  15.360   8.065
27382W        W31343   6.696  15.048   9.681
27383W        W31344   7.092  16.251   7.366
27384W        W31345   4.384  15.009   9.185
27385W        W31346   5.498  15.581  10.125
27386W        W31347   3.646  15.271   7.603
27387W        W31348   4.432  16.660  10.164
27388W        W31349   5.790  16.058   9.343
27389W        W31350   5.657  18.137   7.639
27390W        W31351   3.803  16.644   7.336
27391W        W31352   4.538  17.055  10.462
27392W        W31353   4.059  16.222  10.093
27393W        W31354   5.050  16.327   9.887
27394W        W31355   6.818  14.686  10.149
27395W        W31356   7.216  16.296  10.140
27396W        W31357   7.204  16.496   7.826
27397W        W31358   6.067  16.828   7.925
27398W        W31359   6.541  18.128   7.620
27399W        W31360   5.718  16.118  10.762
27400W        W31361   4.048  17.085  10.802
27401W        W31362   7.254  15.007  10.754
27402W        W31363   6.972  15.935   9.375
27403W        W31364   5.280  18.065  10.852
27404W        W31365   5.135  14.694   7.579
27405W        W31366   6.674  17.293   7.522
27406W        W31367   4.443  15.386  10.408
27407W        W31368   4.877  17.380  10.270
27408W        W31369   7.003  15.371  10.068
27409W        W31370   6.214  18.030   8.036
27410W        W31371   6.453  16.649   9.403
27411W        W31372   4.703  15.065  10.070
27412W        W31373   5.172  16.134  10.827
27413W        W31374   4.675  17.313   8.021
27414W        W31375   6.430  16.811   8.285
27415W        W31376   4.198  15.437  10.009
27416W        W31377   5.527  17.499   8.473
27417W        W31378   7.277  16.059   8.654
27418W        W31379   5.499  14.692  10.373
27419W        W31380   6.279  17.397   9.452
27420W        W31381   6.582  17.741   9.160
27421W        W31382   5.801  17.543   7.588
27422W        W31383   3.811  17.435  10.430
27423W        W31384   4.554  15.427   9.668
27424W        W31385   4.524  14.775   8.778
27425W        W31386   6.145  15.617   9.470
27426W        W31387   4.943  16.788   7.670
27427W        W31388   6.941  16.730   9.169
27428W        W31389   4.268  17.488  10.592
27429W        W31390   6.655  18.170   8.389
27430W        W31391   4.754  15.190   8.834
27431W        W31392   4.523  16.683   8.924
27432W        W31393   4.836  18.094   9.674
27433W        W31394   6.903  18.190  10.706
27434W        W31395   6.062  16.378   9.639
27435W        W31396   3.911  16.176   7.554
27436W        W31397   7.045  17.834   8.251
27437W        W31398   6.882  15.158   7.870
27438W        W31399   5.021  14.677  10.273
27439W        W31400   6.727  17.479   8.731
27440W        W31401   6.756  16.035   8.636
27441W        W31402   4.873  15.708   8.852
27442W        W31403   5.118  15.970  10.176
27443W        W31404   6.229  17.123  10.039
27444W        W31405   4.879  15.577  10.151
27445W        W31406   4.858  18.043   8.767
27446W        W31407   4.175  18.002  10.401
27447W        W31408   4.287  17.363   7.531
27448W        W31409   6.804  17.121   8.341
27449W        W31410   4.408  15.913  10.227
27450W        W31411   7.181  15.843   7.708
27451W        W31412   6.025  16.282  10.260
27452W        W31413   5.916  15.910   9.804
27453W        W31414   4.476  16.282   9.833
27454W        W31415   6.686  18.170   9.662
27455W        W31416   6.477  14.804  10.656
27456W        W31417   4.141  14.954  10.243
27457W        W31418   4.480  15.977   9.296
27458W        W31419   4.849  15.791   7.418
27459W        W31420   3.652  17.550   9.963
27460W        W31421   5.237  16.259   9.406
27461W        W31422   5.060  15.284   7.511
27462W        W31423   4.195  16.100   8.292
27463W        W31424   3.966  17.952   9.729
27464W        W31425   6.761  16.178   7.837
27465W        W31426   6.856  15.094  10.523
27466W        W31427   6.292  17.303   8.486
27467W        W31428   3.890  16.227  10.663
27468W        W31429   6.856  14.691   7.959
27469W        W31430   6.376  17.166   7.970
27470W        W31431   6.465  15.028   7.578
27471W        W31432   6.530  15.635   9.764
27472W        W31433   4.239  16.228   8.971
27473W        W31434   4.533  17.167   8.620
27474W        W31435   6.296  15.787   8.585
27475W        W31436   5.319  15.166   9.281
27476W        W31437   7.281  17.077   9.792
27477W        W31438   7.199  15.064   9.353
27478W        W31439   3.738  17.894   8.729
27479W        W31440   4.247  17.081   8.265
27480W        W31441   4.162  14.698  10.818
27481W        W31442   5.281  17.551  10.920
27482W        W31443   7.036  16.519   8.710
27483W        W31444   6.390  16.696   7.590
27484W        W31445   5.685  18.217   9.802
27485W        W31446   6.542  16.939  10.839
27486W        W31447   5.357  14.649   8.119
27487W        W31448   6.070  15.518   8.978
27488W        W31449   3.756  17.105   9.310
27489W        W31450   5.009  15.067   7.951
27490W        W31451   4.813  16.551  10.800
27491W        W31452   5.807  15.532   8.514
27492W        W31453   6.012  16.942   9.636
27493W        W31454   4.166  17.547  10.071
27494W        W31455   4.757  17.530  10.794
27495W        W31456   4.608  15.327   7.808
27496W        W31457   6.125  15.469   8.133
27497W        W31458   6.083  17.577  10.370
27498W        W31459   4.768  16.169   8.969
27499W        W31460   4.423  17.867   9.834
27500W        W31461   7.168  17.984   7.435
27501W        W31462   4.031  16.656  10.431
27502W        W31463   6.026  16.918   9.119
27503W        W31464   4.462  16.567   8.361
27504W        W31465   4.833  17.574   9.756
27505W        W31466   5.211  14.993   8.797
27506W        W31467   3.822  16.977   7.727
27507W        W31468   5.341  15.928   7.597
27508W        W31469   3.987  16.477   8.616
27509W        W31470   5.277  15.119  10.080
27510W        W31471   6.949  14.828   7.507
27511W        W31472   7.042  16.574  10.606
27512W        W31473   5.696  17.831  10.758
27513W        W31474   7.254  16.925  10.280
27514W        W31475   6.662  17.723  10.891
27515W        W31476   4.401  18.179   9.369
27516W        W31477   7.260  16.801   8.243
27517W        W31478   5.790  16.068   8.756
27518W        W31479   5.557  14.680   8.646
27519W        W31480   4.616  17.664   8.483
27520W        W31481   5.115  15.405   9.708
27521W        W31482   4.815  14.774   9.177
27522W        W31483   3.878  17.596   7.725
27523W        W31484   5.694  16.960   8.443
27524W        W31485   4.569  17.755  10.322
27525W        W31486   4.046  16.578   8.018
27526W        W31487   3.931  15.121   9.017
27527W        W31488   5.479  17.086   9.074
27528W        W31489   3.731  14.940   8.094
27529W        W31490   6.395  16.146  10.021
27530W        W31491   6.272  15.532   7.593
27531W        W31492   6.789  17.204   9.241
27532W        W31493   5.450  17.688   9.072
27533W        W31494   4.862  17.792   7.983
27534W        W31495   6.144  14.695   7.413
27535W        W31496   3.944  17.955   9.154
27536W        W31497   6.141  15.713  10.789
27537W        W31498   4.124  15.243  10.788
27538W        W31499   3.855  15.843   8.121
27539W        W31500   4.546  15.832   7.846
27540W        W31501   6.309  16.159  10.663
27541W        W31502   4.652  16.440   9.372
27542W        W31503   6.126  14.726   8.492
27543W        W31504   5.257  18.157   8.995
27544W        W31505   6.471  17.619   9.932
27545W        W31506   6.055  17.768   9.043
27546W        W31507   6.074  16.748   8.637
27547W        W31508   5.536  14.973   7.708
27548W        W31509   7.217  14.601   8.430
27549W        W31510   4.905  16.236   7.593
27550W        W31511   7.071  15.573   8.583
27551W        W31512   5.763  16.743   7.460
27552W        W31513   6.699  16.943  10.208
27553W        W31514   6.353  17.644   7.675
27554W        W31515   4.968  15.319  10.581
27555W        W31516   4.788  15.903   9.822
27556W        W31517   6.880  17.398  10.099
27557W        W31518   5.980  15.348  10.476
27558W        W31519   3.824  15.819  10.253
27559W        W31520   5.584  16.296   9.979
27560W        W31521   3.941  17.054   8.636
27561W        W31522   4.088  16.351   9.526
27562W        W31523   6.405  16.637   9.876
27563W        W31524   6.177  18.017  10.687
27564W        W31525   6.073  15.756  10.240
27565W        W31526   6.350  17.810   8.645
27566W        W31527   5.352  17.530   9.968
27567W        W31528   4.837  17.885   9.237
27568W        W31529   6.642  17.056   9.656
27569W        W31530   5.692  17.128  10.793
27570W        W31531   4.297  17.081   9.132
27571W        W31532   6.643  16.840   8.777
27572W        W31533   6.284  17.906   9.528
27573W        W31534   4.262  17.635   9.398
27574W        W31535   5.283  15.687  10.608
27575W        W31536   5.734  17.853   8.119
27576W        W31537   5.042  17.108  10.757
27577W        W31538   5.168  17.346   8.134
27578W        W31539   4.389  16.086   7.393
27579W        W31540   3.728  18.172  14.292
27580W        W31541   4.104  17.065  13.815
27581W        W31542   6.809  16.795  11.585
27582W        W31543   6.939  17.880  13.612
27583W        W31544   4.857  17.871  11.138
27584W        W31545   4.940  16.023  12.121
27585W        W31546   4.455  15.871  12.285
27586W        W31547   5.446  16.686  11.719
27587W        W31548   5.121  17.778  14.074
27588W        W31549   3.770  15.339  14.037
27589W        W31550   4.532  14.619  13.839
27590W        W31551   6.226  15.007  12.726
27591W        W31552   5.875  15.878  11.296
27592W        W31553   6.445  15.312  14.387
27593W        W31554   3.811  15.104  13.512
27594W        W31555   3.910  17.723  14.533
27595W        W31556   5.432  17.113  11.265
27596W        W31557   3.864  15.896  12.958
27597W        W31558   4.757  15.787  14.195
27598W        W31559   7.216  15.646  12.694
27599W        W31560   6.980  16.689  13.553
27600W        W31561   5.288  16.022  12.580
27601W        W31562   5.834  17.361  12.949
27602W        W31563   4.334  16.795  13.181
27603W        W31564   4.729  16.295  13.944
27604W        W31565   7.000  16.078  14.198
27605W        W31566   4.616  17.522  12.643
27606W        W31567   5.737  17.211  13.777
27607W        W31568   4.957  15.851  13.002
27608W        W31569   5.249  16.635  12.645
27609W        W31570   6.246  17.408  14.493
27610W        W31571   5.325  16.728  14.503
27611W        W31572   5.306  16.444  13.981
27612W        W31573   3.715  15.835  14.503
27613W        W31574   6.547  17.370  14.102
27614W        W31575   4.128  14.952  12.100
27615W        W31576   4.655  17.210  13.099
27616W        W31577   7.118  16.993  12.389
27617W        W31578   6.531  15.393  12.956
27618W        W31579   6.816  15.346  11.051
27619W        W31580   7.281  16.147  13.357
27620W        W31581   5.248  17.854  13.110
27621W        W31582   7.022  17.320  11.548
27622W        W31583   4.151  18.106  11.302
27623W        W31584   4.544  18.152  11.978
27624W        W31585   4.341  14.906  13.404
27625W        W31586   6.964  15.924  13.679
27626W        W31587   6.369  16.346  12.138
27627W        W31588   6.335  16.034  11.165
27628W        W31589   5.543  17.178  13.305
27629W        W31590   5.349  15.508  12.504
27630W        W31591   5.949  17.595  13.498
27631W        W31592   6.820  16.386  11.920
27632W        W31593   5.722  15.044  11.936
27633W        W31594   4.379  17.738  11.619
27634W        W31595   3.750  15.237  12.218
27635W        W31596   6.536  15.844  12.692
27636W        W31597   3.994  17.461  12.607
27637W        W31598   5.335  17.811  11.477
27638W        W31599   6.727  15.837  10.941
27639W        W31600   3.750  17.595  13.105
27640W        W31601   4.541  17.167  13.585
27641W        W31602   4.914  16.527  12.204
27642W        W31603   4.936  14.932  13.297
27643W        W31604   7.165  14.694  12.594
27644W        W31605   4.384  16.566  11.062
27645W        W31606   4.039  15.599  11.241
27646W        W31607   4.101  17.555  12.035
27647W        W31608   5.232  17.038  12.283
27648W        W31609   6.564  17.897  13.997
27649W        W31610   5.490  15.539  11.681
27650W        W31611   6.873  17.937  12.453
27651W        W31612   6.550  15.790  14.051
27652W        W31613   7.263  17.446  12.185
27653W        W31614   5.890  16.738  13.669
27654W        W31615   3.656  16.289  11.875
27655W        W31616   4.767  16.704  13.448
27656W        W31617   5.971  15.968  11.826
27657W        W31618   5.848  16.458  11.930
27658W        W31619   4.191  15.878  13.404
27659W        W31620   4.176  15.754  14.326
27660W        W31621   4.066  14.671  12.485
27661W        W31622   5.834  15.018  13.046
27662W        W31623   5.482  15.203  14.209
27663W        W31624   5.837  15.352  11.387
27664W        W31625   7.020  17.745  14.141
27665W        W31626   5.987  14.826  14.180
27666W        W31627   7.006  17.127  14.302
27667W        W31628   6.436  15.294  13.898
27668W        W31629   6.236  15.232  12.168
27669W        W31630   6.629  16.366  14.572
27670W        W31631   4.369  17.942  12.558
27671W        W31632   5.027  15.659  11.544
27672W        W31633   4.596  14.943  14.208
27673W        W31634   6.648  15.427  11.889
27674W        W31635   7.015  15.909  11.834
27675W        W31636   4.758  18.126  14.305
27676W        W31637   4.684  14.662  11.540
27677W        W31638   7.005  15.196  12.575
27678W        W31639   7.155  17.445  11.020
27679W        W31640   5.979  15.235  10.952
27680W        W31641   7.113  17.567  12.672
27681W        W31642   7.152  14.761  13.422
27682W        W31643   5.597  15.973  13.976
27683W        W31644   5.690  17.312  11.679
27684W        W31645   6.090  16.606  14.419
27685W        W31646   5.764  14.583  12.728
27686W        W31647   4.376  15.486  12.791
27687W        W31648   3.930  16.686  13.565
27688W        W31649   5.789  17.879  12.271
27689W        W31650   6.983  15.476  13.143
27690W        W31651   5.620  17.823  13.910
27691W        W31652   6.963  16.882  11.115
27692W        W31653   5.398  16.365  12.176
27693W        W31654   7.250  14.876  13.917
27694W        W31655   5.399  16.711  13.511
27695W        W31656   5.616  15.597  12.956
27696W        W31657   6.468  15.895  11.794
27697W        W31658   6.755  15.628  11.436
27698W        W31659   6.564  17.668  11.825
27699W        W31660   6.398  17.271  12.621
27700W        W31661   6.294  16.350  11.599
27701W        W31662   5.727  16.560  12.585
27702W        W31663   6.608  16.348  12.652
27703W        W31664   3.983  15.363  13.076
27704W        W31665   6.761  16.415  13.903
27705W        W31666   7.112  18.033  13.049
27706W        W31667   5.042  17.477  12.451
27707W        W31668   6.049  18.010  13.775
27708W        W31669   6.043  15.340  13.539
27709W        W31670   5.250  18.048  13.600
27710W        W31671   6.947  15.002  12.066
27711W        W31672   6.738  16.321  13.367
27712W        W31673   3.721  15.642  13.405
27713W        W31674   6.581  15.437  12.423
27714W        W31675   6.992  15.588  14.200
27715W        W31676   5.877  17.287  12.418
27716W        W31677   5.133  17.878  12.031
27717W        W31678   4.248  15.058  11.289
27718W        W31679   5.352  14.712  13.099
27719W        W31680   4.380  17.832  10.947
27720W        W31681   4.754  16.298  11.698
27721W        W31682   5.408  16.927  14.011
27722W        W31683   5.238  15.285  12.001
27723W        W31684   6.594  14.882  12.429
27724W        W31685   6.314  18.164  12.757
27725W        W31686   5.726  17.812  13.097
27726W        W31687   5.122  16.849  13.058
27727W        W31688   6.892  17.572  13.184
27728W        W31689   4.586  15.075  11.953
27729W        W31690   5.108  17.372  12.913
27730W        W31691   4.591  15.303  10.978
27731W        W31692   5.392  15.912  13.372
27732W        W31693   6.240  14.778  13.242
27733W        W31694   3.660  16.621  13.127
27734W        W31695   5.364  16.439  11.285
27735W        W31696   4.632  14.754  11.055
27736W        W31697   5.370  15.835  12.106
27737W        W31698   6.340  14.811  13.805
27738W        W31699   4.928  16.823  13.914
27739W        W31700   5.732  16.605  14.131
27740W        W31701   6.349  16.635  14.024
27741W        W31702   5.633  14.775  14.529
27742W        W31703   4.855  15.391  12.922
27743W        W31704   4.281  15.347  12.320
27744W        W31705   4.067  18.059  11.996
27745W        W31706   5.399  17.389  14.121
27746W        W31707   4.434  16.874  11.480
27747W        W31708   6.114  16.259  12.701
27748W        W31709   6.394  16.058  13.100
27749W        W31710   5.599  16.732  13.034
27750W        W31711   6.069  17.106  11.166
27751W        W31712   5.741  15.127  12.494
27752W        W31713   7.220  15.405  11.762
27753W        W31714   3.714  17.994  13.793
27754W        W31715   4.131  17.220  13.325
27755W        W31716   3.698  18.066  11.557
27756W        W31717   5.597  15.336  13.363
27757W        W31718   4.960  17.359  11.212
27758W        W31719   6.865  17.741  11.398
27759W        W31720   5.840  16.394  11.412
27760W        W31721   4.683  15.585  11.929
27761W        W31722   5.515  15.495  10.981
27762W        W31723   6.099  17.060  14.159
27763W        W31724   6.452  14.966  11.776
27764W        W31725   3.782  14.814  11.224
27765W        W31726   5.068  17.133  13.514
27766W        W31727   4.867  17.049  12.606
27767W        W31728   4.609  17.001  11.004
27768W        W31729   3.850  17.242  11.772
27769W        W31730   4.354  16.312  14.214
27770W        W31731   5.058  14.872  14.400
27771W        W31732   5.767  15.014  13.756
27772W        W31733   4.962  14.782  12.037
27773W        W31734   6.021  14.859  11.542
27774W        W31735   3.966  14.791  13.119
27775W        W31736   4.014  15.754  12.489
27776W        W31737   6.703  14.862  12.895
27777W        W31738   4.125  15.360  11.709
27778W        W31739   6.696  15.048  13.325
27779W        W31740   7.092  16.251  11.010
27780W        W31741   4.384  15.009  12.829
27781W        W31742   5.498  15.581  13.769
27782W        W31743   3.646  15.271  11.247
27783W        W31744   4.432  16.660  13.808
27784W        W31745   5.790  16.058  12.987
27785W        W31746   5.657  18.137  11.283
27786W        W31747   3.803  16.644  10.980
27787W        W31748   4.538  17.055  14.106
27788W        W31749   4.059  16.222  13.737
27789W        W31750   5.050  16.327  13.531
27790W        W31751   6.818  14.686  13.793
27791W        W31752   7.216  16.296  13.784
27792W        W31753   7.204  16.496  11.470
27793W        W31754   6.067  16.828  11.569
27794W        W31755   6.541  18.128  11.264
27795W        W31756   5.718  16.118  14.406
27796W        W31757   4.048  17.085  14.446
27797W        W31758   7.254  15.007  14.398
27798W        W31759   6.972  15.935  13.019
27799W        W31760   5.280  18.065  14.496
27800W        W31761   5.135  14.694  11.223
27801W        W31762   6.674  17.293  11.166
27802W        W31763   4.443  15.386  14.052
27803W        W31764   4.877  17.380  13.914
27804W        W31765   7.003  15.371  13.712
27805W        W31766   6.214  18.030  11.680
27806W        W31767   6.453  16.649  13.047
27807W        W31768   4.703  15.065  13.714
27808W        W31769   5.172  16.134  14.471
27809W        W31770   4.675  17.313  11.665
27810W        W31771   6.430  16.811  11.929
27811W        W31772   4.198  15.437  13.653
27812W        W31773   5.527  17.499  12.117
27813W        W31774   7.277  16.059  12.298
27814W        W31775   5.499  14.692  14.017
27815W        W31776   6.279  17.397  13.096
27816W        W31777   6.582  17.741  12.804
27817W        W31778   5.801  17.543  11.232
27818W        W31779   3.811  17.435  14.074
27819W        W31780   4.554  15.427  13.312
27820W        W31781   4.524  14.775  12.422
27821W        W31782   6.145  15.617  13.114
27822W        W31783   4.943  16.788  11.314
27823W        W31784   6.941  16.730  12.813
27824W        W31785   4.268  17.488  14.236
27825W        W31786   6.655  18.170  12.033
27826W        W31787   4.754  15.190  12.478
27827W        W31788   4.523  16.683  12.568
27828W        W31789   4.836  18.094  13.318
27829W        W31790   6.903  18.190  14.350
27830W        W31791   6.062  16.378  13.283
27831W        W31792   3.911  16.176  11.198
27832W        W31793   7.045  17.834  11.895
27833W        W31794   6.882  15.158  11.514
27834W        W31795   5.021  14.677  13.917
27835W        W31796   6.727  17.479  12.375
27836W        W31797   6.756  16.035  12.280
27837W        W31798   4.873  15.708  12.496
27838W        W31799   5.118  15.970  13.820
27839W        W31800   6.229  17.123  13.683
27840W        W31801   4.879  15.577  13.795
27841W        W31802   4.858  18.043  12.411
27842W        W31803   4.175  18.002  14.045
27843W        W31804   4.287  17.363  11.175
27844W        W31805   6.804  17.121  11.985
27845W        W31806   4.408  15.913  13.871
27846W        W31807   7.181  15.843  11.352
27847W        W31808   4.926  16.900  11.823
27848W        W31809   6.025  16.282  13.904
27849W        W31810   5.916  15.910  13.448
27850W        W31811   4.476  16.282  13.477
27851W        W31812   6.686  18.170  13.306
27852W        W31813   6.477  14.804  14.300
27853W        W31814   4.141  14.954  13.887
27854W        W31815   4.480  15.977  12.940
27855W        W31816   4.849  15.791  11.062
27856W        W31817   3.652  17.550  13.607
27857W        W31818   5.237  16.259  13.050
27858W        W31819   5.060  15.284  11.155
27859W        W31820   4.195  16.100  11.936
27860W        W31821   3.966  17.952  13.373
27861W        W31822   6.761  16.178  11.481
27862W        W31823   6.856  15.094  14.167
27863W        W31824   6.292  17.303  12.130
27864W        W31825   3.890  16.227  14.307
27865W        W31826   6.856  14.691  11.603
27866W        W31827   6.376  17.166  11.614
27867W        W31828   5.278  16.224  11.699
27868W        W31829   6.465  15.028  11.222
27869W        W31830   6.530  15.635  13.408
27870W        W31831   4.239  16.228  12.615
27871W        W31832   4.533  17.167  12.264
27872W        W31833   6.296  15.787  12.229
27873W        W31834   5.319  15.166  12.925
27874W        W31835   7.281  17.077  13.436
27875W        W31836   7.199  15.064  12.997
27876W        W31837   3.738  17.894  12.373
27877W        W31838   4.247  17.081  11.909
27878W        W31839   4.162  14.698  14.462
27879W        W31840   5.281  17.551  14.564
27880W        W31841   7.036  16.519  12.354
27881W        W31842   6.390  16.696  11.234
27882W        W31843   5.685  18.217  13.446
27883W        W31844   6.542  16.939  14.483
27884W        W31845   5.357  14.649  11.763
27885W        W31846   6.070  15.518  12.622
27886W        W31847   3.756  17.105  12.954
27887W        W31848   5.009  15.067  11.595
27888W        W31849   4.813  16.551  14.444
27889W        W31850   5.807  15.532  12.158
27890W        W31851   6.012  16.942  13.280
27891W        W31852   4.166  17.547  13.715
27892W        W31853   4.757  17.530  14.438
27893W        W31854   4.608  15.327  11.452
27894W        W31855   6.125  15.469  11.777
27895W        W31856   6.083  17.577  14.014
27896W        W31857   4.768  16.169  12.613
27897W        W31858   4.423  17.867  13.478
27898W        W31859   7.168  17.984  11.079
27899W        W31860   4.031  16.656  14.075
27900W        W31861   6.026  16.918  12.763
27901W        W31862   4.462  16.567  12.005
27902W        W31863   4.833  17.574  13.400
27903W        W31864   5.211  14.993  12.441
27904W        W31865   3.822  16.977  11.371
27905W        W31866   5.341  15.928  11.241
27906W        W31867   3.987  16.477  12.260
27907W        W31868   5.277  15.119  13.724
27908W        W31869   6.949  14.828  11.151
27909W        W31870   7.042  16.574  14.250
27910W        W31871   5.696  17.831  14.402
27911W        W31872   7.254  16.925  13.924
27912W        W31873   6.662  17.723  14.535
27913W        W31874   4.401  18.179  13.013
27914W        W31875   7.260  16.801  11.887
27915W        W31876   5.790  16.068  12.400
27916W        W31877   5.557  14.680  12.290
27917W        W31878   4.616  17.664  12.127
27918W        W31879   5.115  15.405  13.352
27919W        W31880   4.815  14.774  12.821
27920W        W31881   3.878  17.596  11.369
27921W        W31882   5.694  16.960  12.087
27922W        W31883   4.569  17.755  13.966
27923W        W31884   4.046  16.578  11.662
27924W        W31885   3.931  15.121  12.661
27925W        W31886   5.479  17.086  12.718
27926W        W31887   3.731  14.940  11.738
27927W        W31888   6.395  16.146  13.665
27928W        W31889   6.272  15.532  11.237
27929W        W31890   6.789  17.204  12.885
27930W        W31891   5.450  17.688  12.716
27931W        W31892   4.862  17.792  11.627
27932W        W31893   6.144  14.695  11.057
27933W        W31894   3.944  17.955  12.798
27934W        W31895   6.141  15.713  14.433
27935W        W31896   4.124  15.243  14.432
27936W        W31897   3.855  15.843  11.765
27937W        W31898   4.546  15.832  11.490
27938W        W31899   6.309  16.159  14.307
27939W        W31900   4.652  16.440  13.016
27940W        W31901   6.126  14.726  12.136
27941W        W31902   5.257  18.157  12.639
27942W        W31903   6.471  17.619  13.576
27943W        W31904   6.055  17.768  12.687
27944W        W31905   6.074  16.748  12.281
27945W        W31906   5.536  14.973  11.352
27946W        W31907   7.217  14.601  12.074
27947W        W31908   4.905  16.236  11.237
27948W        W31909   7.071  15.573  12.227
27949W        W31910   5.763  16.743  11.104
27950W        W31911   6.699  16.943  13.852
27951W        W31912   6.353  17.644  11.319
27952W        W31913   4.968  15.319  14.225
27953W        W31914   4.788  15.903  13.466
27954W        W31915   6.880  17.398  13.743
27955W        W31916   5.980  15.348  14.120
27956W        W31917   3.824  15.819  13.897
27957W        W31918   5.584  16.296  13.623
27958W        W31919   3.941  17.054  12.280
27959W        W31920   4.088  16.351  13.170
27960W        W31921   6.405  16.637  13.520
27961W        W31922   6.177  18.017  14.331
27962W        W31923   6.073  15.756  13.884
27963W        W31924   6.350  17.810  12.289
27964W        W31925   5.352  17.530  13.612
27965W        W31926   4.837  17.885  12.881
27966W        W31927   6.642  17.056  13.300
27967W        W31928   5.692  17.128  14.437
27968W        W31929   4.297  17.081  12.776
27969W        W31930   6.643  16.840  12.421
27970W        W31931   6.284  17.906  13.172
27971W        W31932   4.262  17.635  13.042
27972W        W31933   5.283  15.687  14.252
27973W        W31934   5.734  17.853  11.763
27974W        W31935   5.042  17.108  14.401
27975W        W31936   5.168  17.346  11.778
27976W        W31937   4.389  16.086  11.037
27977W        W31938   3.728  18.172  17.936
27978W        W31939   4.104  17.065  17.459
27979W        W31940   6.809  16.795  15.229
27980W        W31941   6.939  17.880  17.256
27981W        W31942   4.857  17.871  14.782
27982W        W31943   4.940  16.023  15.765
27983W        W31944   4.455  15.871  15.929
27984W        W31945   5.446  16.686  15.363
27985W        W31946   5.121  17.778  17.718
27986W        W31947   3.770  15.339  17.681
27987W        W31948   4.532  14.619  17.483
27988W        W31949   6.226  15.007  16.370
27989W        W31950   5.875  15.878  14.940
27990W        W31951   6.445  15.312  18.031
27991W        W31952   3.811  15.104  17.156
27992W        W31953   3.910  17.723  18.177
27993W        W31954   5.432  17.113  14.909
27994W        W31955   3.864  15.896  16.602
27995W        W31956   4.757  15.787  17.839
27996W        W31957   7.216  15.646  16.338
27997W        W31958   6.980  16.689  17.197
27998W        W31959   5.288  16.022  16.224
27999W        W31960   5.834  17.361  16.593
28000W        W31961   4.334  16.795  16.825
28001W        W31962   3.693  16.323  16.396
28002W        W31963   4.729  16.295  17.588
28003W        W31964   7.000  16.078  17.842
28004W        W31965   4.616  17.522  16.287
28005W        W31966   5.737  17.211  17.421
28006W        W31967   4.957  15.851  16.646
28007W        W31968   5.249  16.635  16.289
28008W        W31969   6.246  17.408  18.137
28009W        W31970   5.325  16.728  18.147
28010W        W31971   5.306  16.444  17.625
28011W        W31972   3.715  15.835  18.147
28012W        W31973   6.547  17.370  17.746
28013W        W31974   4.128  14.952  15.744
28014W        W31975   4.655  17.210  16.743
28015W        W31976   7.118  16.993  16.033
28016W        W31977   6.531  15.393  16.600
28017W        W31978   6.816  15.346  14.695
28018W        W31979   7.281  16.147  17.001
28019W        W31980   5.248  17.854  16.754
28020W        W31981   7.022  17.320  15.192
28021W        W31982   4.151  18.106  14.946
28022W        W31983   4.544  18.152  15.622
28023W        W31984   4.341  14.906  17.048
28024W        W31985   6.964  15.924  17.323
28025W        W31986   6.369  16.346  15.782
28026W        W31987   6.335  16.034  14.809
28027W        W31988   5.543  17.178  16.949
28028W        W31989   5.349  15.508  16.148
28029W        W31990   5.949  17.595  17.142
28030W        W31991   6.820  16.386  15.564
28031W        W31992   5.722  15.044  15.580
28032W        W31993   4.379  17.738  15.263
28033W        W31994   3.750  15.237  15.862
28034W        W31995   6.536  15.844  16.336
28035W        W31996   3.994  17.461  16.251
28036W        W31997   5.335  17.811  15.121
28037W        W31998   6.727  15.837  14.585
28038W        W31999   3.750  17.595  16.749
28039W        W32000   4.541  17.167  17.229
28040W        W32001   4.914  16.527  15.848
28041W        W32002   4.936  14.932  16.941
28042W        W32003   7.165  14.694  16.238
28043W        W32004   4.384  16.566  14.706
28044W        W32005   4.039  15.599  14.885
28045W        W32006   4.101  17.555  15.679
28046W        W32007   5.232  17.038  15.927
28047W        W32008   6.564  17.897  17.641
28048W        W32009   5.490  15.539  15.325
28049W        W32010   6.873  17.937  16.097
28050W        W32011   6.550  15.790  17.695
28051W        W32012   7.263  17.446  15.829
28052W        W32013   5.890  16.738  17.313
28053W        W32014   3.656  16.289  15.519
28054W        W32015   4.767  16.704  17.092
28055W        W32016   5.971  15.968  15.470
28056W        W32017   5.848  16.458  15.574
28057W        W32018   4.191  15.878  17.048
28058W        W32019   4.176  15.754  17.970
28059W        W32020   4.066  14.671  16.129
28060W        W32021   5.834  15.018  16.690
28061W        W32022   5.482  15.203  17.853
28062W        W32023   5.837  15.352  15.031
28063W        W32024   7.020  17.745  17.785
28064W        W32025   5.987  14.826  17.824
28065W        W32026   7.006  17.127  17.946
28066W        W32027   6.436  15.294  17.542
28067W        W32028   6.236  15.232  15.812
28068W        W32029   6.629  16.366  18.216
28069W        W32030   4.369  17.942  16.202
28070W        W32031   5.027  15.659  15.188
28071W        W32032   4.596  14.943  17.852
28072W        W32033   6.648  15.427  15.533
28073W        W32034   7.015  15.909  15.478
28074W        W32035   4.758  18.126  17.949
28075W        W32036   4.684  14.662  15.184
28076W        W32037   7.005  15.196  16.219
28077W        W32038   7.155  17.445  14.664
28078W        W32039   4.062  16.648  16.366
28079W        W32040   5.979  15.235  14.596
28080W        W32041   7.113  17.567  16.316
28081W        W32042   7.152  14.761  17.066
28082W        W32043   5.597  15.973  17.620
28083W        W32044   5.690  17.312  15.323
28084W        W32045   6.090  16.606  18.063
28085W        W32046   5.764  14.583  16.372
28086W        W32047   4.376  15.486  16.435
28087W        W32048   3.930  16.686  17.209
28088W        W32049   5.789  17.879  15.915
28089W        W32050   6.983  15.476  16.787
28090W        W32051   5.620  17.823  17.554
28091W        W32052   6.963  16.882  14.759
28092W        W32053   5.398  16.365  15.820
28093W        W32054   7.250  14.876  17.561
28094W        W32055   5.399  16.711  17.155
28095W        W32056   5.616  15.597  16.600
28096W        W32057   6.468  15.895  15.438
28097W        W32058   6.755  15.628  15.080
28098W        W32059   6.564  17.668  15.469
28099W        W32060   6.398  17.271  16.265
28100W        W32061   6.294  16.350  15.243
28101W        W32062   5.727  16.560  16.229
28102W        W32063   6.608  16.348  16.296
28103W        W32064   3.983  15.363  16.720
28104W        W32065   6.761  16.415  17.547
28105W        W32066   7.112  18.033  16.693
28106W        W32067   5.042  17.477  16.095
28107W        W32068   6.049  18.010  17.419
28108W        W32069   6.043  15.340  17.183
28109W        W32070   5.250  18.048  17.244
28110W        W32071   6.947  15.002  15.710
28111W        W32072   6.738  16.321  17.011
28112W        W32073   3.721  15.642  17.049
28113W        W32074   6.581  15.437  16.067
28114W        W32075   6.992  15.588  17.844
28115W        W32076   5.877  17.287  16.062
28116W        W32077   5.133  17.878  15.675
28117W        W32078   4.248  15.058  14.933
28118W        W32079   5.352  14.712  16.743
28119W        W32080   4.380  17.832  14.591
28120W        W32081   4.754  16.298  15.342
28121W        W32082   5.408  16.927  17.655
28122W        W32083   5.238  15.285  15.645
28123W        W32084   6.594  14.882  16.073
28124W        W32085   6.314  18.164  16.401
28125W        W32086   5.726  17.812  16.741
28126W        W32087   5.122  16.849  16.702
28127W        W32088   6.892  17.572  16.828
28128W        W32089   4.586  15.075  15.597
28129W        W32090   5.108  17.372  16.557
28130W        W32091   4.591  15.303  14.622
28131W        W32092   5.392  15.912  17.016
28132W        W32093   6.240  14.778  16.886
28133W        W32094   3.660  16.621  16.771
28134W        W32095   5.364  16.439  14.929
28135W        W32096   4.632  14.754  14.699
28136W        W32097   5.370  15.835  15.750
28137W        W32098   6.340  14.811  17.449
28138W        W32099   4.928  16.823  17.558
28139W        W32100   5.732  16.605  17.775
28140W        W32101   6.349  16.635  17.668
28141W        W32102   4.855  15.391  16.566
28142W        W32103   4.281  15.347  15.964
28143W        W32104   4.067  18.059  15.640
28144W        W32105   5.399  17.389  17.765
28145W        W32106   4.434  16.874  15.124
28146W        W32107   6.114  16.259  16.345
28147W        W32108   6.394  16.058  16.744
28148W        W32109   5.599  16.732  16.678
28149W        W32110   6.069  17.106  14.810
28150W        W32111   5.741  15.127  16.138
28151W        W32112   7.220  15.405  15.406
28152W        W32113   3.714  17.994  17.437
28153W        W32114   4.131  17.220  16.969
28154W        W32115   3.698  18.066  15.201
28155W        W32116   5.597  15.336  17.007
28156W        W32117   4.960  17.359  14.856
28157W        W32118   6.865  17.741  15.042
28158W        W32119   5.840  16.394  15.056
28159W        W32120   4.683  15.585  15.573
28160W        W32121   5.515  15.495  14.625
28161W        W32122   6.099  17.060  17.803
28162W        W32123   6.452  14.966  15.420
28163W        W32124   3.782  14.814  14.868
28164W        W32125   5.068  17.133  17.158
28165W        W32126   4.867  17.049  16.250
28166W        W32127   4.609  17.001  14.648
28167W        W32128   3.850  17.242  15.416
28168W        W32129   4.354  16.312  17.858
28169W        W32130   5.058  14.872  18.044
28170W        W32131   5.767  15.014  17.400
28171W        W32132   4.962  14.782  15.681
28172W        W32133   6.021  14.859  15.186
28173W        W32134   3.966  14.791  16.763
28174W        W32135   4.014  15.754  16.133
28175W        W32136   6.703  14.862  16.539
28176W        W32137   4.125  15.360  15.353
28177W        W32138   6.696  15.048  16.969
28178W        W32139   7.092  16.251  14.654
28179W        W32140   4.384  15.009  16.473
28180W        W32141   5.498  15.581  17.413
28181W        W32142   3.646  15.271  14.891
28182W        W32143   4.432  16.660  17.452
28183W        W32144   5.790  16.058  16.631
28184W        W32145   5.657  18.137  14.927
28185W        W32146   3.803  16.644  14.624
28186W        W32147   4.538  17.055  17.750
28187W        W32148   4.059  16.222  17.381
28188W        W32149   5.050  16.327  17.175
28189W        W32150   6.818  14.686  17.437
28190W        W32151   7.216  16.296  17.428
28191W        W32152   7.204  16.496  15.114
28192W        W32153   6.067  16.828  15.213
28193W        W32154   6.541  18.128  14.908
28194W        W32155   5.718  16.118  18.050
28195W        W32156   4.048  17.085  18.090
28196W        W32157   7.254  15.007  18.042
28197W        W32158   6.972  15.935  16.663
28198W        W32159   5.280  18.065  18.140
28199W        W32160   5.135  14.694  14.867
28200W        W32161   6.674  17.293  14.810
28201W        W32162   4.443  15.386  17.696
28202W        W32163   4.877  17.380  17.558
28203W        W32164   7.003  15.371  17.356
28204W        W32165   6.214  18.030  15.324
28205W        W32166   6.453  16.649  16.691
28206W        W32167   4.703  15.065  17.358
28207W        W32168   5.172  16.134  18.115
28208W        W32169   4.675  17.313  15.309
28209W        W32170   6.430  16.811  15.573
28210W        W32171   4.198  15.437  17.297
28211W        W32172   5.527  17.499  15.761
28212W        W32173   7.277  16.059  15.942
28213W        W32174   5.499  14.692  17.661
28214W        W32175   6.279  17.397  16.740
28215W        W32176   6.582  17.741  16.448
28216W        W32177   5.801  17.543  14.876
28217W        W32178   3.811  17.435  17.718
28218W        W32179   4.554  15.427  16.956
28219W        W32180   4.524  14.775  16.066
28220W        W32181   6.145  15.617  16.758
28221W        W32182   4.943  16.788  14.958
28222W        W32183   6.941  16.730  16.457
28223W        W32184   4.268  17.488  17.880
28224W        W32185   6.655  18.170  15.677
28225W        W32186   4.754  15.190  16.122
28226W        W32187   4.523  16.683  16.212
28227W        W32188   4.836  18.094  16.962
28228W        W32189   6.903  18.190  17.994
28229W        W32190   6.062  16.378  16.927
28230W        W32191   3.911  16.176  14.842
28231W        W32192   7.045  17.834  15.539
28232W        W32193   6.882  15.158  15.158
28233W        W32194   5.021  14.677  17.561
28234W        W32195   6.727  17.479  16.019
28235W        W32196   6.756  16.035  15.924
28236W        W32197   4.873  15.708  16.140
28237W        W32198   5.118  15.970  17.464
28238W        W32199   6.229  17.123  17.327
28239W        W32200   4.879  15.577  17.439
28240W        W32201   4.858  18.043  16.055
28241W        W32202   4.175  18.002  17.689
28242W        W32203   4.287  17.363  14.819
28243W        W32204   6.804  17.121  15.629
28244W        W32205   4.408  15.913  17.515
28245W        W32206   7.181  15.843  14.996
28246W        W32207   4.926  16.900  15.467
28247W        W32208   6.025  16.282  17.548
28248W        W32209   5.916  15.910  17.092
28249W        W32210   4.476  16.282  17.121
28250W        W32211   6.686  18.170  16.950
28251W        W32212   6.477  14.804  17.944
28252W        W32213   4.141  14.954  17.531
28253W        W32214   4.480  15.977  16.584
28254W        W32215   4.849  15.791  14.706
28255W        W32216   3.652  17.550  17.251
28256W        W32217   5.237  16.259  16.694
28257W        W32218   5.060  15.284  14.799
28258W        W32219   4.195  16.100  15.580
28259W        W32220   3.966  17.952  17.017
28260W        W32221   6.761  16.178  15.125
28261W        W32222   6.856  15.094  17.811
28262W        W32223   6.292  17.303  15.774
28263W        W32224   3.890  16.227  17.951
28264W        W32225   6.856  14.691  15.247
28265W        W32226   6.376  17.166  15.258
28266W        W32227   5.278  16.224  15.343
28267W        W32228   6.465  15.028  14.866
28268W        W32229   6.530  15.635  17.052
28269W        W32230   4.239  16.228  16.259
28270W        W32231   4.533  17.167  15.908
28271W        W32232   6.296  15.787  15.873
28272W        W32233   5.319  15.166  16.569
28273W        W32234   7.281  17.077  17.080
28274W        W32235   7.199  15.064  16.641
28275W        W32236   3.738  17.894  16.017
28276W        W32237   4.247  17.081  15.553
28277W        W32238   4.162  14.698  18.106
28278W        W32239   5.281  17.551  18.208
28279W        W32240   7.036  16.519  15.998
28280W        W32241   6.390  16.696  14.878
28281W        W32242   5.685  18.217  17.090
28282W        W32243   6.542  16.939  18.127
28283W        W32244   5.357  14.649  15.407
28284W        W32245   6.070  15.518  16.266
28285W        W32246   3.756  17.105  16.598
28286W        W32247   5.009  15.067  15.239
28287W        W32248   4.813  16.551  18.088
28288W        W32249   5.807  15.532  15.802
28289W        W32250   6.012  16.942  16.924
28290W        W32251   4.166  17.547  17.359
28291W        W32252   4.757  17.530  18.082
28292W        W32253   4.608  15.327  15.096
28293W        W32254   6.125  15.469  15.421
28294W        W32255   6.083  17.577  17.658
28295W        W32256   4.768  16.169  16.257
28296W        W32257   4.423  17.867  17.122
28297W        W32258   7.168  17.984  14.723
28298W        W32259   4.031  16.656  17.719
28299W        W32260   6.026  16.918  16.407
28300W        W32261   4.462  16.567  15.649
28301W        W32262   4.833  17.574  17.044
28302W        W32263   5.211  14.993  16.085
28303W        W32264   3.822  16.977  15.015
28304W        W32265   5.341  15.928  14.885
28305W        W32266   3.987  16.477  15.904
28306W        W32267   5.277  15.119  17.368
28307W        W32268   6.949  14.828  14.795
28308W        W32269   7.042  16.574  17.894
28309W        W32270   5.696  17.831  18.046
28310W        W32271   7.254  16.925  17.568
28311W        W32272   6.662  17.723  18.179
28312W        W32273   4.401  18.179  16.657
28313W        W32274   7.260  16.801  15.531
28314W        W32275   5.790  16.068  16.044
28315W        W32276   5.557  14.680  15.934
28316W        W32277   4.616  17.664  15.771
28317W        W32278   5.115  15.405  16.996
28318W        W32279   4.815  14.774  16.465
28319W        W32280   3.878  17.596  15.013
28320W        W32281   5.694  16.960  15.731
28321W        W32282   4.569  17.755  17.610
28322W        W32283   4.046  16.578  15.306
28323W        W32284   3.931  15.121  16.305
28324W        W32285   5.479  17.086  16.362
28325W        W32286   3.731  14.940  15.382
28326W        W32287   6.395  16.146  17.309
28327W        W32288   6.272  15.532  14.881
28328W        W32289   6.789  17.204  16.529
28329W        W32290   5.450  17.688  16.360
28330W        W32291   4.862  17.792  15.271
28331W        W32292   6.144  14.695  14.701
28332W        W32293   3.944  17.955  16.442
28333W        W32294   6.141  15.713  18.077
28334W        W32295   4.124  15.243  18.076
28335W        W32296   3.855  15.843  15.409
28336W        W32297   4.546  15.832  15.134
28337W        W32298   6.309  16.159  17.951
28338W        W32299   4.652  16.440  16.660
28339W        W32300   6.126  14.726  15.780
28340W        W32301   5.257  18.157  16.283
28341W        W32302   6.471  17.619  17.220
28342W        W32303   6.055  17.768  16.331
28343W        W32304   6.074  16.748  15.925
28344W        W32305   5.536  14.973  14.996
28345W        W32306   7.217  14.601  15.718
28346W        W32307   4.905  16.236  14.881
28347W        W32308   7.071  15.573  15.871
28348W        W32309   5.763  16.743  14.748
28349W        W32310   6.699  16.943  17.496
28350W        W32311   6.353  17.644  14.963
28351W        W32312   4.968  15.319  17.869
28352W        W32313   4.788  15.903  17.110
28353W        W32314   6.880  17.398  17.387
28354W        W32315   5.980  15.348  17.764
28355W        W32316   3.824  15.819  17.541
28356W        W32317   5.584  16.296  17.267
28357W        W32318   3.941  17.054  15.924
28358W        W32319   4.088  16.351  16.814
28359W        W32320   6.405  16.637  17.164
28360W        W32321   6.177  18.017  17.975
28361W        W32322   6.073  15.756  17.528
28362W        W32323   6.350  17.810  15.933
28363W        W32324   5.352  17.530  17.256
28364W        W32325   4.837  17.885  16.525
28365W        W32326   6.642  17.056  16.944
28366W        W32327   5.692  17.128  18.081
28367W        W32328   4.297  17.081  16.420
28368W        W32329   6.643  16.840  16.065
28369W        W32330   6.284  17.906  16.816
28370W        W32331   4.262  17.635  16.686
28371W        W32332   5.283  15.687  17.896
28372W        W32333   5.734  17.853  15.407
28373W        W32334   5.042  17.108  18.045
28374W        W32335   5.168  17.346  15.422
28375W        W32336   4.389  16.086  14.681
28376W        W32337   3.728  18.172  21.580
28377W        W32338   4.104  17.065  21.103
28378W        W32339   6.809  16.795  18.873
28379W        W32340   6.939  17.880  20.900
28380W        W32341   4.857  17.871  18.426
28381W        W32342   4.940  16.023  19.409
28382W        W32343   4.455  15.871  19.573
28383W        W32344   5.446  16.686  19.007
28384W        W32345   5.121  17.778  21.362
28385W        W32346   3.770  15.339  21.325
28386W        W32347   4.532  14.619  21.127
28387W        W32348   6.226  15.007  20.014
28388W        W32349   5.875  15.878  18.584
28389W        W32350   6.445  15.312  21.675
28390W        W32351   3.811  15.104  20.800
28391W        W32352   3.910  17.723  21.821
28392W        W32353   5.432  17.113  18.553
28393W        W32354   3.864  15.896  20.246
28394W        W32355   4.757  15.787  21.483
28395W        W32356   7.216  15.646  19.982
28396W        W32357   6.980  16.689  20.841
28397W        W32358   5.288  16.022  19.868
28398W        W32359   5.834  17.361  20.237
28399W        W32360   4.334  16.795  20.469
28400W        W32361   3.693  16.323  20.040
28401W        W32362   4.729  16.295  21.232
28402W        W32363   7.000  16.078  21.486
28403W        W32364   4.616  17.522  19.931
28404W        W32365   5.737  17.211  21.065
28405W        W32366   4.957  15.851  20.290
28406W        W32367   5.249  16.635  19.933
28407W        W32368   6.246  17.408  21.781
28408W        W32369   5.325  16.728  21.791
28409W        W32370   5.306  16.444  21.269
28410W        W32371   3.715  15.835  21.791
28411W        W32372   6.547  17.370  21.390
28412W        W32373   4.128  14.952  19.388
28413W        W32374   4.655  17.210  20.387
28414W        W32375   7.118  16.993  19.677
28415W        W32376   6.531  15.393  20.244
28416W        W32377   6.816  15.346  18.339
28417W        W32378   7.281  16.147  20.645
28418W        W32379   5.248  17.854  20.398
28419W        W32380   7.022  17.320  18.836
28420W        W32381   4.151  18.106  18.590
28421W        W32382   4.544  18.152  19.266
28422W        W32383   4.341  14.906  20.692
28423W        W32384   6.964  15.924  20.967
28424W        W32385   6.369  16.346  19.426
28425W        W32386   6.335  16.034  18.453
28426W        W32387   5.543  17.178  20.593
28427W        W32388   5.349  15.508  19.792
28428W        W32389   5.949  17.595  20.786
28429W        W32390   6.820  16.386  19.208
28430W        W32391   5.722  15.044  19.224
28431W        W32392   4.379  17.738  18.907
28432W        W32393   3.750  15.237  19.506
28433W        W32394   6.536  15.844  19.980
28434W        W32395   3.994  17.461  19.895
28435W        W32396   5.335  17.811  18.765
28436W        W32397   6.727  15.837  18.229
28437W        W32398   3.750  17.595  20.393
28438W        W32399   4.541  17.167  20.873
28439W        W32400   4.914  16.527  19.492
28440W        W32401   4.936  14.932  20.585
28441W        W32402   7.165  14.694  19.882
28442W        W32403   4.384  16.566  18.350
28443W        W32404   4.039  15.599  18.529
28444W        W32405   4.101  17.555  19.323
28445W        W32406   5.232  17.038  19.571
28446W        W32407   6.564  17.897  21.285
28447W        W32408   5.490  15.539  18.969
28448W        W32409   6.873  17.937  19.741
28449W        W32410   6.550  15.790  21.339
28450W        W32411   7.263  17.446  19.473
28451W        W32412   5.890  16.738  20.957
28452W        W32413   3.656  16.289  19.163
28453W        W32414   4.767  16.704  20.736
28454W        W32415   5.971  15.968  19.114
28455W        W32416   5.848  16.458  19.218
28456W        W32417   4.191  15.878  20.692
28457W        W32418   4.176  15.754  21.614
28458W        W32419   4.066  14.671  19.773
28459W        W32420   5.834  15.018  20.334
28460W        W32421   5.482  15.203  21.497
28461W        W32422   5.837  15.352  18.675
28462W        W32423   7.020  17.745  21.429
28463W        W32424   5.987  14.826  21.468
28464W        W32425   7.006  17.127  21.590
28465W        W32426   6.436  15.294  21.186
28466W        W32427   6.236  15.232  19.456
28467W        W32428   6.629  16.366  21.860
28468W        W32429   4.369  17.942  19.846
28469W        W32430   5.027  15.659  18.832
28470W        W32431   4.596  14.943  21.496
28471W        W32432   6.648  15.427  19.177
28472W        W32433   7.015  15.909  19.122
28473W        W32434   4.758  18.126  21.593
28474W        W32435   4.684  14.662  18.828
28475W        W32436   7.005  15.196  19.863
28476W        W32437   7.155  17.445  18.308
28477W        W32438   4.062  16.648  20.010
28478W        W32439   5.979  15.235  18.240
28479W        W32440   7.113  17.567  19.960
28480W        W32441   7.152  14.761  20.710
28481W        W32442   5.597  15.973  21.264
28482W        W32443   5.690  17.312  18.967
28483W        W32444   6.090  16.606  21.707
28484W        W32445   5.764  14.583  20.016
28485W        W32446   4.376  15.486  20.079
28486W        W32447   3.930  16.686  20.853
28487W        W32448   5.789  17.879  19.559
28488W        W32449   6.983  15.476  20.431
28489W        W32450   5.620  17.823  21.198
28490W        W32451   6.963  16.882  18.403
28491W        W32452   5.398  16.365  19.464
28492W        W32453   7.250  14.876  21.205
28493W        W32454   5.399  16.711  20.799
28494W        W32455   5.616  15.597  20.244
28495W        W32456   6.468  15.895  19.082
28496W        W32457   6.755  15.628  18.724
28497W        W32458   6.564  17.668  19.113
28498W        W32459   6.398  17.271  19.909
28499W        W32460   6.294  16.350  18.887
28500W        W32461   5.727  16.560  19.873
28501W        W32462   6.608  16.348  19.940
28502W        W32463   3.983  15.363  20.364
28503W        W32464   6.761  16.415  21.191
28504W        W32465   7.112  18.033  20.337
28505W        W32466   5.042  17.477  19.739
28506W        W32467   6.049  18.010  21.063
28507W        W32468   6.043  15.340  20.827
28508W        W32469   5.250  18.048  20.888
28509W        W32470   6.947  15.002  19.354
28510W        W32471   6.738  16.321  20.655
28511W        W32472   3.721  15.642  20.693
28512W        W32473   6.581  15.437  19.711
28513W        W32474   6.992  15.588  21.488
28514W        W32475   5.877  17.287  19.706
28515W        W32476   5.133  17.878  19.319
28516W        W32477   4.248  15.058  18.577
28517W        W32478   5.352  14.712  20.387
28518W        W32479   4.380  17.832  18.235
28519W        W32480   4.754  16.298  18.986
28520W        W32481   5.408  16.927  21.299
28521W        W32482   5.238  15.285  19.289
28522W        W32483   6.594  14.882  19.717
28523W        W32484   6.314  18.164  20.045
28524W        W32485   5.726  17.812  20.385
28525W        W32486   5.122  16.849  20.346
28526W        W32487   6.892  17.572  20.472
28527W        W32488   4.586  15.075  19.241
28528W        W32489   5.108  17.372  20.201
28529W        W32490   4.591  15.303  18.266
28530W        W32491   5.392  15.912  20.660
28531W        W32492   6.240  14.778  20.530
28532W        W32493   3.660  16.621  20.415
28533W        W32494   5.364  16.439  18.573
28534W        W32495   4.632  14.754  18.343
28535W        W32496   5.370  15.835  19.394
28536W        W32497   6.340  14.811  21.093
28537W        W32498   4.928  16.823  21.202
28538W        W32499   5.732  16.605  21.419
28539W        W32500   6.349  16.635  21.312
28540W        W32501   5.633  14.775  21.817
28541W        W32502   4.855  15.391  20.210
28542W        W32503   4.281  15.347  19.608
28543W        W32504   4.067  18.059  19.284
28544W        W32505   5.399  17.389  21.409
28545W        W32506   4.434  16.874  18.768
28546W        W32507   6.114  16.259  19.989
28547W        W32508   6.394  16.058  20.388
28548W        W32509   5.599  16.732  20.322
28549W        W32510   6.069  17.106  18.454
28550W        W32511   5.741  15.127  19.782
28551W        W32512   7.220  15.405  19.050
28552W        W32513   3.714  17.994  21.081
28553W        W32514   4.131  17.220  20.613
28554W        W32515   3.698  18.066  18.845
28555W        W32516   5.597  15.336  20.651
28556W        W32517   4.960  17.359  18.500
28557W        W32518   6.865  17.741  18.686
28558W        W32519   5.840  16.394  18.700
28559W        W32520   4.683  15.585  19.217
28560W        W32521   5.515  15.495  18.269
28561W        W32522   6.099  17.060  21.447
28562W        W32523   6.452  14.966  19.064
28563W        W32524   3.782  14.814  18.512
28564W        W32525   5.068  17.133  20.802
28565W        W32526   4.867  17.049  19.894
28566W        W32527   4.609  17.001  18.292
28567W        W32528   3.850  17.242  19.060
28568W        W32529   4.354  16.312  21.502
28569W        W32530   5.058  14.872  21.688
28570W        W32531   5.767  15.014  21.044
28571W        W32532   4.962  14.782  19.325
28572W        W32533   6.021  14.859  18.830
28573W        W32534   3.966  14.791  20.407
28574W        W32535   4.014  15.754  19.777
28575W        W32536   6.703  14.862  20.183
28576W        W32537   4.125  15.360  18.997
28577W        W32538   6.696  15.048  20.613
28578W        W32539   7.092  16.251  18.298
28579W        W32540   4.384  15.009  20.117
28580W        W32541   5.498  15.581  21.057
28581W        W32542   3.646  15.271  18.535
28582W        W32543   4.432  16.660  21.096
28583W        W32544   5.790  16.058  20.275
28584W        W32545   5.657  18.137  18.571
28585W        W32546   3.803  16.644  18.268
28586W        W32547   4.538  17.055  21.394
28587W        W32548   4.059  16.222  21.025
28588W        W32549   5.050  16.327  20.819
28589W        W32550   6.818  14.686  21.081
28590W        W32551   7.216  16.296  21.072
28591W        W32552   7.204  16.496  18.758
28592W        W32553   6.067  16.828  18.857
28593W        W32554   6.541  18.128  18.552
28594W        W32555   5.718  16.118  21.694
28595W        W32556   4.048  17.085  21.734
28596W        W32557   7.254  15.007  21.686
28597W        W32558   6.972  15.935  20.307
28598W        W32559   5.280  18.065  21.784
28599W        W32560   6.674  17.293  18.454
28600W        W32561   4.443  15.386  21.340
28601W        W32562   4.877  17.380  21.202
28602W        W32563   7.003  15.371  21.000
28603W        W32564   6.214  18.030  18.968
28604W        W32565   6.453  16.649  20.335
28605W        W32566   4.703  15.065  21.002
28606W        W32567   5.172  16.134  21.759
28607W        W32568   4.675  17.313  18.953
28608W        W32569   6.430  16.811  19.217
28609W        W32570   4.198  15.437  20.941
28610W        W32571   5.527  17.499  19.405
28611W        W32572   7.277  16.059  19.586
28612W        W32573   5.499  14.692  21.305
28613W        W32574   6.279  17.397  20.384
28614W        W32575   6.582  17.741  20.092
28615W        W32576   5.801  17.543  18.520
28616W        W32577   3.811  17.435  21.362
28617W        W32578   4.554  15.427  20.600
28618W        W32579   4.524  14.775  19.710
28619W        W32580   6.145  15.617  20.402
28620W        W32581   4.943  16.788  18.602
28621W        W32582   6.941  16.730  20.101
28622W        W32583   4.268  17.488  21.524
28623W        W32584   6.655  18.170  19.321
28624W        W32585   4.754  15.190  19.766
28625W        W32586   4.523  16.683  19.856
28626W        W32587   4.836  18.094  20.606
28627W        W32588   6.903  18.190  21.638
28628W        W32589   6.062  16.378  20.571
28629W        W32590   3.911  16.176  18.486
28630W        W32591   7.045  17.834  19.183
28631W        W32592   6.882  15.158  18.802
28632W        W32593   5.021  14.677  21.205
28633W        W32594   6.727  17.479  19.663
28634W        W32595   6.756  16.035  19.568
28635W        W32596   4.873  15.708  19.784
28636W        W32597   5.118  15.970  21.108
28637W        W32598   6.229  17.123  20.971
28638W        W32599   4.879  15.577  21.083
28639W        W32600   4.858  18.043  19.699
28640W        W32601   4.175  18.002  21.333
28641W        W32602   4.287  17.363  18.463
28642W        W32603   6.804  17.121  19.273
28643W        W32604   4.408  15.913  21.159
28644W        W32605   7.181  15.843  18.640
28645W        W32606   4.926  16.900  19.111
28646W        W32607   6.025  16.282  21.192
28647W        W32608   5.916  15.910  20.736
28648W        W32609   4.476  16.282  20.765
28649W        W32610   6.686  18.170  20.594
28650W        W32611   6.477  14.804  21.588
28651W        W32612   4.141  14.954  21.175
28652W        W32613   4.480  15.977  20.228
28653W        W32614   4.849  15.791  18.350
28654W        W32615   3.652  17.550  20.895
28655W        W32616   5.237  16.259  20.338
28656W        W32617   5.060  15.284  18.443
28657W        W32618   4.195  16.100  19.224
28658W        W32619   3.966  17.952  20.661
28659W        W32620   6.761  16.178  18.769
28660W        W32621   6.856  15.094  21.455
28661W        W32622   6.292  17.303  19.418
28662W        W32623   3.890  16.227  21.595
28663W        W32624   6.856  14.691  18.891
28664W        W32625   6.376  17.166  18.902
28665W        W32626   5.278  16.224  18.987
28666W        W32627   6.465  15.028  18.510
28667W        W32628   6.530  15.635  20.696
28668W        W32629   4.239  16.228  19.903
28669W        W32630   4.533  17.167  19.552
28670W        W32631   6.296  15.787  19.517
28671W        W32632   5.319  15.166  20.213
28672W        W32633   7.281  17.077  20.724
28673W        W32634   7.199  15.064  20.285
28674W        W32635   3.738  17.894  19.661
28675W        W32636   4.247  17.081  19.197
28676W        W32637   4.162  14.698  21.750
28677W        W32638   5.281  17.551  21.852
28678W        W32639   7.036  16.519  19.642
28679W        W32640   6.390  16.696  18.522
28680W        W32641   5.685  18.217  20.734
28681W        W32642   6.542  16.939  21.771
28682W        W32643   5.357  14.649  19.051
28683W        W32644   6.070  15.518  19.910
28684W        W32645   3.756  17.105  20.242
28685W        W32646   5.009  15.067  18.883
28686W        W32647   4.813  16.551  21.732
28687W        W32648   5.807  15.532  19.446
28688W        W32649   6.012  16.942  20.568
28689W        W32650   4.166  17.547  21.003
28690W        W32651   4.757  17.530  21.726
28691W        W32652   4.608  15.327  18.740
28692W        W32653   6.125  15.469  19.065
28693W        W32654   6.083  17.577  21.302
28694W        W32655   4.768  16.169  19.901
28695W        W32656   4.423  17.867  20.766
28696W        W32657   7.168  17.984  18.367
28697W        W32658   4.031  16.656  21.363
28698W        W32659   6.026  16.918  20.051
28699W        W32660   4.462  16.567  19.293
28700W        W32661   4.833  17.574  20.688
28701W        W32662   5.211  14.993  19.729
28702W        W32663   3.822  16.977  18.659
28703W        W32664   5.341  15.928  18.529
28704W        W32665   3.987  16.477  19.548
28705W        W32666   5.277  15.119  21.012
28706W        W32667   6.949  14.828  18.439
28707W        W32668   7.042  16.574  21.538
28708W        W32669   5.696  17.831  21.690
28709W        W32670   7.254  16.925  21.212
28710W        W32671   6.662  17.723  21.823
28711W        W32672   4.401  18.179  20.301
28712W        W32673   7.260  16.801  19.175
28713W        W32674   5.790  16.068  19.688
28714W        W32675   5.557  14.680  19.578
28715W        W32676   4.616  17.664  19.415
28716W        W32677   5.115  15.405  20.640
28717W        W32678   4.815  14.774  20.109
28718W        W32679   3.878  17.596  18.657
28719W        W32680   5.694  16.960  19.375
28720W        W32681   4.569  17.755  21.254
28721W        W32682   4.046  16.578  18.950
28722W        W32683   3.931  15.121  19.949
28723W        W32684   5.479  17.086  20.006
28724W        W32685   3.731  14.940  19.026
28725W        W32686   6.395  16.146  20.953
28726W        W32687   6.272  15.532  18.525
28727W        W32688   6.789  17.204  20.173
28728W        W32689   5.450  17.688  20.004
28729W        W32690   4.862  17.792  18.915
28730W        W32691   6.144  14.695  18.345
28731W        W32692   3.944  17.955  20.086
28732W        W32693   6.141  15.713  21.721
28733W        W32694   4.124  15.243  21.720
28734W        W32695   3.855  15.843  19.053
28735W        W32696   4.546  15.832  18.778
28736W        W32697   6.309  16.159  21.595
28737W        W32698   4.652  16.440  20.304
28738W        W32699   6.126  14.726  19.424
28739W        W32700   5.257  18.157  19.927
28740W        W32701   6.471  17.619  20.864
28741W        W32702   6.055  17.768  19.975
28742W        W32703   6.074  16.748  19.569
28743W        W32704   7.217  14.601  19.362
28744W        W32705   4.905  16.236  18.525
28745W        W32706   7.071  15.573  19.515
28746W        W32707   5.763  16.743  18.392
28747W        W32708   6.699  16.943  21.140
28748W        W32709   6.353  17.644  18.607
28749W        W32710   4.968  15.319  21.513
28750W        W32711   4.788  15.903  20.754
28751W        W32712   6.880  17.398  21.031
28752W        W32713   5.980  15.348  21.408
28753W        W32714   3.824  15.819  21.185
28754W        W32715   5.584  16.296  20.911
28755W        W32716   3.941  17.054  19.568
28756W        W32717   4.088  16.351  20.458
28757W        W32718   6.405  16.637  20.808
28758W        W32719   6.177  18.017  21.619
28759W        W32720   6.073  15.756  21.172
28760W        W32721   6.350  17.810  19.577
28761W        W32722   5.352  17.530  20.900
28762W        W32723   4.837  17.885  20.169
28763W        W32724   6.642  17.056  20.588
28764W        W32725   5.692  17.128  21.725
28765W        W32726   4.297  17.081  20.064
28766W        W32727   6.643  16.840  19.709
28767W        W32728   6.284  17.906  20.460
28768W        W32729   4.262  17.635  20.330
28769W        W32730   5.283  15.687  21.540
28770W        W32731   5.734  17.853  19.051
28771W        W32732   5.042  17.108  21.689
28772W        W32733   5.168  17.346  19.066
28773W        W32734   4.389  16.086  18.325
28774W        W32735   6.809  16.795  22.518
28775W        W32736   4.857  17.871  22.071
28776W        W32737   4.940  16.023  23.054
28777W        W32738   4.455  15.871  23.218
28778W        W32739   5.446  16.686  22.652
28779W        W32740   5.875  15.878  22.229
28780W        W32741   5.432  17.113  22.198
28781W        W32742   4.128  14.952  23.033
28782W        W32743   6.816  15.346  21.984
28783W        W32744   7.022  17.320  22.481
28784W        W32745   4.151  18.106  22.235
28785W        W32746   4.544  18.152  22.911
28786W        W32747   6.369  16.346  23.071
28787W        W32748   6.335  16.034  22.098
28788W        W32749   6.820  16.386  22.853
28789W        W32750   5.722  15.044  22.869
28790W        W32751   4.379  17.738  22.552
28791W        W32752   5.335  17.811  22.410
28792W        W32753   6.727  15.837  21.874
28793W        W32754   4.914  16.527  23.137
28794W        W32755   4.384  16.566  21.995
28795W        W32756   4.039  15.599  22.174
28796W        W32757   4.101  17.555  22.968
28797W        W32758   5.232  17.038  23.216
28798W        W32759   5.490  15.539  22.614
28799W        W32760   3.656  16.289  22.808
28800W        W32761   5.971  15.968  22.759
28801W        W32762   5.848  16.458  22.863
28802W        W32763   5.837  15.352  22.320
28803W        W32764   5.027  15.659  22.477
28804W        W32765   6.648  15.427  22.822
28805W        W32766   7.015  15.909  22.767
28806W        W32767   4.684  14.662  22.473
28807W        W32768   7.155  17.445  21.953
28808W        W32769   5.979  15.235  21.885
28809W        W32770   5.690  17.312  22.612
28810W        W32771   5.789  17.879  23.204
28811W        W32772   6.963  16.882  22.048
28812W        W32773   5.398  16.365  23.109
28813W        W32774   6.468  15.895  22.727
28814W        W32775   6.755  15.628  22.369
28815W        W32776   6.564  17.668  22.758
28816W        W32777   6.294  16.350  22.532
28817W        W32778   6.947  15.002  22.999
28818W        W32779   5.133  17.878  22.964
28819W        W32780   4.248  15.058  22.222
28820W        W32781   4.380  17.832  21.880
28821W        W32782   4.754  16.298  22.631
28822W        W32783   5.238  15.285  22.934
28823W        W32784   4.586  15.075  22.886
28824W        W32785   4.591  15.303  21.911
28825W        W32786   5.364  16.439  22.218
28826W        W32787   4.632  14.754  21.988
28827W        W32788   5.370  15.835  23.039
28828W        W32789   4.281  15.347  23.253
28829W        W32790   4.067  18.059  22.929
28830W        W32791   4.434  16.874  22.413
28831W        W32792   6.069  17.106  22.099
28832W        W32793   7.220  15.405  22.695
28833W        W32794   3.698  18.066  22.490
28834W        W32795   4.960  17.359  22.145
28835W        W32796   6.865  17.741  22.331
28836W        W32797   5.840  16.394  22.345
28837W        W32798   4.683  15.585  22.862
28838W        W32799   5.515  15.495  21.914
28839W        W32800   3.782  14.814  22.157
28840W        W32801   4.609  17.001  21.937
28841W        W32802   3.850  17.242  22.705
28842W        W32803   4.962  14.782  22.970
28843W        W32804   6.021  14.859  22.475
28844W        W32805   4.125  15.360  22.642
28845W        W32806   7.092  16.251  21.943
28846W        W32807   3.646  15.271  22.180
28847W        W32808   5.657  18.137  22.216
28848W        W32809   3.803  16.644  21.913
28849W        W32810   7.204  16.496  22.403
28850W        W32811   6.067  16.828  22.502
28851W        W32812   6.541  18.128  22.197
28852W        W32813   5.135  14.694  22.156
28853W        W32814   6.674  17.293  22.099
28854W        W32815   6.214  18.030  22.613
28855W        W32816   4.675  17.313  22.598
28856W        W32817   6.430  16.811  22.862
28857W        W32818   5.527  17.499  23.050
28858W        W32819   7.277  16.059  23.231
28859W        W32820   5.801  17.543  22.165
28860W        W32821   4.943  16.788  22.247
28861W        W32822   6.655  18.170  22.966
28862W        W32823   3.911  16.176  22.131
28863W        W32824   7.045  17.834  22.828
28864W        W32825   6.882  15.158  22.447
28865W        W32826   6.756  16.035  23.213
28866W        W32827   4.287  17.363  22.108
28867W        W32828   6.804  17.121  22.918
28868W        W32829   7.181  15.843  22.285
28869W        W32830   4.926  16.900  22.756
28870W        W32831   4.849  15.791  21.995
28871W        W32832   5.060  15.284  22.088
28872W        W32833   4.195  16.100  22.869
28873W        W32834   6.761  16.178  22.414
28874W        W32835   6.292  17.303  23.063
28875W        W32836   6.856  14.691  22.536
28876W        W32837   6.376  17.166  22.547
28877W        W32838   5.278  16.224  22.632
28878W        W32839   4.533  17.167  23.197
28879W        W32840   6.296  15.787  23.162
28880W        W32841   3.738  17.894  23.306
28881W        W32842   4.247  17.081  22.842
28882W        W32843   7.036  16.519  23.287
28883W        W32844   6.390  16.696  22.167
28884W        W32845   5.357  14.649  22.696
28885W        W32846   5.009  15.067  22.528
28886W        W32847   5.807  15.532  23.091
28887W        W32848   4.608  15.327  22.385
28888W        W32849   6.125  15.469  22.710
28889W        W32850   7.168  17.984  22.012
28890W        W32851   3.822  16.977  22.304
28891W        W32852   5.341  15.928  22.174
28892W        W32853   3.987  16.477  23.193
28893W        W32854   6.949  14.828  22.084
28894W        W32855   7.260  16.801  22.820
28895W        W32856   5.557  14.680  23.223
28896W        W32857   4.616  17.664  23.060
28897W        W32858   3.878  17.596  22.302
28898W        W32859   5.694  16.960  23.020
28899W        W32860   4.046  16.578  22.595
28900W        W32861   3.731  14.940  22.671
28901W        W32862   6.272  15.532  22.170
28902W        W32863   4.862  17.792  22.560
28903W        W32864   6.144  14.695  21.990
28904W        W32865   3.855  15.843  22.698
28905W        W32866   4.546  15.832  22.423
28906W        W32867   6.074  16.748  23.214
28907W        W32868   5.536  14.973  22.285
28908W        W32869   7.217  14.601  23.007
28909W        W32870   4.905  16.236  22.170
28910W        W32871   7.071  15.573  23.160
28911W        W32872   5.763  16.743  22.037
28912W        W32873   6.353  17.644  22.252
28913W        W32874   3.941  17.054  23.213
28914W        W32875   6.350  17.810  23.222
28915W        W32876   5.734  17.853  22.696
28916W        W32877   5.168  17.346  22.711
28917W        W32878   4.389  16.086  21.970
28918W        W32879   3.728  21.816   3.359
28919W        W32880   4.104  20.709   2.882
28920W        W32881   6.809  20.439   0.652
28921W        W32882   4.857  21.515   0.205
28922W        W32883   4.940  19.667   1.188
28923W        W32884   4.455  19.515   1.352
28924W        W32885   5.446  20.330   0.786
28925W        W32886   5.121  21.422   3.141
28926W        W32887   3.770  18.983   3.104
28927W        W32888   4.532  18.263   2.906
28928W        W32889   6.226  18.651   1.793
28929W        W32890   5.875  19.522   0.363
28930W        W32891   6.445  18.956   3.454
28931W        W32892   3.811  18.748   2.579
28932W        W32893   3.910  21.367   3.600
28933W        W32894   5.432  20.757   0.332
28934W        W32895   3.864  19.540   2.025
28935W        W32896   4.757  19.431   3.262
28936W        W32897   7.216  19.290   1.761
28937W        W32898   6.980  20.333   2.620
28938W        W32899   5.288  19.666   1.647
28939W        W32900   5.834  21.005   2.016
28940W        W32901   4.334  20.439   2.248
28941W        W32902   3.693  19.967   1.819
28942W        W32903   4.729  19.939   3.011
28943W        W32904   7.000  19.722   3.265
28944W        W32905   4.616  21.166   1.710
28945W        W32906   5.737  20.855   2.844
28946W        W32907   4.957  19.495   2.069
28947W        W32908   5.249  20.279   1.712
28948W        W32909   6.246  21.052   3.560
28949W        W32910   5.325  20.372   3.570
28950W        W32911   5.306  20.088   3.048
28951W        W32912   3.715  19.479   3.570
28952W        W32913   6.547  21.014   3.169
28953W        W32914   4.128  18.596   1.167
28954W        W32915   4.655  20.854   2.166
28955W        W32916   7.118  20.637   1.456
28956W        W32917   6.531  19.037   2.023
28957W        W32918   6.816  18.990   0.118
28958W        W32919   7.281  19.791   2.424
28959W        W32920   5.248  21.498   2.177
28960W        W32921   7.022  20.964   0.615
28961W        W32922   4.151  21.750   0.369
28962W        W32923   4.544  21.796   1.045
28963W        W32924   4.341  18.550   2.471
28964W        W32925   6.964  19.568   2.746
28965W        W32926   6.369  19.990   1.205
28966W        W32927   6.335  19.678   0.232
28967W        W32928   5.543  20.822   2.372
28968W        W32929   5.349  19.152   1.571
28969W        W32930   5.949  21.239   2.565
28970W        W32931   6.820  20.030   0.987
28971W        W32932   5.722  18.688   1.003
28972W        W32933   4.379  21.382   0.686
28973W        W32934   3.750  18.881   1.285
28974W        W32935   6.536  19.488   1.759
28975W        W32936   3.994  21.105   1.674
28976W        W32937   5.335  21.455   0.544
28977W        W32938   6.727  19.481   0.008
28978W        W32939   3.750  21.239   2.172
28979W        W32940   4.541  20.811   2.652
28980W        W32941   4.914  20.171   1.271
28981W        W32942   4.936  18.576   2.364
28982W        W32943   7.165  18.338   1.661
28983W        W32944   4.384  20.210   0.129
28984W        W32945   4.039  19.243   0.308
28985W        W32946   4.101  21.199   1.102
28986W        W32947   5.232  20.682   1.350
28987W        W32948   6.564  21.541   3.064
28988W        W32949   5.490  19.183   0.748
28989W        W32950   6.873  21.581   1.520
28990W        W32951   6.550  19.434   3.118
28991W        W32952   7.263  21.090   1.252
28992W        W32953   5.890  20.382   2.736
28993W        W32954   3.656  19.933   0.942
28994W        W32955   4.767  20.348   2.515
28995W        W32956   5.971  19.612   0.893
28996W        W32957   5.848  20.102   0.997
28997W        W32958   4.191  19.522   2.471
28998W        W32959   4.176  19.398   3.393
28999W        W32960   4.066  18.315   1.552
29000W        W32961   5.834  18.662   2.113
29001W        W32962   5.482  18.847   3.276
29002W        W32963   5.837  18.996   0.454
29003W        W32964   5.987  18.470   3.247
29004W        W32965   7.006  20.771   3.369
29005W        W32966   6.436  18.938   2.965
29006W        W32967   6.236  18.876   1.235
29007W        W32968   6.629  20.010   3.639
29008W        W32969   4.369  21.586   1.625
29009W        W32970   5.027  19.303   0.611
29010W        W32971   4.596  18.587   3.275
29011W        W32972   6.648  19.071   0.956
29012W        W32973   7.015  19.553   0.901
29013W        W32974   4.758  21.770   3.372
29014W        W32975   4.684  18.306   0.607
29015W        W32976   7.005  18.840   1.642
29016W        W32977   7.155  21.089   0.087
29017W        W32978   4.062  20.292   1.789
29018W        W32979   5.979  18.879   0.019
29019W        W32980   7.113  21.211   1.739
29020W        W32981   7.152  18.405   2.489
29021W        W32982   5.597  19.617   3.043
29022W        W32983   5.690  20.956   0.746
29023W        W32984   6.090  20.250   3.486
29024W        W32985   5.764  18.227   1.795
29025W        W32986   4.376  19.130   1.858
29026W        W32987   3.930  20.330   2.632
29027W        W32988   5.789  21.523   1.338
29028W        W32989   6.983  19.120   2.210
29029W        W32990   5.620  21.467   2.977
29030W        W32991   6.963  20.526   0.182
29031W        W32992   5.398  20.009   1.243
29032W        W32993   7.250  18.520   2.984
29033W        W32994   5.399  20.355   2.578
29034W        W32995   5.616  19.241   2.023
29035W        W32996   6.468  19.539   0.861
29036W        W32997   6.755  19.272   0.503
29037W        W32998   6.564  21.312   0.892
29038W        W32999   6.398  20.915   1.688
29039W        W33000   6.294  19.994   0.666
29040W        W33001   5.727  20.204   1.652
29041W        W33002   6.608  19.992   1.719
29042W        W33003   3.983  19.007   2.143
29043W        W33004   6.761  20.059   2.970
29044W        W33005   7.112  21.677   2.116
29045W        W33006   5.042  21.121   1.518
29046W        W33007   6.049  21.654   2.842
29047W        W33008   6.043  18.984   2.606
29048W        W33009   5.250  21.692   2.667
29049W        W33010   6.947  18.646   1.133
29050W        W33011   6.738  19.965   2.434
29051W        W33012   3.721  19.286   2.472
29052W        W33013   6.581  19.081   1.490
29053W        W33014   6.992  19.232   3.267
29054W        W33015   5.877  20.931   1.485
29055W        W33016   5.133  21.522   1.098
29056W        W33017   4.248  18.702   0.356
29057W        W33018   5.352  18.356   2.166
29058W        W33019   4.380  21.476   0.014
29059W        W33020   4.754  19.942   0.765
29060W        W33021   5.408  20.571   3.078
29061W        W33022   5.238  18.929   1.068
29062W        W33023   6.594  18.526   1.496
29063W        W33024   6.314  21.808   1.824
29064W        W33025   5.726  21.456   2.164
29065W        W33026   5.122  20.493   2.125
29066W        W33027   4.586  18.719   1.020
29067W        W33028   5.108  21.016   1.980
29068W        W33029   4.591  18.947   0.045
29069W        W33030   5.392  19.556   2.439
29070W        W33031   6.240  18.422   2.309
29071W        W33032   3.660  20.265   2.194
29072W        W33033   5.364  20.083   0.352
29073W        W33034   4.632  18.398   0.122
29074W        W33035   5.370  19.479   1.173
29075W        W33036   6.340  18.455   2.872
29076W        W33037   4.928  20.467   2.981
29077W        W33038   5.732  20.249   3.198
29078W        W33039   6.349  20.279   3.091
29079W        W33040   5.633  18.419   3.596
29080W        W33041   4.855  19.035   1.989
29081W        W33042   4.281  18.991   1.387
29082W        W33043   4.067  21.703   1.063
29083W        W33044   5.399  21.033   3.188
29084W        W33045   4.434  20.518   0.547
29085W        W33046   6.114  19.903   1.768
29086W        W33047   6.394  19.702   2.167
29087W        W33048   5.599  20.376   2.101
29088W        W33049   6.069  20.750   0.233
29089W        W33050   5.741  18.771   1.561
29090W        W33051   7.220  19.049   0.829
29091W        W33052   3.714  21.638   2.860
29092W        W33053   4.131  20.864   2.392
29093W        W33054   3.698  21.710   0.624
29094W        W33055   5.597  18.980   2.430
29095W        W33056   4.960  21.003   0.279
29096W        W33057   6.865  21.385   0.465
29097W        W33058   5.840  20.038   0.479
29098W        W33059   4.683  19.229   0.996
29099W        W33060   5.515  19.139   0.048
29100W        W33061   6.099  20.704   3.226
29101W        W33062   6.452  18.610   0.843
29102W        W33063   3.782  18.458   0.291
29103W        W33064   5.068  20.777   2.581
29104W        W33065   4.867  20.693   1.673
29105W        W33066   4.609  20.645   0.071
29106W        W33067   3.850  20.886   0.839
29107W        W33068   4.354  19.956   3.281
29108W        W33069   5.058  18.516   3.467
29109W        W33070   5.767  18.658   2.823
29110W        W33071   4.962  18.426   1.104
29111W        W33072   6.021  18.503   0.609
29112W        W33073   3.966  18.435   2.186
29113W        W33074   4.014  19.398   1.556
29114W        W33075   6.703  18.506   1.962
29115W        W33076   4.125  19.004   0.776
29116W        W33077   6.696  18.692   2.392
29117W        W33078   7.092  19.895   0.077
29118W        W33079   4.384  18.653   1.896
29119W        W33080   5.498  19.225   2.836
29120W        W33081   3.646  18.915   0.314
29121W        W33082   4.432  20.304   2.875
29122W        W33083   5.790  19.702   2.054
29123W        W33084   5.657  21.781   0.350
29124W        W33085   3.803  20.288   0.047
29125W        W33086   4.538  20.699   3.173
29126W        W33087   4.059  19.866   2.804
29127W        W33088   5.050  19.971   2.598
29128W        W33089   6.818  18.330   2.860
29129W        W33090   7.216  19.940   2.851
29130W        W33091   7.204  20.140   0.537
29131W        W33092   6.067  20.472   0.636
29132W        W33093   6.541  21.772   0.331
29133W        W33094   5.718  19.762   3.473
29134W        W33095   4.048  20.729   3.513
29135W        W33096   7.254  18.651   3.465
29136W        W33097   6.972  19.579   2.086
29137W        W33098   5.280  21.709   3.563
29138W        W33099   5.135  18.338   0.290
29139W        W33100   6.674  20.937   0.233
29140W        W33101   4.443  19.030   3.119
29141W        W33102   4.877  21.024   2.981
29142W        W33103   7.003  19.015   2.779
29143W        W33104   6.214  21.674   0.747
29144W        W33105   6.453  20.293   2.114
29145W        W33106   4.703  18.709   2.781
29146W        W33107   5.172  19.778   3.538
29147W        W33108   4.675  20.957   0.732
29148W        W33109   6.430  20.455   0.996
29149W        W33110   4.198  19.081   2.720
29150W        W33111   5.527  21.143   1.184
29151W        W33112   7.277  19.703   1.365
29152W        W33113   5.499  18.336   3.084
29153W        W33114   6.279  21.041   2.163
29154W        W33115   6.582  21.385   1.871
29155W        W33116   5.801  21.187   0.299
29156W        W33117   3.811  21.079   3.141
29157W        W33118   4.554  19.071   2.379
29158W        W33119   4.524  18.419   1.489
29159W        W33120   6.145  19.261   2.181
29160W        W33121   4.943  20.432   0.381
29161W        W33122   6.941  20.374   1.880
29162W        W33123   4.268  21.132   3.303
29163W        W33124   6.655  21.814   1.100
29164W        W33125   4.754  18.834   1.545
29165W        W33126   4.523  20.327   1.635
29166W        W33127   4.836  21.738   2.385
29167W        W33128   6.903  21.834   3.417
29168W        W33129   6.062  20.022   2.350
29169W        W33130   3.911  19.820   0.265
29170W        W33131   7.045  21.478   0.962
29171W        W33132   6.882  18.802   0.581
29172W        W33133   5.021  18.321   2.984
29173W        W33134   6.727  21.123   1.442
29174W        W33135   6.756  19.679   1.347
29175W        W33136   4.873  19.352   1.563
29176W        W33137   5.118  19.614   2.887
29177W        W33138   6.229  20.767   2.750
29178W        W33139   4.879  19.221   2.862
29179W        W33140   4.858  21.687   1.478
29180W        W33141   4.175  21.646   3.112
29181W        W33142   4.287  21.007   0.242
29182W        W33143   6.804  20.765   1.052
29183W        W33144   4.408  19.557   2.938
29184W        W33145   7.181  19.487   0.419
29185W        W33146   4.926  20.544   0.890
29186W        W33147   6.025  19.926   2.971
29187W        W33148   5.916  19.554   2.515
29188W        W33149   4.476  19.926   2.544
29189W        W33150   6.477  18.448   3.367
29190W        W33151   4.141  18.598   2.954
29191W        W33152   4.480  19.621   2.007
29192W        W33153   4.849  19.435   0.129
29193W        W33154   3.652  21.194   2.674
29194W        W33155   5.237  19.903   2.117
29195W        W33156   5.060  18.928   0.222
29196W        W33157   4.195  19.744   1.003
29197W        W33158   3.966  21.596   2.440
29198W        W33159   6.761  19.822   0.548
29199W        W33160   6.856  18.738   3.234
29200W        W33161   6.292  20.947   1.197
29201W        W33162   3.890  19.871   3.374
29202W        W33163   6.856  18.335   0.670
29203W        W33164   6.376  20.810   0.681
29204W        W33165   5.278  19.868   0.766
29205W        W33166   6.465  18.672   0.289
29206W        W33167   6.530  19.279   2.475
29207W        W33168   4.239  19.872   1.682
29208W        W33169   4.533  20.811   1.331
29209W        W33170   6.296  19.431   1.296
29210W        W33171   5.319  18.810   1.992
29211W        W33172   7.281  20.721   2.503
29212W        W33173   7.199  18.708   2.064
29213W        W33174   3.738  21.538   1.440
29214W        W33175   4.247  20.725   0.976
29215W        W33176   4.162  18.342   3.529
29216W        W33177   5.281  21.195   3.631
29217W        W33178   7.036  20.163   1.421
29218W        W33179   6.390  20.340   0.301
29219W        W33180   5.685  21.861   2.513
29220W        W33181   6.542  20.583   3.550
29221W        W33182   5.357  18.293   0.830
29222W        W33183   6.070  19.162   1.689
29223W        W33184   3.756  20.749   2.021
29224W        W33185   5.009  18.711   0.662
29225W        W33186   4.813  20.195   3.511
29226W        W33187   5.807  19.176   1.225
29227W        W33188   6.012  20.586   2.347
29228W        W33189   4.166  21.191   2.782
29229W        W33190   4.757  21.174   3.505
29230W        W33191   4.608  18.971   0.519
29231W        W33192   6.125  19.113   0.844
29232W        W33193   6.083  21.221   3.081
29233W        W33194   4.768  19.813   1.680
29234W        W33195   4.423  21.511   2.545
29235W        W33196   7.168  21.628   0.146
29236W        W33197   4.031  20.300   3.142
29237W        W33198   6.026  20.562   1.830
29238W        W33199   4.462  20.211   1.072
29239W        W33200   4.833  21.218   2.467
29240W        W33201   5.211  18.637   1.508
29241W        W33202   3.822  20.621   0.438
29242W        W33203   5.341  19.572   0.308
29243W        W33204   3.987  20.121   1.327
29244W        W33205   5.277  18.763   2.791
29245W        W33206   6.949  18.472   0.218
29246W        W33207   7.042  20.218   3.317
29247W        W33208   5.696  21.475   3.469
29248W        W33209   7.254  20.569   2.991
29249W        W33210   6.662  21.367   3.602
29250W        W33211   4.401  21.823   2.080
29251W        W33212   7.260  20.445   0.954
29252W        W33213   5.790  19.712   1.467
29253W        W33214   5.557  18.324   1.357
29254W        W33215   4.616  21.308   1.194
29255W        W33216   5.115  19.049   2.419
29256W        W33217   4.815  18.418   1.888
29257W        W33218   3.878  21.240   0.436
29258W        W33219   5.694  20.604   1.154
29259W        W33220   4.569  21.399   3.033
29260W        W33221   4.046  20.222   0.729
29261W        W33222   3.931  18.765   1.728
29262W        W33223   5.479  20.730   1.785
29263W        W33224   3.731  18.584   0.805
29264W        W33225   6.395  19.790   2.732
29265W        W33226   6.272  19.176   0.304
29266W        W33227   6.789  20.848   1.952
29267W        W33228   5.450  21.332   1.783
29268W        W33229   4.862  21.436   0.694
29269W        W33230   6.144  18.339   0.124
29270W        W33231   3.944  21.599   1.865
29271W        W33232   6.141  19.357   3.500
29272W        W33233   4.124  18.887   3.499
29273W        W33234   3.855  19.487   0.832
29274W        W33235   4.546  19.476   0.557
29275W        W33236   6.309  19.803   3.374
29276W        W33237   4.652  20.084   2.083
29277W        W33238   6.126  18.370   1.203
29278W        W33239   5.257  21.801   1.706
29279W        W33240   6.471  21.263   2.643
29280W        W33241   6.055  21.412   1.754
29281W        W33242   6.074  20.392   1.348
29282W        W33243   5.536  18.617   0.419
29283W        W33244   7.217  18.245   1.141
29284W        W33245   4.905  19.880   0.304
29285W        W33246   7.071  19.217   1.294
29286W        W33247   5.763  20.387   0.171
29287W        W33248   6.699  20.587   2.919
29288W        W33249   6.353  21.288   0.386
29289W        W33250   4.968  18.963   3.292
29290W        W33251   4.788  19.547   2.533
29291W        W33252   6.880  21.042   2.810
29292W        W33253   5.980  18.992   3.187
29293W        W33254   3.824  19.463   2.964
29294W        W33255   5.584  19.940   2.690
29295W        W33256   3.941  20.698   1.347
29296W        W33257   4.088  19.995   2.237
29297W        W33258   6.405  20.281   2.587
29298W        W33259   6.177  21.661   3.398
29299W        W33260   6.073  19.400   2.951
29300W        W33261   6.350  21.454   1.356
29301W        W33262   5.352  21.174   2.679
29302W        W33263   4.837  21.529   1.948
29303W        W33264   6.642  20.700   2.367
29304W        W33265   5.692  20.772   3.504
29305W        W33266   4.297  20.725   1.843
29306W        W33267   6.643  20.484   1.488
29307W        W33268   6.284  21.550   2.239
29308W        W33269   4.262  21.279   2.109
29309W        W33270   5.283  19.331   3.319
29310W        W33271   5.734  21.497   0.830
29311W        W33272   5.042  20.752   3.468
29312W        W33273   5.168  20.990   0.845
29313W        W33274   4.389  19.730   0.104
29314W        W33275   3.728  21.816   7.003
29315W        W33276   4.104  20.709   6.526
29316W        W33277   6.809  20.439   4.296
29317W        W33278   6.939  21.524   6.323
29318W        W33279   4.857  21.515   3.849
29319W        W33280   4.940  19.667   4.832
29320W        W33281   4.455  19.515   4.996
29321W        W33282   5.446  20.330   4.430
29322W        W33283   5.121  21.422   6.785
29323W        W33284   3.770  18.983   6.748
29324W        W33285   4.532  18.263   6.550
29325W        W33286   6.226  18.651   5.437
29326W        W33287   5.875  19.522   4.007
29327W        W33288   6.445  18.956   7.098
29328W        W33289   3.811  18.748   6.223
29329W        W33290   3.910  21.367   7.244
29330W        W33291   5.432  20.757   3.976
29331W        W33292   3.864  19.540   5.669
29332W        W33293   4.757  19.431   6.906
29333W        W33294   7.216  19.290   5.405
29334W        W33295   6.980  20.333   6.264
29335W        W33296   5.288  19.666   5.291
29336W        W33297   5.834  21.005   5.660
29337W        W33298   4.334  20.439   5.892
29338W        W33299   3.693  19.967   5.463
29339W        W33300   4.729  19.939   6.655
29340W        W33301   7.000  19.722   6.909
29341W        W33302   4.616  21.166   5.354
29342W        W33303   5.737  20.855   6.488
29343W        W33304   4.957  19.495   5.713
29344W        W33305   5.249  20.279   5.356
29345W        W33306   6.246  21.052   7.204
29346W        W33307   5.325  20.372   7.214
29347W        W33308   5.306  20.088   6.692
29348W        W33309   3.715  19.479   7.214
29349W        W33310   6.547  21.014   6.813
29350W        W33311   4.128  18.596   4.811
29351W        W33312   4.655  20.854   5.810
29352W        W33313   7.118  20.637   5.100
29353W        W33314   6.531  19.037   5.667
29354W        W33315   6.816  18.990   3.762
29355W        W33316   7.281  19.791   6.068
29356W        W33317   5.248  21.498   5.821
29357W        W33318   7.022  20.964   4.259
29358W        W33319   4.151  21.750   4.013
29359W        W33320   4.544  21.796   4.689
29360W        W33321   4.341  18.550   6.115
29361W        W33322   6.964  19.568   6.390
29362W        W33323   6.369  19.990   4.849
29363W        W33324   6.335  19.678   3.876
29364W        W33325   5.543  20.822   6.016
29365W        W33326   5.349  19.152   5.215
29366W        W33327   5.949  21.239   6.209
29367W        W33328   6.820  20.030   4.631
29368W        W33329   5.722  18.688   4.647
29369W        W33330   4.379  21.382   4.330
29370W        W33331   3.750  18.881   4.929
29371W        W33332   6.536  19.488   5.403
29372W        W33333   3.994  21.105   5.318
29373W        W33334   5.335  21.455   4.188
29374W        W33335   6.727  19.481   3.652
29375W        W33336   3.750  21.239   5.816
29376W        W33337   4.541  20.811   6.296
29377W        W33338   4.914  20.171   4.915
29378W        W33339   7.165  18.338   5.305
29379W        W33340   4.384  20.210   3.773
29380W        W33341   4.039  19.243   3.952
29381W        W33342   4.101  21.199   4.746
29382W        W33343   5.232  20.682   4.994
29383W        W33344   6.564  21.541   6.708
29384W        W33345   5.490  19.183   4.392
29385W        W33346   6.873  21.581   5.164
29386W        W33347   6.550  19.434   6.762
29387W        W33348   7.263  21.090   4.896
29388W        W33349   5.890  20.382   6.380
29389W        W33350   3.656  19.933   4.586
29390W        W33351   4.767  20.348   6.159
29391W        W33352   5.971  19.612   4.537
29392W        W33353   5.848  20.102   4.641
29393W        W33354   4.191  19.522   6.115
29394W        W33355   4.176  19.398   7.037
29395W        W33356   4.066  18.315   5.196
29396W        W33357   5.834  18.662   5.757
29397W        W33358   5.482  18.847   6.920
29398W        W33359   5.837  18.996   4.098
29399W        W33360   7.020  21.389   6.852
29400W        W33361   5.987  18.470   6.891
29401W        W33362   7.006  20.771   7.013
29402W        W33363   6.436  18.938   6.609
29403W        W33364   6.236  18.876   4.879
29404W        W33365   6.629  20.010   7.283
29405W        W33366   4.369  21.586   5.269
29406W        W33367   5.027  19.303   4.255
29407W        W33368   4.596  18.587   6.919
29408W        W33369   6.648  19.071   4.600
29409W        W33370   7.015  19.553   4.545
29410W        W33371   4.758  21.770   7.016
29411W        W33372   4.684  18.306   4.251
29412W        W33373   7.005  18.840   5.286
29413W        W33374   7.155  21.089   3.731
29414W        W33375   4.062  20.292   5.433
29415W        W33376   5.979  18.879   3.663
29416W        W33377   7.113  21.211   5.383
29417W        W33378   7.152  18.405   6.133
29418W        W33379   5.597  19.617   6.687
29419W        W33380   5.690  20.956   4.390
29420W        W33381   6.090  20.250   7.130
29421W        W33382   5.764  18.227   5.439
29422W        W33383   4.376  19.130   5.502
29423W        W33384   3.930  20.330   6.276
29424W        W33385   5.789  21.523   4.982
29425W        W33386   6.983  19.120   5.854
29426W        W33387   5.620  21.467   6.621
29427W        W33388   6.963  20.526   3.826
29428W        W33389   5.398  20.009   4.887
29429W        W33390   7.250  18.520   6.628
29430W        W33391   5.399  20.355   6.222
29431W        W33392   5.616  19.241   5.667
29432W        W33393   6.468  19.539   4.505
29433W        W33394   6.755  19.272   4.147
29434W        W33395   6.564  21.312   4.536
29435W        W33396   6.398  20.915   5.332
29436W        W33397   6.294  19.994   4.310
29437W        W33398   5.727  20.204   5.296
29438W        W33399   6.608  19.992   5.363
29439W        W33400   3.983  19.007   5.787
29440W        W33401   6.761  20.059   6.614
29441W        W33402   7.112  21.677   5.760
29442W        W33403   5.042  21.121   5.162
29443W        W33404   6.049  21.654   6.486
29444W        W33405   6.043  18.984   6.250
29445W        W33406   5.250  21.692   6.311
29446W        W33407   6.947  18.646   4.777
29447W        W33408   6.738  19.965   6.078
29448W        W33409   3.721  19.286   6.116
29449W        W33410   6.581  19.081   5.134
29450W        W33411   6.992  19.232   6.911
29451W        W33412   5.877  20.931   5.129
29452W        W33413   5.133  21.522   4.742
29453W        W33414   4.248  18.702   4.000
29454W        W33415   5.352  18.356   5.810
29455W        W33416   4.380  21.476   3.658
29456W        W33417   4.754  19.942   4.409
29457W        W33418   5.408  20.571   6.722
29458W        W33419   5.238  18.929   4.712
29459W        W33420   6.594  18.526   5.140
29460W        W33421   6.314  21.808   5.468
29461W        W33422   5.726  21.456   5.808
29462W        W33423   5.122  20.493   5.769
29463W        W33424   6.892  21.216   5.895
29464W        W33425   4.586  18.719   4.664
29465W        W33426   5.108  21.016   5.624
29466W        W33427   4.591  18.947   3.689
29467W        W33428   5.392  19.556   6.083
29468W        W33429   6.240  18.422   5.953
29469W        W33430   3.660  20.265   5.838
29470W        W33431   5.364  20.083   3.996
29471W        W33432   4.632  18.398   3.766
29472W        W33433   5.370  19.479   4.817
29473W        W33434   6.340  18.455   6.516
29474W        W33435   4.928  20.467   6.625
29475W        W33436   5.732  20.249   6.842
29476W        W33437   6.349  20.279   6.735
29477W        W33438   5.633  18.419   7.240
29478W        W33439   4.281  18.991   5.031
29479W        W33440   4.067  21.703   4.707
29480W        W33441   5.399  21.033   6.832
29481W        W33442   4.434  20.518   4.191
29482W        W33443   6.114  19.903   5.412
29483W        W33444   6.394  19.702   5.811
29484W        W33445   5.599  20.376   5.745
29485W        W33446   6.069  20.750   3.877
29486W        W33447   5.741  18.771   5.205
29487W        W33448   7.220  19.049   4.473
29488W        W33449   3.714  21.638   6.504
29489W        W33450   4.131  20.864   6.036
29490W        W33451   3.698  21.710   4.268
29491W        W33452   5.597  18.980   6.074
29492W        W33453   4.960  21.003   3.923
29493W        W33454   6.865  21.385   4.109
29494W        W33455   5.840  20.038   4.123
29495W        W33456   4.683  19.229   4.640
29496W        W33457   5.515  19.139   3.692
29497W        W33458   6.099  20.704   6.870
29498W        W33459   6.452  18.610   4.487
29499W        W33460   3.782  18.458   3.935
29500W        W33461   5.068  20.777   6.225
29501W        W33462   4.867  20.693   5.317
29502W        W33463   4.609  20.645   3.715
29503W        W33464   3.850  20.886   4.483
29504W        W33465   4.354  19.956   6.925
29505W        W33466   5.058  18.516   7.111
29506W        W33467   5.767  18.658   6.467
29507W        W33468   4.962  18.426   4.748
29508W        W33469   6.021  18.503   4.253
29509W        W33470   3.966  18.435   5.830
29510W        W33471   4.014  19.398   5.200
29511W        W33472   6.703  18.506   5.606
29512W        W33473   4.125  19.004   4.420
29513W        W33474   6.696  18.692   6.036
29514W        W33475   7.092  19.895   3.721
29515W        W33476   4.384  18.653   5.540
29516W        W33477   5.498  19.225   6.480
29517W        W33478   3.646  18.915   3.958
29518W        W33479   4.432  20.304   6.519
29519W        W33480   5.790  19.702   5.698
29520W        W33481   5.657  21.781   3.994
29521W        W33482   3.803  20.288   3.691
29522W        W33483   4.538  20.699   6.817
29523W        W33484   4.059  19.866   6.448
29524W        W33485   5.050  19.971   6.242
29525W        W33486   6.818  18.330   6.504
29526W        W33487   7.216  19.940   6.495
29527W        W33488   7.204  20.140   4.181
29528W        W33489   6.067  20.472   4.280
29529W        W33490   6.541  21.772   3.975
29530W        W33491   5.718  19.762   7.117
29531W        W33492   4.048  20.729   7.157
29532W        W33493   7.254  18.651   7.109
29533W        W33494   6.972  19.579   5.730
29534W        W33495   5.280  21.709   7.207
29535W        W33496   5.135  18.338   3.934
29536W        W33497   6.674  20.937   3.877
29537W        W33498   4.443  19.030   6.763
29538W        W33499   4.877  21.024   6.625
29539W        W33500   7.003  19.015   6.423
29540W        W33501   6.214  21.674   4.391
29541W        W33502   6.453  20.293   5.758
29542W        W33503   5.172  19.778   7.182
29543W        W33504   4.675  20.957   4.376
29544W        W33505   6.430  20.455   4.640
29545W        W33506   4.198  19.081   6.364
29546W        W33507   5.527  21.143   4.828
29547W        W33508   7.277  19.703   5.009
29548W        W33509   5.499  18.336   6.728
29549W        W33510   6.279  21.041   5.807
29550W        W33511   6.582  21.385   5.515
29551W        W33512   5.801  21.187   3.943
29552W        W33513   3.811  21.079   6.785
29553W        W33514   4.554  19.071   6.023
29554W        W33515   4.524  18.419   5.133
29555W        W33516   6.145  19.261   5.825
29556W        W33517   4.943  20.432   4.025
29557W        W33518   6.941  20.374   5.524
29558W        W33519   4.268  21.132   6.947
29559W        W33520   6.655  21.814   4.744
29560W        W33521   4.754  18.834   5.189
29561W        W33522   4.523  20.327   5.279
29562W        W33523   4.836  21.738   6.029
29563W        W33524   6.903  21.834   7.061
29564W        W33525   6.062  20.022   5.994
29565W        W33526   3.911  19.820   3.909
29566W        W33527   7.045  21.478   4.606
29567W        W33528   6.882  18.802   4.225
29568W        W33529   5.021  18.321   6.628
29569W        W33530   6.727  21.123   5.086
29570W        W33531   6.756  19.679   4.991
29571W        W33532   4.873  19.352   5.207
29572W        W33533   5.118  19.614   6.531
29573W        W33534   6.229  20.767   6.394
29574W        W33535   4.879  19.221   6.506
29575W        W33536   4.858  21.687   5.122
29576W        W33537   4.175  21.646   6.756
29577W        W33538   4.287  21.007   3.886
29578W        W33539   6.804  20.765   4.696
29579W        W33540   4.408  19.557   6.582
29580W        W33541   7.181  19.487   4.063
29581W        W33542   4.926  20.544   4.534
29582W        W33543   6.025  19.926   6.615
29583W        W33544   5.916  19.554   6.159
29584W        W33545   4.476  19.926   6.188
29585W        W33546   6.686  21.814   6.017
29586W        W33547   6.477  18.448   7.011
29587W        W33548   4.141  18.598   6.598
29588W        W33549   4.480  19.621   5.651
29589W        W33550   4.849  19.435   3.773
29590W        W33551   3.652  21.194   6.318
29591W        W33552   5.237  19.903   5.761
29592W        W33553   5.060  18.928   3.866
29593W        W33554   4.195  19.744   4.647
29594W        W33555   3.966  21.596   6.084
29595W        W33556   6.761  19.822   4.192
29596W        W33557   6.856  18.738   6.878
29597W        W33558   6.292  20.947   4.841
29598W        W33559   3.890  19.871   7.018
29599W        W33560   6.856  18.335   4.314
29600W        W33561   6.376  20.810   4.325
29601W        W33562   5.278  19.868   4.410
29602W        W33563   6.465  18.672   3.933
29603W        W33564   6.530  19.279   6.119
29604W        W33565   4.239  19.872   5.326
29605W        W33566   4.533  20.811   4.975
29606W        W33567   6.296  19.431   4.940
29607W        W33568   5.319  18.810   5.636
29608W        W33569   7.281  20.721   6.147
29609W        W33570   7.199  18.708   5.708
29610W        W33571   3.738  21.538   5.084
29611W        W33572   4.247  20.725   4.620
29612W        W33573   4.162  18.342   7.173
29613W        W33574   5.281  21.195   7.275
29614W        W33575   7.036  20.163   5.065
29615W        W33576   6.390  20.340   3.945
29616W        W33577   5.685  21.861   6.157
29617W        W33578   6.542  20.583   7.194
29618W        W33579   5.357  18.293   4.474
29619W        W33580   6.070  19.162   5.333
29620W        W33581   3.756  20.749   5.665
29621W        W33582   5.009  18.711   4.306
29622W        W33583   4.813  20.195   7.155
29623W        W33584   5.807  19.176   4.869
29624W        W33585   6.012  20.586   5.991
29625W        W33586   4.166  21.191   6.426
29626W        W33587   4.757  21.174   7.149
29627W        W33588   4.608  18.971   4.163
29628W        W33589   6.125  19.113   4.488
29629W        W33590   6.083  21.221   6.725
29630W        W33591   4.768  19.813   5.324
29631W        W33592   4.423  21.511   6.189
29632W        W33593   7.168  21.628   3.790
29633W        W33594   4.031  20.300   6.786
29634W        W33595   6.026  20.562   5.474
29635W        W33596   4.462  20.211   4.716
29636W        W33597   4.833  21.218   6.111
29637W        W33598   5.211  18.637   5.152
29638W        W33599   3.822  20.621   4.082
29639W        W33600   5.341  19.572   3.952
29640W        W33601   3.987  20.121   4.971
29641W        W33602   5.277  18.763   6.435
29642W        W33603   6.949  18.472   3.862
29643W        W33604   7.042  20.218   6.961
29644W        W33605   5.696  21.475   7.113
29645W        W33606   7.254  20.569   6.635
29646W        W33607   6.662  21.367   7.246
29647W        W33608   4.401  21.823   5.724
29648W        W33609   7.260  20.445   4.598
29649W        W33610   5.790  19.712   5.111
29650W        W33611   5.557  18.324   5.001
29651W        W33612   4.616  21.308   4.838
29652W        W33613   5.115  19.049   6.063
29653W        W33614   4.815  18.418   5.532
29654W        W33615   3.878  21.240   4.080
29655W        W33616   5.694  20.604   4.798
29656W        W33617   4.569  21.399   6.677
29657W        W33618   4.046  20.222   4.373
29658W        W33619   3.931  18.765   5.372
29659W        W33620   5.479  20.730   5.429
29660W        W33621   3.731  18.584   4.449
29661W        W33622   6.395  19.790   6.376
29662W        W33623   6.272  19.176   3.948
29663W        W33624   6.789  20.848   5.596
29664W        W33625   5.450  21.332   5.427
29665W        W33626   4.862  21.436   4.338
29666W        W33627   6.144  18.339   3.768
29667W        W33628   3.944  21.599   5.509
29668W        W33629   6.141  19.357   7.144
29669W        W33630   4.124  18.887   7.143
29670W        W33631   3.855  19.487   4.476
29671W        W33632   4.546  19.476   4.201
29672W        W33633   6.309  19.803   7.018
29673W        W33634   4.652  20.084   5.727
29674W        W33635   6.126  18.370   4.847
29675W        W33636   5.257  21.801   5.350
29676W        W33637   6.471  21.263   6.287
29677W        W33638   6.055  21.412   5.398
29678W        W33639   6.074  20.392   4.992
29679W        W33640   5.536  18.617   4.063
29680W        W33641   7.217  18.245   4.785
29681W        W33642   4.905  19.880   3.948
29682W        W33643   7.071  19.217   4.938
29683W        W33644   5.763  20.387   3.815
29684W        W33645   6.699  20.587   6.563
29685W        W33646   6.353  21.288   4.030
29686W        W33647   4.968  18.963   6.936
29687W        W33648   4.788  19.547   6.177
29688W        W33649   6.880  21.042   6.454
29689W        W33650   5.980  18.992   6.831
29690W        W33651   3.824  19.463   6.608
29691W        W33652   5.584  19.940   6.334
29692W        W33653   3.941  20.698   4.991
29693W        W33654   4.088  19.995   5.881
29694W        W33655   6.405  20.281   6.231
29695W        W33656   6.177  21.661   7.042
29696W        W33657   6.073  19.400   6.595
29697W        W33658   6.350  21.454   5.000
29698W        W33659   5.352  21.174   6.323
29699W        W33660   4.837  21.529   5.592
29700W        W33661   6.642  20.700   6.011
29701W        W33662   5.692  20.772   7.148
29702W        W33663   4.297  20.725   5.487
29703W        W33664   6.643  20.484   5.132
29704W        W33665   6.284  21.550   5.883
29705W        W33666   4.262  21.279   5.753
29706W        W33667   5.283  19.331   6.963
29707W        W33668   5.734  21.497   4.474
29708W        W33669   5.042  20.752   7.112
29709W        W33670   5.168  20.990   4.489
29710W        W33671   4.389  19.730   3.748
29711W        W33672   3.728  21.816  10.648
29712W        W33673   4.104  20.709  10.171
29713W        W33674   6.809  20.439   7.941
29714W        W33675   6.939  21.524   9.968
29715W        W33676   4.857  21.515   7.494
29716W        W33677   4.940  19.667   8.477
29717W        W33678   4.455  19.515   8.641
29718W        W33679   5.446  20.330   8.075
29719W        W33680   5.121  21.422  10.430
29720W        W33681   3.770  18.983  10.393
29721W        W33682   4.532  18.263  10.195
29722W        W33683   6.226  18.651   9.082
29723W        W33684   5.875  19.522   7.652
29724W        W33685   6.445  18.956  10.743
29725W        W33686   3.811  18.748   9.868
29726W        W33687   3.910  21.367  10.889
29727W        W33688   5.432  20.757   7.621
29728W        W33689   3.864  19.540   9.314
29729W        W33690   4.757  19.431  10.551
29730W        W33691   7.216  19.290   9.050
29731W        W33692   6.980  20.333   9.909
29732W        W33693   5.288  19.666   8.936
29733W        W33694   5.834  21.005   9.305
29734W        W33695   4.334  20.439   9.537
29735W        W33696   3.693  19.967   9.108
29736W        W33697   4.729  19.939  10.300
29737W        W33698   7.000  19.722  10.554
29738W        W33699   4.616  21.166   8.999
29739W        W33700   5.737  20.855  10.133
29740W        W33701   4.957  19.495   9.358
29741W        W33702   5.249  20.279   9.001
29742W        W33703   6.246  21.052  10.849
29743W        W33704   5.325  20.372  10.859
29744W        W33705   5.306  20.088  10.337
29745W        W33706   3.715  19.479  10.859
29746W        W33707   6.547  21.014  10.458
29747W        W33708   4.128  18.596   8.456
29748W        W33709   4.655  20.854   9.455
29749W        W33710   7.118  20.637   8.745
29750W        W33711   6.531  19.037   9.312
29751W        W33712   6.816  18.990   7.407
29752W        W33713   7.281  19.791   9.713
29753W        W33714   5.248  21.498   9.466
29754W        W33715   7.022  20.964   7.904
29755W        W33716   4.151  21.750   7.658
29756W        W33717   4.544  21.796   8.334
29757W        W33718   4.341  18.550   9.760
29758W        W33719   6.964  19.568  10.035
29759W        W33720   6.369  19.990   8.494
29760W        W33721   6.335  19.678   7.521
29761W        W33722   5.543  20.822   9.661
29762W        W33723   5.349  19.152   8.860
29763W        W33724   6.820  20.030   8.276
29764W        W33725   5.722  18.688   8.292
29765W        W33726   4.379  21.382   7.975
29766W        W33727   3.750  18.881   8.574
29767W        W33728   6.536  19.488   9.048
29768W        W33729   3.994  21.105   8.963
29769W        W33730   5.335  21.455   7.833
29770W        W33731   6.727  19.481   7.297
29771W        W33732   3.750  21.239   9.461
29772W        W33733   4.541  20.811   9.941
29773W        W33734   4.914  20.171   8.560
29774W        W33735   4.936  18.576   9.653
29775W        W33736   7.165  18.338   8.950
29776W        W33737   4.384  20.210   7.418
29777W        W33738   4.039  19.243   7.597
29778W        W33739   4.101  21.199   8.391
29779W        W33740   5.232  20.682   8.639
29780W        W33741   6.564  21.541  10.353
29781W        W33742   5.490  19.183   8.037
29782W        W33743   6.873  21.581   8.809
29783W        W33744   6.550  19.434  10.407
29784W        W33745   7.263  21.090   8.541
29785W        W33746   5.890  20.382  10.025
29786W        W33747   3.656  19.933   8.231
29787W        W33748   4.767  20.348   9.804
29788W        W33749   5.971  19.612   8.182
29789W        W33750   5.848  20.102   8.286
29790W        W33751   4.191  19.522   9.760
29791W        W33752   4.176  19.398  10.682
29792W        W33753   4.066  18.315   8.841
29793W        W33754   5.834  18.662   9.402
29794W        W33755   5.482  18.847  10.565
29795W        W33756   5.837  18.996   7.743
29796W        W33757   7.020  21.389  10.497
29797W        W33758   5.987  18.470  10.536
29798W        W33759   7.006  20.771  10.658
29799W        W33760   6.436  18.938  10.254
29800W        W33761   6.236  18.876   8.524
29801W        W33762   6.629  20.010  10.928
29802W        W33763   4.369  21.586   8.914
29803W        W33764   5.027  19.303   7.900
29804W        W33765   4.596  18.587  10.564
29805W        W33766   6.648  19.071   8.245
29806W        W33767   7.015  19.553   8.190
29807W        W33768   4.758  21.770  10.661
29808W        W33769   4.684  18.306   7.896
29809W        W33770   7.005  18.840   8.931
29810W        W33771   7.155  21.089   7.376
29811W        W33772   4.062  20.292   9.078
29812W        W33773   5.979  18.879   7.308
29813W        W33774   7.113  21.211   9.028
29814W        W33775   7.152  18.405   9.778
29815W        W33776   5.597  19.617  10.332
29816W        W33777   5.690  20.956   8.035
29817W        W33778   6.090  20.250  10.775
29818W        W33779   5.764  18.227   9.084
29819W        W33780   4.376  19.130   9.147
29820W        W33781   3.930  20.330   9.921
29821W        W33782   5.789  21.523   8.627
29822W        W33783   6.983  19.120   9.499
29823W        W33784   5.620  21.467  10.266
29824W        W33785   6.963  20.526   7.471
29825W        W33786   5.398  20.009   8.532
29826W        W33787   7.250  18.520  10.273
29827W        W33788   5.399  20.355   9.867
29828W        W33789   5.616  19.241   9.312
29829W        W33790   6.468  19.539   8.150
29830W        W33791   6.755  19.272   7.792
29831W        W33792   6.564  21.312   8.181
29832W        W33793   6.398  20.915   8.977
29833W        W33794   6.294  19.994   7.955
29834W        W33795   5.727  20.204   8.941
29835W        W33796   6.608  19.992   9.008
29836W        W33797   3.983  19.007   9.432
29837W        W33798   6.761  20.059  10.259
29838W        W33799   7.112  21.677   9.405
29839W        W33800   5.042  21.121   8.807
29840W        W33801   6.049  21.654  10.131
29841W        W33802   6.043  18.984   9.895
29842W        W33803   5.250  21.692   9.956
29843W        W33804   6.947  18.646   8.422
29844W        W33805   6.738  19.965   9.723
29845W        W33806   3.721  19.286   9.761
29846W        W33807   6.581  19.081   8.779
29847W        W33808   6.992  19.232  10.556
29848W        W33809   5.877  20.931   8.774
29849W        W33810   5.133  21.522   8.387
29850W        W33811   4.248  18.702   7.645
29851W        W33812   5.352  18.356   9.455
29852W        W33813   4.380  21.476   7.303
29853W        W33814   4.754  19.942   8.054
29854W        W33815   5.408  20.571  10.367
29855W        W33816   5.238  18.929   8.357
29856W        W33817   6.594  18.526   8.785
29857W        W33818   6.314  21.808   9.113
29858W        W33819   5.122  20.493   9.414
29859W        W33820   6.892  21.216   9.540
29860W        W33821   4.586  18.719   8.309
29861W        W33822   5.108  21.016   9.269
29862W        W33823   4.591  18.947   7.334
29863W        W33824   5.392  19.556   9.728
29864W        W33825   6.240  18.422   9.598
29865W        W33826   3.660  20.265   9.483
29866W        W33827   5.364  20.083   7.641
29867W        W33828   4.632  18.398   7.411
29868W        W33829   5.370  19.479   8.462
29869W        W33830   6.340  18.455  10.161
29870W        W33831   4.928  20.467  10.270
29871W        W33832   5.732  20.249  10.487
29872W        W33833   6.349  20.279  10.380
29873W        W33834   5.633  18.419  10.885
29874W        W33835   4.855  19.035   9.278
29875W        W33836   4.281  18.991   8.676
29876W        W33837   4.067  21.703   8.352
29877W        W33838   5.399  21.033  10.477
29878W        W33839   4.434  20.518   7.836
29879W        W33840   6.114  19.903   9.057
29880W        W33841   6.394  19.702   9.456
29881W        W33842   5.599  20.376   9.390
29882W        W33843   6.069  20.750   7.522
29883W        W33844   5.741  18.771   8.850
29884W        W33845   7.220  19.049   8.118
29885W        W33846   3.714  21.638  10.149
29886W        W33847   4.131  20.864   9.681
29887W        W33848   3.698  21.710   7.913
29888W        W33849   5.597  18.980   9.719
29889W        W33850   4.960  21.003   7.568
29890W        W33851   6.865  21.385   7.754
29891W        W33852   5.840  20.038   7.768
29892W        W33853   4.683  19.229   8.285
29893W        W33854   5.515  19.139   7.337
29894W        W33855   6.099  20.704  10.515
29895W        W33856   6.452  18.610   8.132
29896W        W33857   3.782  18.458   7.580
29897W        W33858   5.068  20.777   9.870
29898W        W33859   4.867  20.693   8.962
29899W        W33860   4.609  20.645   7.360
29900W        W33861   3.850  20.886   8.128
29901W        W33862   4.354  19.956  10.570
29902W        W33863   5.058  18.516  10.756
29903W        W33864   5.767  18.658  10.112
29904W        W33865   4.962  18.426   8.393
29905W        W33866   6.021  18.503   7.898
29906W        W33867   3.966  18.435   9.475
29907W        W33868   4.014  19.398   8.845
29908W        W33869   6.703  18.506   9.251
29909W        W33870   4.125  19.004   8.065
29910W        W33871   6.696  18.692   9.681
29911W        W33872   7.092  19.895   7.366
29912W        W33873   4.384  18.653   9.185
29913W        W33874   5.498  19.225  10.125
29914W        W33875   3.646  18.915   7.603
29915W        W33876   4.432  20.304  10.164
29916W        W33877   5.790  19.702   9.343
29917W        W33878   5.657  21.781   7.639
29918W        W33879   3.803  20.288   7.336
29919W        W33880   4.538  20.699  10.462
29920W        W33881   4.059  19.866  10.093
29921W        W33882   5.050  19.971   9.887
29922W        W33883   6.818  18.330  10.149
29923W        W33884   7.216  19.940  10.140
29924W        W33885   7.204  20.140   7.826
29925W        W33886   6.067  20.472   7.925
29926W        W33887   6.541  21.772   7.620
29927W        W33888   5.718  19.762  10.762
29928W        W33889   4.048  20.729  10.802
29929W        W33890   7.254  18.651  10.754
29930W        W33891   6.972  19.579   9.375
29931W        W33892   5.280  21.709  10.852
29932W        W33893   5.135  18.338   7.579
29933W        W33894   6.674  20.937   7.522
29934W        W33895   4.443  19.030  10.408
29935W        W33896   4.877  21.024  10.270
29936W        W33897   7.003  19.015  10.068
29937W        W33898   6.214  21.674   8.036
29938W        W33899   6.453  20.293   9.403
29939W        W33900   4.703  18.709  10.070
29940W        W33901   5.172  19.778  10.827
29941W        W33902   4.675  20.957   8.021
29942W        W33903   6.430  20.455   8.285
29943W        W33904   4.198  19.081  10.009
29944W        W33905   5.527  21.143   8.473
29945W        W33906   7.277  19.703   8.654
29946W        W33907   5.499  18.336  10.373
29947W        W33908   6.279  21.041   9.452
29948W        W33909   6.582  21.385   9.160
29949W        W33910   5.801  21.187   7.588
29950W        W33911   3.811  21.079  10.430
29951W        W33912   4.554  19.071   9.668
29952W        W33913   4.524  18.419   8.778
29953W        W33914   6.145  19.261   9.470
29954W        W33915   4.943  20.432   7.670
29955W        W33916   6.941  20.374   9.169
29956W        W33917   4.268  21.132  10.592
29957W        W33918   6.655  21.814   8.389
29958W        W33919   4.754  18.834   8.834
29959W        W33920   4.523  20.327   8.924
29960W        W33921   4.836  21.738   9.674
29961W        W33922   6.903  21.834  10.706
29962W        W33923   6.062  20.022   9.639
29963W        W33924   3.911  19.820   7.554
29964W        W33925   7.045  21.478   8.251
29965W        W33926   6.882  18.802   7.870
29966W        W33927   5.021  18.321  10.273
29967W        W33928   6.727  21.123   8.731
29968W        W33929   6.756  19.679   8.636
29969W        W33930   4.873  19.352   8.852
29970W        W33931   5.118  19.614  10.176
29971W        W33932   6.229  20.767  10.039
29972W        W33933   4.879  19.221  10.151
29973W        W33934   4.858  21.687   8.767
29974W        W33935   4.175  21.646  10.401
29975W        W33936   4.287  21.007   7.531
29976W        W33937   6.804  20.765   8.341
29977W        W33938   4.408  19.557  10.227
29978W        W33939   7.181  19.487   7.708
29979W        W33940   4.926  20.544   8.179
29980W        W33941   6.025  19.926  10.260
29981W        W33942   5.916  19.554   9.804
29982W        W33943   4.476  19.926   9.833
29983W        W33944   6.686  21.814   9.662
29984W        W33945   6.477  18.448  10.656
29985W        W33946   4.141  18.598  10.243
29986W        W33947   4.480  19.621   9.296
29987W        W33948   4.849  19.435   7.418
29988W        W33949   3.652  21.194   9.963
29989W        W33950   5.237  19.903   9.406
29990W        W33951   5.060  18.928   7.511
29991W        W33952   4.195  19.744   8.292
29992W        W33953   3.966  21.596   9.729
29993W        W33954   6.761  19.822   7.837
29994W        W33955   6.856  18.738  10.523
29995W        W33956   6.292  20.947   8.486
29996W        W33957   3.890  19.871  10.663
29997W        W33958   6.856  18.335   7.959
29998W        W33959   6.376  20.810   7.970
29999W        W33960   5.278  19.868   8.055
30000W        W33961   6.465  18.672   7.578
30001W        W33962   6.530  19.279   9.764
30002W        W33963   4.239  19.872   8.971
30003W        W33964   4.533  20.811   8.620
30004W        W33965   6.296  19.431   8.585
30005W        W33966   5.319  18.810   9.281
30006W        W33967   7.281  20.721   9.792
30007W        W33968   7.199  18.708   9.353
30008W        W33969   3.738  21.538   8.729
30009W        W33970   4.247  20.725   8.265
30010W        W33971   4.162  18.342  10.818
30011W        W33972   5.281  21.195  10.920
30012W        W33973   7.036  20.163   8.710
30013W        W33974   6.390  20.340   7.590
30014W        W33975   5.685  21.861   9.802
30015W        W33976   6.542  20.583  10.839
30016W        W33977   5.357  18.293   8.119
30017W        W33978   6.070  19.162   8.978
30018W        W33979   3.756  20.749   9.310
30019W        W33980   5.009  18.711   7.951
30020W        W33981   4.813  20.195  10.800
30021W        W33982   5.807  19.176   8.514
30022W        W33983   6.012  20.586   9.636
30023W        W33984   4.166  21.191  10.071
30024W        W33985   4.757  21.174  10.794
30025W        W33986   4.608  18.971   7.808
30026W        W33987   6.125  19.113   8.133
30027W        W33988   6.083  21.221  10.370
30028W        W33989   4.768  19.813   8.969
30029W        W33990   4.423  21.511   9.834
30030W        W33991   7.168  21.628   7.435
30031W        W33992   4.031  20.300  10.431
30032W        W33993   6.026  20.562   9.119
30033W        W33994   4.462  20.211   8.361
30034W        W33995   4.833  21.218   9.756
30035W        W33996   5.211  18.637   8.797
30036W        W33997   3.822  20.621   7.727
30037W        W33998   5.341  19.572   7.597
30038W        W33999   3.987  20.121   8.616
30039W        W34000   5.277  18.763  10.080
30040W        W34001   6.949  18.472   7.507
30041W        W34002   7.042  20.218  10.606
30042W        W34003   5.696  21.475  10.758
30043W        W34004   7.254  20.569  10.280
30044W        W34005   6.662  21.367  10.891
30045W        W34006   4.401  21.823   9.369
30046W        W34007   7.260  20.445   8.243
30047W        W34008   5.790  19.712   8.756
30048W        W34009   5.557  18.324   8.646
30049W        W34010   4.616  21.308   8.483
30050W        W34011   5.115  19.049   9.708
30051W        W34012   4.815  18.418   9.177
30052W        W34013   3.878  21.240   7.725
30053W        W34014   5.694  20.604   8.443
30054W        W34015   4.569  21.399  10.322
30055W        W34016   4.046  20.222   8.018
30056W        W34017   3.931  18.765   9.017
30057W        W34018   5.479  20.730   9.074
30058W        W34019   3.731  18.584   8.094
30059W        W34020   6.395  19.790  10.021
30060W        W34021   6.272  19.176   7.593
30061W        W34022   6.789  20.848   9.241
30062W        W34023   5.450  21.332   9.072
30063W        W34024   4.862  21.436   7.983
30064W        W34025   6.144  18.339   7.413
30065W        W34026   3.944  21.599   9.154
30066W        W34027   6.141  19.357  10.789
30067W        W34028   4.124  18.887  10.788
30068W        W34029   3.855  19.487   8.121
30069W        W34030   4.546  19.476   7.846
30070W        W34031   6.309  19.803  10.663
30071W        W34032   4.652  20.084   9.372
30072W        W34033   6.126  18.370   8.492
30073W        W34034   5.257  21.801   8.995
30074W        W34035   6.471  21.263   9.932
30075W        W34036   6.055  21.412   9.043
30076W        W34037   6.074  20.392   8.637
30077W        W34038   5.536  18.617   7.708
30078W        W34039   7.217  18.245   8.430
30079W        W34040   4.905  19.880   7.593
30080W        W34041   7.071  19.217   8.583
30081W        W34042   5.763  20.387   7.460
30082W        W34043   6.699  20.587  10.208
30083W        W34044   6.353  21.288   7.675
30084W        W34045   4.968  18.963  10.581
30085W        W34046   4.788  19.547   9.822
30086W        W34047   6.880  21.042  10.099
30087W        W34048   5.980  18.992  10.476
30088W        W34049   3.824  19.463  10.253
30089W        W34050   5.584  19.940   9.979
30090W        W34051   3.941  20.698   8.636
30091W        W34052   4.088  19.995   9.526
30092W        W34053   6.405  20.281   9.876
30093W        W34054   6.177  21.661  10.687
30094W        W34055   6.073  19.400  10.240
30095W        W34056   6.350  21.454   8.645
30096W        W34057   4.837  21.529   9.237
30097W        W34058   6.642  20.700   9.656
30098W        W34059   5.692  20.772  10.793
30099W        W34060   4.297  20.725   9.132
30100W        W34061   6.643  20.484   8.777
30101W        W34062   4.262  21.279   9.398
30102W        W34063   5.283  19.331  10.608
30103W        W34064   5.734  21.497   8.119
30104W        W34065   5.042  20.752  10.757
30105W        W34066   5.168  20.990   8.134
30106W        W34067   4.389  19.730   7.393
30107W        W34068   3.728  21.816  14.292
30108W        W34069   4.104  20.709  13.815
30109W        W34070   6.809  20.439  11.585
30110W        W34071   6.939  21.524  13.612
30111W        W34072   4.857  21.515  11.138
30112W        W34073   4.940  19.667  12.121
30113W        W34074   4.455  19.515  12.285
30114W        W34075   5.446  20.330  11.719
30115W        W34076   5.121  21.422  14.074
30116W        W34077   3.770  18.983  14.037
30117W        W34078   4.532  18.263  13.839
30118W        W34079   6.226  18.651  12.726
30119W        W34080   5.875  19.522  11.296
30120W        W34081   6.445  18.956  14.387
30121W        W34082   3.811  18.748  13.512
30122W        W34083   3.910  21.367  14.533
30123W        W34084   5.432  20.757  11.265
30124W        W34085   3.864  19.540  12.958
30125W        W34086   4.757  19.431  14.195
30126W        W34087   7.216  19.290  12.694
30127W        W34088   6.980  20.333  13.553
30128W        W34089   5.288  19.666  12.580
30129W        W34090   5.834  21.005  12.949
30130W        W34091   4.334  20.439  13.181
30131W        W34092   3.693  19.967  12.752
30132W        W34093   4.729  19.939  13.944
30133W        W34094   7.000  19.722  14.198
30134W        W34095   4.616  21.166  12.643
30135W        W34096   5.737  20.855  13.777
30136W        W34097   4.957  19.495  13.002
30137W        W34098   5.249  20.279  12.645
30138W        W34099   6.246  21.052  14.493
30139W        W34100   5.325  20.372  14.503
30140W        W34101   5.306  20.088  13.981
30141W        W34102   3.715  19.479  14.503
30142W        W34103   6.547  21.014  14.102
30143W        W34104   4.128  18.596  12.100
30144W        W34105   4.655  20.854  13.099
30145W        W34106   7.118  20.637  12.389
30146W        W34107   6.531  19.037  12.956
30147W        W34108   6.816  18.990  11.051
30148W        W34109   7.281  19.791  13.357
30149W        W34110   5.248  21.498  13.110
30150W        W34111   7.022  20.964  11.548
30151W        W34112   4.151  21.750  11.302
30152W        W34113   4.544  21.796  11.978
30153W        W34114   4.341  18.550  13.404
30154W        W34115   6.964  19.568  13.679
30155W        W34116   6.369  19.990  12.138
30156W        W34117   6.335  19.678  11.165
30157W        W34118   5.543  20.822  13.305
30158W        W34119   5.349  19.152  12.504
30159W        W34120   5.949  21.239  13.498
30160W        W34121   6.820  20.030  11.920
30161W        W34122   5.722  18.688  11.936
30162W        W34123   4.379  21.382  11.619
30163W        W34124   3.750  18.881  12.218
30164W        W34125   6.536  19.488  12.692
30165W        W34126   3.994  21.105  12.607
30166W        W34127   5.335  21.455  11.477
30167W        W34128   6.727  19.481  10.941
30168W        W34129   3.750  21.239  13.105
30169W        W34130   4.541  20.811  13.585
30170W        W34131   4.914  20.171  12.204
30171W        W34132   4.936  18.576  13.297
30172W        W34133   7.165  18.338  12.594
30173W        W34134   4.384  20.210  11.062
30174W        W34135   4.039  19.243  11.241
30175W        W34136   4.101  21.199  12.035
30176W        W34137   5.232  20.682  12.283
30177W        W34138   6.564  21.541  13.997
30178W        W34139   5.490  19.183  11.681
30179W        W34140   6.873  21.581  12.453
30180W        W34141   6.550  19.434  14.051
30181W        W34142   7.263  21.090  12.185
30182W        W34143   5.890  20.382  13.669
30183W        W34144   3.656  19.933  11.875
30184W        W34145   4.767  20.348  13.448
30185W        W34146   5.971  19.612  11.826
30186W        W34147   5.848  20.102  11.930
30187W        W34148   4.191  19.522  13.404
30188W        W34149   4.176  19.398  14.326
30189W        W34150   4.066  18.315  12.485
30190W        W34151   5.834  18.662  13.046
30191W        W34152   5.482  18.847  14.209
30192W        W34153   5.837  18.996  11.387
30193W        W34154   7.020  21.389  14.141
30194W        W34155   5.987  18.470  14.180
30195W        W34156   7.006  20.771  14.302
30196W        W34157   6.436  18.938  13.898
30197W        W34158   6.236  18.876  12.168
30198W        W34159   6.629  20.010  14.572
30199W        W34160   4.369  21.586  12.558
30200W        W34161   5.027  19.303  11.544
30201W        W34162   4.596  18.587  14.208
30202W        W34163   6.648  19.071  11.889
30203W        W34164   7.015  19.553  11.834
30204W        W34165   4.758  21.770  14.305
30205W        W34166   4.684  18.306  11.540
30206W        W34167   7.005  18.840  12.575
30207W        W34168   7.155  21.089  11.020
30208W        W34169   4.062  20.292  12.722
30209W        W34170   5.979  18.879  10.952
30210W        W34171   7.113  21.211  12.672
30211W        W34172   7.152  18.405  13.422
30212W        W34173   5.597  19.617  13.976
30213W        W34174   5.690  20.956  11.679
30214W        W34175   6.090  20.250  14.419
30215W        W34176   5.764  18.227  12.728
30216W        W34177   4.376  19.130  12.791
30217W        W34178   3.930  20.330  13.565
30218W        W34179   5.789  21.523  12.271
30219W        W34180   6.983  19.120  13.143
30220W        W34181   5.620  21.467  13.910
30221W        W34182   6.963  20.526  11.115
30222W        W34183   5.398  20.009  12.176
30223W        W34184   7.250  18.520  13.917
30224W        W34185   5.399  20.355  13.511
30225W        W34186   5.616  19.241  12.956
30226W        W34187   6.468  19.539  11.794
30227W        W34188   6.755  19.272  11.436
30228W        W34189   6.564  21.312  11.825
30229W        W34190   6.398  20.915  12.621
30230W        W34191   6.294  19.994  11.599
30231W        W34192   5.727  20.204  12.585
30232W        W34193   6.608  19.992  12.652
30233W        W34194   3.983  19.007  13.076
30234W        W34195   6.761  20.059  13.903
30235W        W34196   7.112  21.677  13.049
30236W        W34197   5.042  21.121  12.451
30237W        W34198   6.049  21.654  13.775
30238W        W34199   6.043  18.984  13.539
30239W        W34200   5.250  21.692  13.600
30240W        W34201   6.947  18.646  12.066
30241W        W34202   6.738  19.965  13.367
30242W        W34203   3.721  19.286  13.405
30243W        W34204   6.581  19.081  12.423
30244W        W34205   6.992  19.232  14.200
30245W        W34206   5.877  20.931  12.418
30246W        W34207   5.133  21.522  12.031
30247W        W34208   4.248  18.702  11.289
30248W        W34209   5.352  18.356  13.099
30249W        W34210   4.380  21.476  10.947
30250W        W34211   4.754  19.942  11.698
30251W        W34212   5.408  20.571  14.011
30252W        W34213   5.238  18.929  12.001
30253W        W34214   6.594  18.526  12.429
30254W        W34215   6.314  21.808  12.757
30255W        W34216   5.726  21.456  13.097
30256W        W34217   5.122  20.493  13.058
30257W        W34218   6.892  21.216  13.184
30258W        W34219   4.586  18.719  11.953
30259W        W34220   5.108  21.016  12.913
30260W        W34221   4.591  18.947  10.978
30261W        W34222   5.392  19.556  13.372
30262W        W34223   6.240  18.422  13.242
30263W        W34224   3.660  20.265  13.127
30264W        W34225   5.364  20.083  11.285
30265W        W34226   4.632  18.398  11.055
30266W        W34227   5.370  19.479  12.106
30267W        W34228   6.340  18.455  13.805
30268W        W34229   4.928  20.467  13.914
30269W        W34230   5.732  20.249  14.131
30270W        W34231   6.349  20.279  14.024
30271W        W34232   5.633  18.419  14.529
30272W        W34233   4.855  19.035  12.922
30273W        W34234   4.281  18.991  12.320
30274W        W34235   4.067  21.703  11.996
30275W        W34236   5.399  21.033  14.121
30276W        W34237   4.434  20.518  11.480
30277W        W34238   6.114  19.903  12.701
30278W        W34239   6.394  19.702  13.100
30279W        W34240   5.599  20.376  13.034
30280W        W34241   6.069  20.750  11.166
30281W        W34242   5.741  18.771  12.494
30282W        W34243   7.220  19.049  11.762
30283W        W34244   3.714  21.638  13.793
30284W        W34245   4.131  20.864  13.325
30285W        W34246   3.698  21.710  11.557
30286W        W34247   5.597  18.980  13.363
30287W        W34248   4.960  21.003  11.212
30288W        W34249   6.865  21.385  11.398
30289W        W34250   5.840  20.038  11.412
30290W        W34251   4.683  19.229  11.929
30291W        W34252   5.515  19.139  10.981
30292W        W34253   6.099  20.704  14.159
30293W        W34254   6.452  18.610  11.776
30294W        W34255   3.782  18.458  11.224
30295W        W34256   5.068  20.777  13.514
30296W        W34257   4.867  20.693  12.606
30297W        W34258   4.609  20.645  11.004
30298W        W34259   3.850  20.886  11.772
30299W        W34260   4.354  19.956  14.214
30300W        W34261   5.058  18.516  14.400
30301W        W34262   5.767  18.658  13.756
30302W        W34263   4.962  18.426  12.037
30303W        W34264   6.021  18.503  11.542
30304W        W34265   3.966  18.435  13.119
30305W        W34266   4.014  19.398  12.489
30306W        W34267   6.703  18.506  12.895
30307W        W34268   4.125  19.004  11.709
30308W        W34269   6.696  18.692  13.325
30309W        W34270   7.092  19.895  11.010
30310W        W34271   4.384  18.653  12.829
30311W        W34272   5.498  19.225  13.769
30312W        W34273   3.646  18.915  11.247
30313W        W34274   4.432  20.304  13.808
30314W        W34275   5.790  19.702  12.987
30315W        W34276   5.657  21.781  11.283
30316W        W34277   3.803  20.288  10.980
30317W        W34278   4.538  20.699  14.106
30318W        W34279   4.059  19.866  13.737
30319W        W34280   5.050  19.971  13.531
30320W        W34281   6.818  18.330  13.793
30321W        W34282   7.216  19.940  13.784
30322W        W34283   7.204  20.140  11.470
30323W        W34284   6.067  20.472  11.569
30324W        W34285   6.541  21.772  11.264
30325W        W34286   5.718  19.762  14.406
30326W        W34287   4.048  20.729  14.446
30327W        W34288   7.254  18.651  14.398
30328W        W34289   6.972  19.579  13.019
30329W        W34290   5.280  21.709  14.496
30330W        W34291   5.135  18.338  11.223
30331W        W34292   6.674  20.937  11.166
30332W        W34293   4.443  19.030  14.052
30333W        W34294   4.877  21.024  13.914
30334W        W34295   7.003  19.015  13.712
30335W        W34296   6.214  21.674  11.680
30336W        W34297   6.453  20.293  13.047
30337W        W34298   4.703  18.709  13.714
30338W        W34299   5.172  19.778  14.471
30339W        W34300   4.675  20.957  11.665
30340W        W34301   6.430  20.455  11.929
30341W        W34302   4.198  19.081  13.653
30342W        W34303   5.527  21.143  12.117
30343W        W34304   7.277  19.703  12.298
30344W        W34305   5.499  18.336  14.017
30345W        W34306   6.279  21.041  13.096
30346W        W34307   6.582  21.385  12.804
30347W        W34308   5.801  21.187  11.232
30348W        W34309   3.811  21.079  14.074
30349W        W34310   4.554  19.071  13.312
30350W        W34311   4.524  18.419  12.422
30351W        W34312   6.145  19.261  13.114
30352W        W34313   4.943  20.432  11.314
30353W        W34314   6.941  20.374  12.813
30354W        W34315   4.268  21.132  14.236
30355W        W34316   6.655  21.814  12.033
30356W        W34317   4.754  18.834  12.478
30357W        W34318   4.523  20.327  12.568
30358W        W34319   4.836  21.738  13.318
30359W        W34320   6.903  21.834  14.350
30360W        W34321   6.062  20.022  13.283
30361W        W34322   3.911  19.820  11.198
30362W        W34323   7.045  21.478  11.895
30363W        W34324   6.882  18.802  11.514
30364W        W34325   5.021  18.321  13.917
30365W        W34326   6.727  21.123  12.375
30366W        W34327   6.756  19.679  12.280
30367W        W34328   4.873  19.352  12.496
30368W        W34329   5.118  19.614  13.820
30369W        W34330   6.229  20.767  13.683
30370W        W34331   4.879  19.221  13.795
30371W        W34332   4.858  21.687  12.411
30372W        W34333   4.175  21.646  14.045
30373W        W34334   4.287  21.007  11.175
30374W        W34335   6.804  20.765  11.985
30375W        W34336   4.408  19.557  13.871
30376W        W34337   7.181  19.487  11.352
30377W        W34338   4.926  20.544  11.823
30378W        W34339   6.025  19.926  13.904
30379W        W34340   5.916  19.554  13.448
30380W        W34341   4.476  19.926  13.477
30381W        W34342   6.686  21.814  13.306
30382W        W34343   6.477  18.448  14.300
30383W        W34344   4.141  18.598  13.887
30384W        W34345   4.480  19.621  12.940
30385W        W34346   4.849  19.435  11.062
30386W        W34347   3.652  21.194  13.607
30387W        W34348   5.237  19.903  13.050
30388W        W34349   5.060  18.928  11.155
30389W        W34350   4.195  19.744  11.936
30390W        W34351   3.966  21.596  13.373
30391W        W34352   6.761  19.822  11.481
30392W        W34353   6.856  18.738  14.167
30393W        W34354   6.292  20.947  12.130
30394W        W34355   3.890  19.871  14.307
30395W        W34356   6.856  18.335  11.603
30396W        W34357   6.376  20.810  11.614
30397W        W34358   5.278  19.868  11.699
30398W        W34359   6.465  18.672  11.222
30399W        W34360   6.530  19.279  13.408
30400W        W34361   4.239  19.872  12.615
30401W        W34362   4.533  20.811  12.264
30402W        W34363   6.296  19.431  12.229
30403W        W34364   5.319  18.810  12.925
30404W        W34365   7.281  20.721  13.436
30405W        W34366   7.199  18.708  12.997
30406W        W34367   3.738  21.538  12.373
30407W        W34368   4.247  20.725  11.909
30408W        W34369   4.162  18.342  14.462
30409W        W34370   5.281  21.195  14.564
30410W        W34371   7.036  20.163  12.354
30411W        W34372   6.390  20.340  11.234
30412W        W34373   5.685  21.861  13.446
30413W        W34374   6.542  20.583  14.483
30414W        W34375   5.357  18.293  11.763
30415W        W34376   6.070  19.162  12.622
30416W        W34377   3.756  20.749  12.954
30417W        W34378   5.009  18.711  11.595
30418W        W34379   4.813  20.195  14.444
30419W        W34380   5.807  19.176  12.158
30420W        W34381   6.012  20.586  13.280
30421W        W34382   4.166  21.191  13.715
30422W        W34383   4.757  21.174  14.438
30423W        W34384   4.608  18.971  11.452
30424W        W34385   6.125  19.113  11.777
30425W        W34386   6.083  21.221  14.014
30426W        W34387   4.768  19.813  12.613
30427W        W34388   4.423  21.511  13.478
30428W        W34389   7.168  21.628  11.079
30429W        W34390   4.031  20.300  14.075
30430W        W34391   6.026  20.562  12.763
30431W        W34392   4.462  20.211  12.005
30432W        W34393   4.833  21.218  13.400
30433W        W34394   5.211  18.637  12.441
30434W        W34395   3.822  20.621  11.371
30435W        W34396   5.341  19.572  11.241
30436W        W34397   3.987  20.121  12.260
30437W        W34398   5.277  18.763  13.724
30438W        W34399   6.949  18.472  11.151
30439W        W34400   7.042  20.218  14.250
30440W        W34401   5.696  21.475  14.402
30441W        W34402   7.254  20.569  13.924
30442W        W34403   6.662  21.367  14.535
30443W        W34404   4.401  21.823  13.013
30444W        W34405   7.260  20.445  11.887
30445W        W34406   5.790  19.712  12.400
30446W        W34407   5.557  18.324  12.290
30447W        W34408   4.616  21.308  12.127
30448W        W34409   5.115  19.049  13.352
30449W        W34410   4.815  18.418  12.821
30450W        W34411   3.878  21.240  11.369
30451W        W34412   5.694  20.604  12.087
30452W        W34413   4.569  21.399  13.966
30453W        W34414   4.046  20.222  11.662
30454W        W34415   3.931  18.765  12.661
30455W        W34416   5.479  20.730  12.718
30456W        W34417   3.731  18.584  11.738
30457W        W34418   6.395  19.790  13.665
30458W        W34419   6.272  19.176  11.237
30459W        W34420   6.789  20.848  12.885
30460W        W34421   5.450  21.332  12.716
30461W        W34422   4.862  21.436  11.627
30462W        W34423   6.144  18.339  11.057
30463W        W34424   3.944  21.599  12.798
30464W        W34425   6.141  19.357  14.433
30465W        W34426   4.124  18.887  14.432
30466W        W34427   3.855  19.487  11.765
30467W        W34428   4.546  19.476  11.490
30468W        W34429   6.309  19.803  14.307
30469W        W34430   4.652  20.084  13.016
30470W        W34431   6.126  18.370  12.136
30471W        W34432   5.257  21.801  12.639
30472W        W34433   6.471  21.263  13.576
30473W        W34434   6.055  21.412  12.687
30474W        W34435   6.074  20.392  12.281
30475W        W34436   5.536  18.617  11.352
30476W        W34437   7.217  18.245  12.074
30477W        W34438   4.905  19.880  11.237
30478W        W34439   7.071  19.217  12.227
30479W        W34440   5.763  20.387  11.104
30480W        W34441   6.699  20.587  13.852
30481W        W34442   6.353  21.288  11.319
30482W        W34443   4.968  18.963  14.225
30483W        W34444   4.788  19.547  13.466
30484W        W34445   6.880  21.042  13.743
30485W        W34446   5.980  18.992  14.120
30486W        W34447   3.824  19.463  13.897
30487W        W34448   5.584  19.940  13.623
30488W        W34449   3.941  20.698  12.280
30489W        W34450   4.088  19.995  13.170
30490W        W34451   6.405  20.281  13.520
30491W        W34452   6.177  21.661  14.331
30492W        W34453   6.073  19.400  13.884
30493W        W34454   6.350  21.454  12.289
30494W        W34455   5.352  21.174  13.612
30495W        W34456   4.837  21.529  12.881
30496W        W34457   6.642  20.700  13.300
30497W        W34458   5.692  20.772  14.437
30498W        W34459   4.297  20.725  12.776
30499W        W34460   6.643  20.484  12.421
30500W        W34461   6.284  21.550  13.172
30501W        W34462   4.262  21.279  13.042
30502W        W34463   5.283  19.331  14.252
30503W        W34464   5.734  21.497  11.763
30504W        W34465   5.042  20.752  14.401
30505W        W34466   5.168  20.990  11.778
30506W        W34467   4.389  19.730  11.037
30507W        W34468   3.728  21.816  17.936
30508W        W34469   4.104  20.709  17.459
30509W        W34470   6.809  20.439  15.229
30510W        W34471   6.939  21.524  17.256
30511W        W34472   4.857  21.515  14.782
30512W        W34473   4.940  19.667  15.765
30513W        W34474   4.455  19.515  15.929
30514W        W34475   5.446  20.330  15.363
30515W        W34476   5.121  21.422  17.718
30516W        W34477   3.770  18.983  17.681
30517W        W34478   4.532  18.263  17.483
30518W        W34479   6.226  18.651  16.370
30519W        W34480   5.875  19.522  14.940
30520W        W34481   6.445  18.956  18.031
30521W        W34482   3.811  18.748  17.156
30522W        W34483   3.910  21.367  18.177
30523W        W34484   5.432  20.757  14.909
30524W        W34485   3.864  19.540  16.602
30525W        W34486   4.757  19.431  17.839
30526W        W34487   7.216  19.290  16.338
30527W        W34488   6.980  20.333  17.197
30528W        W34489   5.288  19.666  16.224
30529W        W34490   5.834  21.005  16.593
30530W        W34491   4.334  20.439  16.825
30531W        W34492   3.693  19.967  16.396
30532W        W34493   4.729  19.939  17.588
30533W        W34494   7.000  19.722  17.842
30534W        W34495   4.616  21.166  16.287
30535W        W34496   5.737  20.855  17.421
30536W        W34497   4.957  19.495  16.646
30537W        W34498   5.249  20.279  16.289
30538W        W34499   6.246  21.052  18.137
30539W        W34500   5.325  20.372  18.147
30540W        W34501   5.306  20.088  17.625
30541W        W34502   3.715  19.479  18.147
30542W        W34503   6.547  21.014  17.746
30543W        W34504   4.128  18.596  15.744
30544W        W34505   4.655  20.854  16.743
30545W        W34506   7.118  20.637  16.033
30546W        W34507   6.531  19.037  16.600
30547W        W34508   6.816  18.990  14.695
30548W        W34509   7.281  19.791  17.001
30549W        W34510   5.248  21.498  16.754
30550W        W34511   7.022  20.964  15.192
30551W        W34512   4.151  21.750  14.946
30552W        W34513   4.544  21.796  15.622
30553W        W34514   4.341  18.550  17.048
30554W        W34515   6.964  19.568  17.323
30555W        W34516   6.369  19.990  15.782
30556W        W34517   6.335  19.678  14.809
30557W        W34518   5.543  20.822  16.949
30558W        W34519   5.349  19.152  16.148
30559W        W34520   5.949  21.239  17.142
30560W        W34521   6.820  20.030  15.564
30561W        W34522   5.722  18.688  15.580
30562W        W34523   4.379  21.382  15.263
30563W        W34524   3.750  18.881  15.862
30564W        W34525   6.536  19.488  16.336
30565W        W34526   3.994  21.105  16.251
30566W        W34527   5.335  21.455  15.121
30567W        W34528   6.727  19.481  14.585
30568W        W34529   3.750  21.239  16.749
30569W        W34530   4.541  20.811  17.229
30570W        W34531   4.914  20.171  15.848
30571W        W34532   4.936  18.576  16.941
30572W        W34533   7.165  18.338  16.238
30573W        W34534   4.384  20.210  14.706
30574W        W34535   4.039  19.243  14.885
30575W        W34536   4.101  21.199  15.679
30576W        W34537   5.232  20.682  15.927
30577W        W34538   6.564  21.541  17.641
30578W        W34539   5.490  19.183  15.325
30579W        W34540   6.873  21.581  16.097
30580W        W34541   6.550  19.434  17.695
30581W        W34542   7.263  21.090  15.829
30582W        W34543   5.890  20.382  17.313
30583W        W34544   3.656  19.933  15.519
30584W        W34545   4.767  20.348  17.092
30585W        W34546   5.971  19.612  15.470
30586W        W34547   5.848  20.102  15.574
30587W        W34548   4.191  19.522  17.048
30588W        W34549   4.176  19.398  17.970
30589W        W34550   4.066  18.315  16.129
30590W        W34551   5.834  18.662  16.690
30591W        W34552   5.482  18.847  17.853
30592W        W34553   5.837  18.996  15.031
30593W        W34554   7.020  21.389  17.785
30594W        W34555   5.987  18.470  17.824
30595W        W34556   7.006  20.771  17.946
30596W        W34557   6.436  18.938  17.542
30597W        W34558   6.236  18.876  15.812
30598W        W34559   6.629  20.010  18.216
30599W        W34560   4.369  21.586  16.202
30600W        W34561   5.027  19.303  15.188
30601W        W34562   4.596  18.587  17.852
30602W        W34563   6.648  19.071  15.533
30603W        W34564   7.015  19.553  15.478
30604W        W34565   4.758  21.770  17.949
30605W        W34566   4.684  18.306  15.184
30606W        W34567   7.005  18.840  16.219
30607W        W34568   7.155  21.089  14.664
30608W        W34569   4.062  20.292  16.366
30609W        W34570   5.979  18.879  14.596
30610W        W34571   7.113  21.211  16.316
30611W        W34572   7.152  18.405  17.066
30612W        W34573   5.597  19.617  17.620
30613W        W34574   5.690  20.956  15.323
30614W        W34575   6.090  20.250  18.063
30615W        W34576   5.764  18.227  16.372
30616W        W34577   4.376  19.130  16.435
30617W        W34578   3.930  20.330  17.209
30618W        W34579   5.789  21.523  15.915
30619W        W34580   6.983  19.120  16.787
30620W        W34581   5.620  21.467  17.554
30621W        W34582   6.963  20.526  14.759
30622W        W34583   5.398  20.009  15.820
30623W        W34584   7.250  18.520  17.561
30624W        W34585   5.399  20.355  17.155
30625W        W34586   5.616  19.241  16.600
30626W        W34587   6.468  19.539  15.438
30627W        W34588   6.755  19.272  15.080
30628W        W34589   6.564  21.312  15.469
30629W        W34590   6.398  20.915  16.265
30630W        W34591   6.294  19.994  15.243
30631W        W34592   5.727  20.204  16.229
30632W        W34593   6.608  19.992  16.296
30633W        W34594   3.983  19.007  16.720
30634W        W34595   6.761  20.059  17.547
30635W        W34596   7.112  21.677  16.693
30636W        W34597   5.042  21.121  16.095
30637W        W34598   6.049  21.654  17.419
30638W        W34599   6.043  18.984  17.183
30639W        W34600   5.250  21.692  17.244
30640W        W34601   6.947  18.646  15.710
30641W        W34602   6.738  19.965  17.011
30642W        W34603   3.721  19.286  17.049
30643W        W34604   6.581  19.081  16.067
30644W        W34605   6.992  19.232  17.844
30645W        W34606   5.877  20.931  16.062
30646W        W34607   5.133  21.522  15.675
30647W        W34608   4.248  18.702  14.933
30648W        W34609   5.352  18.356  16.743
30649W        W34610   4.380  21.476  14.591
30650W        W34611   4.754  19.942  15.342
30651W        W34612   5.408  20.571  17.655
30652W        W34613   5.238  18.929  15.645
30653W        W34614   6.594  18.526  16.073
30654W        W34615   6.314  21.808  16.401
30655W        W34616   5.726  21.456  16.741
30656W        W34617   5.122  20.493  16.702
30657W        W34618   6.892  21.216  16.828
30658W        W34619   4.586  18.719  15.597
30659W        W34620   5.108  21.016  16.557
30660W        W34621   4.591  18.947  14.622
30661W        W34622   5.392  19.556  17.016
30662W        W34623   6.240  18.422  16.886
30663W        W34624   3.660  20.265  16.771
30664W        W34625   5.364  20.083  14.929
30665W        W34626   4.632  18.398  14.699
30666W        W34627   5.370  19.479  15.750
30667W        W34628   6.340  18.455  17.449
30668W        W34629   4.928  20.467  17.558
30669W        W34630   5.732  20.249  17.775
30670W        W34631   6.349  20.279  17.668
30671W        W34632   5.633  18.419  18.173
30672W        W34633   4.855  19.035  16.566
30673W        W34634   4.281  18.991  15.964
30674W        W34635   4.067  21.703  15.640
30675W        W34636   5.399  21.033  17.765
30676W        W34637   4.434  20.518  15.124
30677W        W34638   6.114  19.903  16.345
30678W        W34639   6.394  19.702  16.744
30679W        W34640   5.599  20.376  16.678
30680W        W34641   6.069  20.750  14.810
30681W        W34642   5.741  18.771  16.138
30682W        W34643   7.220  19.049  15.406
30683W        W34644   3.714  21.638  17.437
30684W        W34645   4.131  20.864  16.969
30685W        W34646   3.698  21.710  15.201
30686W        W34647   5.597  18.980  17.007
30687W        W34648   4.960  21.003  14.856
30688W        W34649   6.865  21.385  15.042
30689W        W34650   5.840  20.038  15.056
30690W        W34651   4.683  19.229  15.573
30691W        W34652   5.515  19.139  14.625
30692W        W34653   6.099  20.704  17.803
30693W        W34654   6.452  18.610  15.420
30694W        W34655   3.782  18.458  14.868
30695W        W34656   5.068  20.777  17.158
30696W        W34657   4.867  20.693  16.250
30697W        W34658   4.609  20.645  14.648
30698W        W34659   3.850  20.886  15.416
30699W        W34660   4.354  19.956  17.858
30700W        W34661   5.058  18.516  18.044
30701W        W34662   5.767  18.658  17.400
30702W        W34663   4.962  18.426  15.681
30703W        W34664   6.021  18.503  15.186
30704W        W34665   3.966  18.435  16.763
30705W        W34666   4.014  19.398  16.133
30706W        W34667   6.703  18.506  16.539
30707W        W34668   4.125  19.004  15.353
30708W        W34669   6.696  18.692  16.969
30709W        W34670   7.092  19.895  14.654
30710W        W34671   4.384  18.653  16.473
30711W        W34672   5.498  19.225  17.413
30712W        W34673   3.646  18.915  14.891
30713W        W34674   4.432  20.304  17.452
30714W        W34675   5.790  19.702  16.631
30715W        W34676   5.657  21.781  14.927
30716W        W34677   3.803  20.288  14.624
30717W        W34678   4.538  20.699  17.750
30718W        W34679   4.059  19.866  17.381
30719W        W34680   5.050  19.971  17.175
30720W        W34681   6.818  18.330  17.437
30721W        W34682   7.216  19.940  17.428
30722W        W34683   7.204  20.140  15.114
30723W        W34684   6.067  20.472  15.213
30724W        W34685   6.541  21.772  14.908
30725W        W34686   5.718  19.762  18.050
30726W        W34687   4.048  20.729  18.090
30727W        W34688   7.254  18.651  18.042
30728W        W34689   6.972  19.579  16.663
30729W        W34690   5.280  21.709  18.140
30730W        W34691   5.135  18.338  14.867
30731W        W34692   6.674  20.937  14.810
30732W        W34693   4.443  19.030  17.696
30733W        W34694   4.877  21.024  17.558
30734W        W34695   7.003  19.015  17.356
30735W        W34696   6.214  21.674  15.324
30736W        W34697   6.453  20.293  16.691
30737W        W34698   4.703  18.709  17.358
30738W        W34699   5.172  19.778  18.115
30739W        W34700   4.675  20.957  15.309
30740W        W34701   6.430  20.455  15.573
30741W        W34702   4.198  19.081  17.297
30742W        W34703   5.527  21.143  15.761
30743W        W34704   7.277  19.703  15.942
30744W        W34705   5.499  18.336  17.661
30745W        W34706   6.279  21.041  16.740
30746W        W34707   6.582  21.385  16.448
30747W        W34708   5.801  21.187  14.876
30748W        W34709   3.811  21.079  17.718
30749W        W34710   4.554  19.071  16.956
30750W        W34711   4.524  18.419  16.066
30751W        W34712   6.145  19.261  16.758
30752W        W34713   4.943  20.432  14.958
30753W        W34714   6.941  20.374  16.457
30754W        W34715   4.268  21.132  17.880
30755W        W34716   6.655  21.814  15.677
30756W        W34717   4.754  18.834  16.122
30757W        W34718   4.523  20.327  16.212
30758W        W34719   4.836  21.738  16.962
30759W        W34720   6.903  21.834  17.994
30760W        W34721   6.062  20.022  16.927
30761W        W34722   3.911  19.820  14.842
30762W        W34723   7.045  21.478  15.539
30763W        W34724   6.882  18.802  15.158
30764W        W34725   5.021  18.321  17.561
30765W        W34726   6.727  21.123  16.019
30766W        W34727   6.756  19.679  15.924
30767W        W34728   4.873  19.352  16.140
30768W        W34729   5.118  19.614  17.464
30769W        W34730   6.229  20.767  17.327
30770W        W34731   4.879  19.221  17.439
30771W        W34732   4.858  21.687  16.055
30772W        W34733   4.175  21.646  17.689
30773W        W34734   4.287  21.007  14.819
30774W        W34735   6.804  20.765  15.629
30775W        W34736   4.408  19.557  17.515
30776W        W34737   7.181  19.487  14.996
30777W        W34738   4.926  20.544  15.467
30778W        W34739   6.025  19.926  17.548
30779W        W34740   5.916  19.554  17.092
30780W        W34741   4.476  19.926  17.121
30781W        W34742   6.686  21.814  16.950
30782W        W34743   6.477  18.448  17.944
30783W        W34744   4.141  18.598  17.531
30784W        W34745   4.480  19.621  16.584
30785W        W34746   4.849  19.435  14.706
30786W        W34747   3.652  21.194  17.251
30787W        W34748   5.237  19.903  16.694
30788W        W34749   5.060  18.928  14.799
30789W        W34750   4.195  19.744  15.580
30790W        W34751   3.966  21.596  17.017
30791W        W34752   6.761  19.822  15.125
30792W        W34753   6.856  18.738  17.811
30793W        W34754   6.292  20.947  15.774
30794W        W34755   3.890  19.871  17.951
30795W        W34756   6.856  18.335  15.247
30796W        W34757   6.376  20.810  15.258
30797W        W34758   5.278  19.868  15.343
30798W        W34759   6.465  18.672  14.866
30799W        W34760   6.530  19.279  17.052
30800W        W34761   4.239  19.872  16.259
30801W        W34762   4.533  20.811  15.908
30802W        W34763   6.296  19.431  15.873
30803W        W34764   5.319  18.810  16.569
30804W        W34765   7.281  20.721  17.080
30805W        W34766   7.199  18.708  16.641
30806W        W34767   3.738  21.538  16.017
30807W        W34768   4.247  20.725  15.553
30808W        W34769   4.162  18.342  18.106
30809W        W34770   5.281  21.195  18.208
30810W        W34771   7.036  20.163  15.998
30811W        W34772   6.390  20.340  14.878
30812W        W34773   5.685  21.861  17.090
30813W        W34774   6.542  20.583  18.127
30814W        W34775   5.357  18.293  15.407
30815W        W34776   6.070  19.162  16.266
30816W        W34777   3.756  20.749  16.598
30817W        W34778   5.009  18.711  15.239
30818W        W34779   4.813  20.195  18.088
30819W        W34780   5.807  19.176  15.802
30820W        W34781   6.012  20.586  16.924
30821W        W34782   4.166  21.191  17.359
30822W        W34783   4.757  21.174  18.082
30823W        W34784   4.608  18.971  15.096
30824W        W34785   6.125  19.113  15.421
30825W        W34786   6.083  21.221  17.658
30826W        W34787   4.768  19.813  16.257
30827W        W34788   4.423  21.511  17.122
30828W        W34789   7.168  21.628  14.723
30829W        W34790   4.031  20.300  17.719
30830W        W34791   6.026  20.562  16.407
30831W        W34792   4.462  20.211  15.649
30832W        W34793   4.833  21.218  17.044
30833W        W34794   5.211  18.637  16.085
30834W        W34795   3.822  20.621  15.015
30835W        W34796   5.341  19.572  14.885
30836W        W34797   3.987  20.121  15.904
30837W        W34798   5.277  18.763  17.368
30838W        W34799   6.949  18.472  14.795
30839W        W34800   7.042  20.218  17.894
30840W        W34801   5.696  21.475  18.046
30841W        W34802   7.254  20.569  17.568
30842W        W34803   6.662  21.367  18.179
30843W        W34804   4.401  21.823  16.657
30844W        W34805   7.260  20.445  15.531
30845W        W34806   5.790  19.712  16.044
30846W        W34807   5.557  18.324  15.934
30847W        W34808   4.616  21.308  15.771
30848W        W34809   5.115  19.049  16.996
30849W        W34810   4.815  18.418  16.465
30850W        W34811   3.878  21.240  15.013
30851W        W34812   5.694  20.604  15.731
30852W        W34813   4.569  21.399  17.610
30853W        W34814   4.046  20.222  15.306
30854W        W34815   3.931  18.765  16.305
30855W        W34816   5.479  20.730  16.362
30856W        W34817   3.731  18.584  15.382
30857W        W34818   6.395  19.790  17.309
30858W        W34819   6.272  19.176  14.881
30859W        W34820   6.789  20.848  16.529
30860W        W34821   5.450  21.332  16.360
30861W        W34822   4.862  21.436  15.271
30862W        W34823   6.144  18.339  14.701
30863W        W34824   3.944  21.599  16.442
30864W        W34825   6.141  19.357  18.077
30865W        W34826   4.124  18.887  18.076
30866W        W34827   3.855  19.487  15.409
30867W        W34828   4.546  19.476  15.134
30868W        W34829   6.309  19.803  17.951
30869W        W34830   4.652  20.084  16.660
30870W        W34831   6.126  18.370  15.780
30871W        W34832   5.257  21.801  16.283
30872W        W34833   6.471  21.263  17.220
30873W        W34834   6.055  21.412  16.331
30874W        W34835   6.074  20.392  15.925
30875W        W34836   5.536  18.617  14.996
30876W        W34837   7.217  18.245  15.718
30877W        W34838   4.905  19.880  14.881
30878W        W34839   7.071  19.217  15.871
30879W        W34840   5.763  20.387  14.748
30880W        W34841   6.699  20.587  17.496
30881W        W34842   6.353  21.288  14.963
30882W        W34843   4.968  18.963  17.869
30883W        W34844   4.788  19.547  17.110
30884W        W34845   6.880  21.042  17.387
30885W        W34846   5.980  18.992  17.764
30886W        W34847   3.824  19.463  17.541
30887W        W34848   5.584  19.940  17.267
30888W        W34849   3.941  20.698  15.924
30889W        W34850   4.088  19.995  16.814
30890W        W34851   6.405  20.281  17.164
30891W        W34852   6.177  21.661  17.975
30892W        W34853   6.073  19.400  17.528
30893W        W34854   6.350  21.454  15.933
30894W        W34855   5.352  21.174  17.256
30895W        W34856   4.837  21.529  16.525
30896W        W34857   6.642  20.700  16.944
30897W        W34858   5.692  20.772  18.081
30898W        W34859   4.297  20.725  16.420
30899W        W34860   6.643  20.484  16.065
30900W        W34861   6.284  21.550  16.816
30901W        W34862   4.262  21.279  16.686
30902W        W34863   5.283  19.331  17.896
30903W        W34864   5.734  21.497  15.407
30904W        W34865   5.042  20.752  18.045
30905W        W34866   5.168  20.990  15.422
30906W        W34867   4.389  19.730  14.681
30907W        W34868   3.728  21.816  21.580
30908W        W34869   4.104  20.709  21.103
30909W        W34870   6.809  20.439  18.873
30910W        W34871   6.939  21.524  20.900
30911W        W34872   4.857  21.515  18.426
30912W        W34873   4.940  19.667  19.409
30913W        W34874   4.455  19.515  19.573
30914W        W34875   5.446  20.330  19.007
30915W        W34876   5.121  21.422  21.362
30916W        W34877   3.770  18.983  21.325
30917W        W34878   4.532  18.263  21.127
30918W        W34879   6.226  18.651  20.014
30919W        W34880   5.875  19.522  18.584
30920W        W34881   6.445  18.956  21.675
30921W        W34882   3.811  18.748  20.800
30922W        W34883   3.910  21.367  21.821
30923W        W34884   5.432  20.757  18.553
30924W        W34885   3.864  19.540  20.246
30925W        W34886   4.757  19.431  21.483
30926W        W34887   7.216  19.290  19.982
30927W        W34888   6.980  20.333  20.841
30928W        W34889   5.288  19.666  19.868
30929W        W34890   5.834  21.005  20.237
30930W        W34891   4.334  20.439  20.469
30931W        W34892   3.693  19.967  20.040
30932W        W34893   4.729  19.939  21.232
30933W        W34894   7.000  19.722  21.486
30934W        W34895   4.616  21.166  19.931
30935W        W34896   5.737  20.855  21.065
30936W        W34897   4.957  19.495  20.290
30937W        W34898   5.249  20.279  19.933
30938W        W34899   6.246  21.052  21.781
30939W        W34900   5.325  20.372  21.791
30940W        W34901   5.306  20.088  21.269
30941W        W34902   3.715  19.479  21.791
30942W        W34903   6.547  21.014  21.390
30943W        W34904   4.128  18.596  19.388
30944W        W34905   4.655  20.854  20.387
30945W        W34906   7.118  20.637  19.677
30946W        W34907   6.531  19.037  20.244
30947W        W34908   6.816  18.990  18.339
30948W        W34909   7.281  19.791  20.645
30949W        W34910   5.248  21.498  20.398
30950W        W34911   7.022  20.964  18.836
30951W        W34912   4.151  21.750  18.590
30952W        W34913   4.544  21.796  19.266
30953W        W34914   4.341  18.550  20.692
30954W        W34915   6.964  19.568  20.967
30955W        W34916   6.369  19.990  19.426
30956W        W34917   6.335  19.678  18.453
30957W        W34918   5.543  20.822  20.593
30958W        W34919   5.349  19.152  19.792
30959W        W34920   5.949  21.239  20.786
30960W        W34921   6.820  20.030  19.208
30961W        W34922   5.722  18.688  19.224
30962W        W34923   4.379  21.382  18.907
30963W        W34924   3.750  18.881  19.506
30964W        W34925   6.536  19.488  19.980
30965W        W34926   3.994  21.105  19.895
30966W        W34927   5.335  21.455  18.765
30967W        W34928   6.727  19.481  18.229
30968W        W34929   3.750  21.239  20.393
30969W        W34930   4.541  20.811  20.873
30970W        W34931   4.914  20.171  19.492
30971W        W34932   4.936  18.576  20.585
30972W        W34933   7.165  18.338  19.882
30973W        W34934   4.384  20.210  18.350
30974W        W34935   4.039  19.243  18.529
30975W        W34936   4.101  21.199  19.323
30976W        W34937   5.232  20.682  19.571
30977W        W34938   6.564  21.541  21.285
30978W        W34939   5.490  19.183  18.969
30979W        W34940   6.873  21.581  19.741
30980W        W34941   6.550  19.434  21.339
30981W        W34942   7.263  21.090  19.473
30982W        W34943   5.890  20.382  20.957
30983W        W34944   3.656  19.933  19.163
30984W        W34945   4.767  20.348  20.736
30985W        W34946   5.971  19.612  19.114
30986W        W34947   5.848  20.102  19.218
30987W        W34948   4.191  19.522  20.692
30988W        W34949   4.176  19.398  21.614
30989W        W34950   4.066  18.315  19.773
30990W        W34951   5.834  18.662  20.334
30991W        W34952   5.482  18.847  21.497
30992W        W34953   5.837  18.996  18.675
30993W        W34954   7.020  21.389  21.429
30994W        W34955   5.987  18.470  21.468
30995W        W34956   7.006  20.771  21.590
30996W        W34957   6.436  18.938  21.186
30997W        W34958   6.236  18.876  19.456
30998W        W34959   6.629  20.010  21.860
30999W        W34960   4.369  21.586  19.846
31000W        W34961   5.027  19.303  18.832
31001W        W34962   4.596  18.587  21.496
31002W        W34963   6.648  19.071  19.177
31003W        W34964   7.015  19.553  19.122
31004W        W34965   4.758  21.770  21.593
31005W        W34966   4.684  18.306  18.828
31006W        W34967   7.005  18.840  19.863
31007W        W34968   7.155  21.089  18.308
31008W        W34969   4.062  20.292  20.010
31009W        W34970   5.979  18.879  18.240
31010W        W34971   7.113  21.211  19.960
31011W        W34972   7.152  18.405  20.710
31012W        W34973   5.597  19.617  21.264
31013W        W34974   5.690  20.956  18.967
31014W        W34975   6.090  20.250  21.707
31015W        W34976   5.764  18.227  20.016
31016W        W34977   4.376  19.130  20.079
31017W        W34978   3.930  20.330  20.853
31018W        W34979   5.789  21.523  19.559
31019W        W34980   6.983  19.120  20.431
31020W        W34981   5.620  21.467  21.198
31021W        W34982   6.963  20.526  18.403
31022W        W34983   5.398  20.009  19.464
31023W        W34984   7.250  18.520  21.205
31024W        W34985   5.399  20.355  20.799
31025W        W34986   5.616  19.241  20.244
31026W        W34987   6.468  19.539  19.082
31027W        W34988   6.755  19.272  18.724
31028W        W34989   6.564  21.312  19.113
31029W        W34990   6.398  20.915  19.909
31030W        W34991   6.294  19.994  18.887
31031W        W34992   5.727  20.204  19.873
31032W        W34993   6.608  19.992  19.940
31033W        W34994   3.983  19.007  20.364
31034W        W34995   6.761  20.059  21.191
31035W        W34996   7.112  21.677  20.337
31036W        W34997   5.042  21.121  19.739
31037W        W34998   6.049  21.654  21.063
31038W        W34999   6.043  18.984  20.827
31039W        W35000   5.250  21.692  20.888
31040W        W35001   6.947  18.646  19.354
31041W        W35002   6.738  19.965  20.655
31042W        W35003   3.721  19.286  20.693
31043W        W35004   6.581  19.081  19.711
31044W        W35005   6.992  19.232  21.488
31045W        W35006   5.877  20.931  19.706
31046W        W35007   5.133  21.522  19.319
31047W        W35008   4.248  18.702  18.577
31048W        W35009   5.352  18.356  20.387
31049W        W35010   4.380  21.476  18.235
31050W        W35011   4.754  19.942  18.986
31051W        W35012   5.408  20.571  21.299
31052W        W35013   5.238  18.929  19.289
31053W        W35014   6.594  18.526  19.717
31054W        W35015   6.314  21.808  20.045
31055W        W35016   5.726  21.456  20.385
31056W        W35017   5.122  20.493  20.346
31057W        W35018   6.892  21.216  20.472
31058W        W35019   4.586  18.719  19.241
31059W        W35020   5.108  21.016  20.201
31060W        W35021   4.591  18.947  18.266
31061W        W35022   5.392  19.556  20.660
31062W        W35023   6.240  18.422  20.530
31063W        W35024   3.660  20.265  20.415
31064W        W35025   5.364  20.083  18.573
31065W        W35026   4.632  18.398  18.343
31066W        W35027   5.370  19.479  19.394
31067W        W35028   6.340  18.455  21.093
31068W        W35029   4.928  20.467  21.202
31069W        W35030   5.732  20.249  21.419
31070W        W35031   6.349  20.279  21.312
31071W        W35032   5.633  18.419  21.817
31072W        W35033   4.855  19.035  20.210
31073W        W35034   4.281  18.991  19.608
31074W        W35035   4.067  21.703  19.284
31075W        W35036   5.399  21.033  21.409
31076W        W35037   4.434  20.518  18.768
31077W        W35038   6.114  19.903  19.989
31078W        W35039   6.394  19.702  20.388
31079W        W35040   5.599  20.376  20.322
31080W        W35041   6.069  20.750  18.454
31081W        W35042   5.741  18.771  19.782
31082W        W35043   7.220  19.049  19.050
31083W        W35044   3.714  21.638  21.081
31084W        W35045   4.131  20.864  20.613
31085W        W35046   3.698  21.710  18.845
31086W        W35047   5.597  18.980  20.651
31087W        W35048   4.960  21.003  18.500
31088W        W35049   6.865  21.385  18.686
31089W        W35050   5.840  20.038  18.700
31090W        W35051   4.683  19.229  19.217
31091W        W35052   5.515  19.139  18.269
31092W        W35053   6.099  20.704  21.447
31093W        W35054   6.452  18.610  19.064
31094W        W35055   3.782  18.458  18.512
31095W        W35056   5.068  20.777  20.802
31096W        W35057   4.867  20.693  19.894
31097W        W35058   4.609  20.645  18.292
31098W        W35059   3.850  20.886  19.060
31099W        W35060   4.354  19.956  21.502
31100W        W35061   5.058  18.516  21.688
31101W        W35062   5.767  18.658  21.044
31102W        W35063   4.962  18.426  19.325
31103W        W35064   6.021  18.503  18.830
31104W        W35065   3.966  18.435  20.407
31105W        W35066   4.014  19.398  19.777
31106W        W35067   6.703  18.506  20.183
31107W        W35068   4.125  19.004  18.997
31108W        W35069   6.696  18.692  20.613
31109W        W35070   7.092  19.895  18.298
31110W        W35071   4.384  18.653  20.117
31111W        W35072   5.498  19.225  21.057
31112W        W35073   3.646  18.915  18.535
31113W        W35074   4.432  20.304  21.096
31114W        W35075   5.790  19.702  20.275
31115W        W35076   5.657  21.781  18.571
31116W        W35077   3.803  20.288  18.268
31117W        W35078   4.538  20.699  21.394
31118W        W35079   4.059  19.866  21.025
31119W        W35080   5.050  19.971  20.819
31120W        W35081   6.818  18.330  21.081
31121W        W35082   7.216  19.940  21.072
31122W        W35083   7.204  20.140  18.758
31123W        W35084   6.067  20.472  18.857
31124W        W35085   6.541  21.772  18.552
31125W        W35086   5.718  19.762  21.694
31126W        W35087   4.048  20.729  21.734
31127W        W35088   7.254  18.651  21.686
31128W        W35089   6.972  19.579  20.307
31129W        W35090   5.280  21.709  21.784
31130W        W35091   5.135  18.338  18.511
31131W        W35092   6.674  20.937  18.454
31132W        W35093   4.443  19.030  21.340
31133W        W35094   4.877  21.024  21.202
31134W        W35095   7.003  19.015  21.000
31135W        W35096   6.214  21.674  18.968
31136W        W35097   6.453  20.293  20.335
31137W        W35098   4.703  18.709  21.002
31138W        W35099   5.172  19.778  21.759
31139W        W35100   4.675  20.957  18.953
31140W        W35101   6.430  20.455  19.217
31141W        W35102   4.198  19.081  20.941
31142W        W35103   5.527  21.143  19.405
31143W        W35104   7.277  19.703  19.586
31144W        W35105   5.499  18.336  21.305
31145W        W35106   6.279  21.041  20.384
31146W        W35107   6.582  21.385  20.092
31147W        W35108   5.801  21.187  18.520
31148W        W35109   3.811  21.079  21.362
31149W        W35110   4.554  19.071  20.600
31150W        W35111   4.524  18.419  19.710
31151W        W35112   6.145  19.261  20.402
31152W        W35113   4.943  20.432  18.602
31153W        W35114   6.941  20.374  20.101
31154W        W35115   4.268  21.132  21.524
31155W        W35116   6.655  21.814  19.321
31156W        W35117   4.754  18.834  19.766
31157W        W35118   4.523  20.327  19.856
31158W        W35119   4.836  21.738  20.606
31159W        W35120   6.903  21.834  21.638
31160W        W35121   6.062  20.022  20.571
31161W        W35122   3.911  19.820  18.486
31162W        W35123   7.045  21.478  19.183
31163W        W35124   6.882  18.802  18.802
31164W        W35125   5.021  18.321  21.205
31165W        W35126   6.727  21.123  19.663
31166W        W35127   6.756  19.679  19.568
31167W        W35128   4.873  19.352  19.784
31168W        W35129   5.118  19.614  21.108
31169W        W35130   6.229  20.767  20.971
31170W        W35131   4.879  19.221  21.083
31171W        W35132   4.858  21.687  19.699
31172W        W35133   4.175  21.646  21.333
31173W        W35134   4.287  21.007  18.463
31174W        W35135   6.804  20.765  19.273
31175W        W35136   4.408  19.557  21.159
31176W        W35137   7.181  19.487  18.640
31177W        W35138   4.926  20.544  19.111
31178W        W35139   6.025  19.926  21.192
31179W        W35140   5.916  19.554  20.736
31180W        W35141   4.476  19.926  20.765
31181W        W35142   6.686  21.814  20.594
31182W        W35143   6.477  18.448  21.588
31183W        W35144   4.141  18.598  21.175
31184W        W35145   4.480  19.621  20.228
31185W        W35146   4.849  19.435  18.350
31186W        W35147   3.652  21.194  20.895
31187W        W35148   5.237  19.903  20.338
31188W        W35149   5.060  18.928  18.443
31189W        W35150   4.195  19.744  19.224
31190W        W35151   3.966  21.596  20.661
31191W        W35152   6.761  19.822  18.769
31192W        W35153   6.856  18.738  21.455
31193W        W35154   6.292  20.947  19.418
31194W        W35155   3.890  19.871  21.595
31195W        W35156   6.856  18.335  18.891
31196W        W35157   6.376  20.810  18.902
31197W        W35158   5.278  19.868  18.987
31198W        W35159   6.465  18.672  18.510
31199W        W35160   6.530  19.279  20.696
31200W        W35161   4.239  19.872  19.903
31201W        W35162   4.533  20.811  19.552
31202W        W35163   6.296  19.431  19.517
31203W        W35164   5.319  18.810  20.213
31204W        W35165   7.281  20.721  20.724
31205W        W35166   7.199  18.708  20.285
31206W        W35167   3.738  21.538  19.661
31207W        W35168   4.247  20.725  19.197
31208W        W35169   4.162  18.342  21.750
31209W        W35170   5.281  21.195  21.852
31210W        W35171   7.036  20.163  19.642
31211W        W35172   6.390  20.340  18.522
31212W        W35173   5.685  21.861  20.734
31213W        W35174   6.542  20.583  21.771
31214W        W35175   5.357  18.293  19.051
31215W        W35176   6.070  19.162  19.910
31216W        W35177   3.756  20.749  20.242
31217W        W35178   5.009  18.711  18.883
31218W        W35179   4.813  20.195  21.732
31219W        W35180   5.807  19.176  19.446
31220W        W35181   6.012  20.586  20.568
31221W        W35182   4.166  21.191  21.003
31222W        W35183   4.757  21.174  21.726
31223W        W35184   4.608  18.971  18.740
31224W        W35185   6.125  19.113  19.065
31225W        W35186   6.083  21.221  21.302
31226W        W35187   4.768  19.813  19.901
31227W        W35188   4.423  21.511  20.766
31228W        W35189   7.168  21.628  18.367
31229W        W35190   4.031  20.300  21.363
31230W        W35191   6.026  20.562  20.051
31231W        W35192   4.462  20.211  19.293
31232W        W35193   4.833  21.218  20.688
31233W        W35194   5.211  18.637  19.729
31234W        W35195   3.822  20.621  18.659
31235W        W35196   5.341  19.572  18.529
31236W        W35197   3.987  20.121  19.548
31237W        W35198   5.277  18.763  21.012
31238W        W35199   6.949  18.472  18.439
31239W        W35200   7.042  20.218  21.538
31240W        W35201   5.696  21.475  21.690
31241W        W35202   7.254  20.569  21.212
31242W        W35203   6.662  21.367  21.823
31243W        W35204   4.401  21.823  20.301
31244W        W35205   7.260  20.445  19.175
31245W        W35206   5.790  19.712  19.688
31246W        W35207   5.557  18.324  19.578
31247W        W35208   4.616  21.308  19.415
31248W        W35209   5.115  19.049  20.640
31249W        W35210   4.815  18.418  20.109
31250W        W35211   3.878  21.240  18.657
31251W        W35212   5.694  20.604  19.375
31252W        W35213   4.569  21.399  21.254
31253W        W35214   4.046  20.222  18.950
31254W        W35215   3.931  18.765  19.949
31255W        W35216   5.479  20.730  20.006
31256W        W35217   3.731  18.584  19.026
31257W        W35218   6.395  19.790  20.953
31258W        W35219   6.272  19.176  18.525
31259W        W35220   6.789  20.848  20.173
31260W        W35221   5.450  21.332  20.004
31261W        W35222   4.862  21.436  18.915
31262W        W35223   6.144  18.339  18.345
31263W        W35224   3.944  21.599  20.086
31264W        W35225   6.141  19.357  21.721
31265W        W35226   4.124  18.887  21.720
31266W        W35227   3.855  19.487  19.053
31267W        W35228   4.546  19.476  18.778
31268W        W35229   6.309  19.803  21.595
31269W        W35230   4.652  20.084  20.304
31270W        W35231   6.126  18.370  19.424
31271W        W35232   5.257  21.801  19.927
31272W        W35233   6.471  21.263  20.864
31273W        W35234   6.055  21.412  19.975
31274W        W35235   6.074  20.392  19.569
31275W        W35236   5.536  18.617  18.640
31276W        W35237   7.217  18.245  19.362
31277W        W35238   4.905  19.880  18.525
31278W        W35239   7.071  19.217  19.515
31279W        W35240   5.763  20.387  18.392
31280W        W35241   6.699  20.587  21.140
31281W        W35242   6.353  21.288  18.607
31282W        W35243   4.968  18.963  21.513
31283W        W35244   4.788  19.547  20.754
31284W        W35245   6.880  21.042  21.031
31285W        W35246   5.980  18.992  21.408
31286W        W35247   3.824  19.463  21.185
31287W        W35248   5.584  19.940  20.911
31288W        W35249   3.941  20.698  19.568
31289W        W35250   4.088  19.995  20.458
31290W        W35251   6.405  20.281  20.808
31291W        W35252   6.177  21.661  21.619
31292W        W35253   6.073  19.400  21.172
31293W        W35254   6.350  21.454  19.577
31294W        W35255   5.352  21.174  20.900
31295W        W35256   4.837  21.529  20.169
31296W        W35257   6.642  20.700  20.588
31297W        W35258   5.692  20.772  21.725
31298W        W35259   4.297  20.725  20.064
31299W        W35260   6.643  20.484  19.709
31300W        W35261   6.284  21.550  20.460
31301W        W35262   4.262  21.279  20.330
31302W        W35263   5.283  19.331  21.540
31303W        W35264   5.734  21.497  19.051
31304W        W35265   5.042  20.752  21.689
31305W        W35266   5.168  20.990  19.066
31306W        W35267   4.389  19.730  18.325
31307W        W35268   6.809  20.439  22.518
31308W        W35269   4.857  21.515  22.071
31309W        W35270   4.940  19.667  23.054
31310W        W35271   4.455  19.515  23.218
31311W        W35272   5.446  20.330  22.652
31312W        W35273   5.875  19.522  22.229
31313W        W35274   5.432  20.757  22.198
31314W        W35275   4.128  18.596  23.033
31315W        W35276   6.816  18.990  21.984
31316W        W35277   7.022  20.964  22.481
31317W        W35278   4.151  21.750  22.235
31318W        W35279   4.544  21.796  22.911
31319W        W35280   6.369  19.990  23.071
31320W        W35281   6.335  19.678  22.098
31321W        W35282   6.820  20.030  22.853
31322W        W35283   5.722  18.688  22.869
31323W        W35284   4.379  21.382  22.552
31324W        W35285   5.335  21.455  22.410
31325W        W35286   6.727  19.481  21.874
31326W        W35287   4.914  20.171  23.137
31327W        W35288   4.384  20.210  21.995
31328W        W35289   4.039  19.243  22.174
31329W        W35290   4.101  21.199  22.968
31330W        W35291   5.232  20.682  23.216
31331W        W35292   5.490  19.183  22.614
31332W        W35293   3.656  19.933  22.808
31333W        W35294   5.971  19.612  22.759
31334W        W35295   5.848  20.102  22.863
31335W        W35296   5.837  18.996  22.320
31336W        W35297   6.236  18.876  23.101
31337W        W35298   5.027  19.303  22.477
31338W        W35299   6.648  19.071  22.822
31339W        W35300   7.015  19.553  22.767
31340W        W35301   4.684  18.306  22.473
31341W        W35302   7.155  21.089  21.953
31342W        W35303   5.979  18.879  21.885
31343W        W35304   5.690  20.956  22.612
31344W        W35305   5.789  21.523  23.204
31345W        W35306   6.963  20.526  22.048
31346W        W35307   5.398  20.009  23.109
31347W        W35308   6.468  19.539  22.727
31348W        W35309   6.755  19.272  22.369
31349W        W35310   6.564  21.312  22.758
31350W        W35311   6.294  19.994  22.532
31351W        W35312   6.947  18.646  22.999
31352W        W35313   5.133  21.522  22.964
31353W        W35314   4.248  18.702  22.222
31354W        W35315   4.380  21.476  21.880
31355W        W35316   4.754  19.942  22.631
31356W        W35317   5.238  18.929  22.934
31357W        W35318   4.586  18.719  22.886
31358W        W35319   4.591  18.947  21.911
31359W        W35320   5.364  20.083  22.218
31360W        W35321   4.632  18.398  21.988
31361W        W35322   5.370  19.479  23.039
31362W        W35323   4.281  18.991  23.253
31363W        W35324   4.067  21.703  22.929
31364W        W35325   4.434  20.518  22.413
31365W        W35326   6.069  20.750  22.099
31366W        W35327   7.220  19.049  22.695
31367W        W35328   3.698  21.710  22.490
31368W        W35329   4.960  21.003  22.145
31369W        W35330   6.865  21.385  22.331
31370W        W35331   5.840  20.038  22.345
31371W        W35332   4.683  19.229  22.862
31372W        W35333   5.515  19.139  21.914
31373W        W35334   6.452  18.610  22.709
31374W        W35335   3.782  18.458  22.157
31375W        W35336   4.609  20.645  21.937
31376W        W35337   3.850  20.886  22.705
31377W        W35338   4.962  18.426  22.970
31378W        W35339   6.021  18.503  22.475
31379W        W35340   4.125  19.004  22.642
31380W        W35341   7.092  19.895  21.943
31381W        W35342   3.646  18.915  22.180
31382W        W35343   5.657  21.781  22.216
31383W        W35344   3.803  20.288  21.913
31384W        W35345   7.204  20.140  22.403
31385W        W35346   6.067  20.472  22.502
31386W        W35347   6.541  21.772  22.197
31387W        W35348   5.135  18.338  22.156
31388W        W35349   6.674  20.937  22.099
31389W        W35350   6.214  21.674  22.613
31390W        W35351   4.675  20.957  22.598
31391W        W35352   6.430  20.455  22.862
31392W        W35353   5.527  21.143  23.050
31393W        W35354   7.277  19.703  23.231
31394W        W35355   5.801  21.187  22.165
31395W        W35356   4.943  20.432  22.247
31396W        W35357   6.655  21.814  22.966
31397W        W35358   3.911  19.820  22.131
31398W        W35359   7.045  21.478  22.828
31399W        W35360   6.882  18.802  22.447
31400W        W35361   6.756  19.679  23.213
31401W        W35362   4.287  21.007  22.108
31402W        W35363   6.804  20.765  22.918
31403W        W35364   7.181  19.487  22.285
31404W        W35365   4.926  20.544  22.756
31405W        W35366   4.849  19.435  21.995
31406W        W35367   5.060  18.928  22.088
31407W        W35368   4.195  19.744  22.869
31408W        W35369   6.761  19.822  22.414
31409W        W35370   6.292  20.947  23.063
31410W        W35371   6.856  18.335  22.536
31411W        W35372   6.376  20.810  22.547
31412W        W35373   5.278  19.868  22.632
31413W        W35374   6.465  18.672  22.155
31414W        W35375   4.533  20.811  23.197
31415W        W35376   6.296  19.431  23.162
31416W        W35377   3.738  21.538  23.306
31417W        W35378   4.247  20.725  22.842
31418W        W35379   7.036  20.163  23.287
31419W        W35380   6.390  20.340  22.167
31420W        W35381   5.357  18.293  22.696
31421W        W35382   5.009  18.711  22.528
31422W        W35383   5.807  19.176  23.091
31423W        W35384   4.608  18.971  22.385
31424W        W35385   6.125  19.113  22.710
31425W        W35386   7.168  21.628  22.012
31426W        W35387   3.822  20.621  22.304
31427W        W35388   5.341  19.572  22.174
31428W        W35389   3.987  20.121  23.193
31429W        W35390   6.949  18.472  22.084
31430W        W35391   7.260  20.445  22.820
31431W        W35392   5.557  18.324  23.223
31432W        W35393   4.616  21.308  23.060
31433W        W35394   3.878  21.240  22.302
31434W        W35395   5.694  20.604  23.020
31435W        W35396   4.046  20.222  22.595
31436W        W35397   3.731  18.584  22.671
31437W        W35398   6.272  19.176  22.170
31438W        W35399   4.862  21.436  22.560
31439W        W35400   6.144  18.339  21.990
31440W        W35401   3.855  19.487  22.698
31441W        W35402   4.546  19.476  22.423
31442W        W35403   6.074  20.392  23.214
31443W        W35404   5.536  18.617  22.285
31444W        W35405   7.217  18.245  23.007
31445W        W35406   4.905  19.880  22.170
31446W        W35407   7.071  19.217  23.160
31447W        W35408   5.763  20.387  22.037
31448W        W35409   6.353  21.288  22.252
31449W        W35410   3.941  20.698  23.213
31450W        W35411   6.350  21.454  23.222
31451W        W35412   5.734  21.497  22.696
31452W        W35413   5.168  20.990  22.711
31453W        W35414   4.389  19.730  21.970
31454W        W35415   3.770  22.628   3.104
31455W        W35416   4.532  21.908   2.906
31456W        W35417   6.226  22.296   1.793
31457W        W35418   5.875  23.167   0.363
31458W        W35419   6.445  22.601   3.454
31459W        W35420   3.811  22.393   2.579
31460W        W35421   4.757  23.076   3.262
31461W        W35422   7.216  22.935   1.761
31462W        W35423   4.957  23.140   2.069
31463W        W35424   3.715  23.124   3.570
31464W        W35425   4.128  22.241   1.167
31465W        W35426   6.531  22.682   2.023
31466W        W35427   6.816  22.635   0.118
31467W        W35428   4.341  22.195   2.471
31468W        W35429   6.964  23.213   2.746
31469W        W35430   5.349  22.797   1.571
31470W        W35431   5.722  22.333   1.003
31471W        W35432   3.750  22.526   1.285
31472W        W35433   6.536  23.133   1.759
31473W        W35434   6.727  23.126   0.008
31474W        W35435   4.936  22.221   2.364
31475W        W35436   7.165  21.983   1.661
31476W        W35437   4.039  22.888   0.308
31477W        W35438   5.490  22.828   0.748
31478W        W35439   6.550  23.079   3.118
31479W        W35440   5.971  23.257   0.893
31480W        W35441   4.191  23.167   2.471
31481W        W35442   4.066  21.960   1.552
31482W        W35443   5.834  22.307   2.113
31483W        W35444   5.482  22.492   3.276
31484W        W35445   5.837  22.641   0.454
31485W        W35446   5.987  22.115   3.247
31486W        W35447   6.436  22.583   2.965
31487W        W35448   6.236  22.521   1.235
31488W        W35449   5.027  22.948   0.611
31489W        W35450   4.596  22.232   3.275
31490W        W35451   6.648  22.716   0.956
31491W        W35452   7.015  23.198   0.901
31492W        W35453   4.684  21.951   0.607
31493W        W35454   7.005  22.485   1.642
31494W        W35455   5.979  22.524   0.019
31495W        W35456   7.152  22.050   2.489
31496W        W35457   5.764  21.872   1.795
31497W        W35458   4.376  22.775   1.858
31498W        W35459   6.983  22.765   2.210
31499W        W35460   7.250  22.165   2.984
31500W        W35461   5.616  22.886   2.023
31501W        W35462   6.755  22.917   0.503
31502W        W35463   3.983  22.652   2.143
31503W        W35464   6.043  22.629   2.606
31504W        W35465   6.947  22.291   1.133
31505W        W35466   3.721  22.931   2.472
31506W        W35467   6.581  22.726   1.490
31507W        W35468   6.992  22.877   3.267
31508W        W35469   4.248  22.347   0.356
31509W        W35470   5.352  22.001   2.166
31510W        W35471   5.238  22.574   1.068
31511W        W35472   6.594  22.171   1.496
31512W        W35473   4.586  22.364   1.020
31513W        W35474   4.591  22.592   0.045
31514W        W35475   5.392  23.201   2.439
31515W        W35476   6.240  22.067   2.309
31516W        W35477   4.632  22.043   0.122
31517W        W35478   5.370  23.124   1.173
31518W        W35479   6.340  22.100   2.872
31519W        W35480   5.633  22.064   3.596
31520W        W35481   4.855  22.680   1.989
31521W        W35482   4.281  22.636   1.387
31522W        W35483   5.741  22.416   1.561
31523W        W35484   7.220  22.694   0.829
31524W        W35485   5.597  22.625   2.430
31525W        W35486   4.683  22.874   0.996
31526W        W35487   5.515  22.784   0.048
31527W        W35488   6.452  22.255   0.843
31528W        W35489   3.782  22.103   0.291
31529W        W35490   5.058  22.161   3.467
31530W        W35491   5.767  22.303   2.823
31531W        W35492   4.962  22.071   1.104
31532W        W35493   6.021  22.148   0.609
31533W        W35494   3.966  22.080   2.186
31534W        W35495   6.703  22.151   1.962
31535W        W35496   4.125  22.649   0.776
31536W        W35497   6.696  22.337   2.392
31537W        W35498   4.384  22.298   1.896
31538W        W35499   5.498  22.870   2.836
31539W        W35500   3.646  22.560   0.314
31540W        W35501   6.818  21.975   2.860
31541W        W35502   7.254  22.296   3.465
31542W        W35503   6.972  23.224   2.086
31543W        W35504   5.135  21.983   0.290
31544W        W35505   4.443  22.675   3.119
31545W        W35506   7.003  22.660   2.779
31546W        W35507   4.703  22.354   2.781
31547W        W35508   4.198  22.726   2.720
31548W        W35509   5.499  21.981   3.084
31549W        W35510   4.554  22.716   2.379
31550W        W35511   4.524  22.064   1.489
31551W        W35512   6.145  22.906   2.181
31552W        W35513   4.754  22.479   1.545
31553W        W35514   6.882  22.447   0.581
31554W        W35515   5.021  21.966   2.984
31555W        W35516   4.873  22.997   1.563
31556W        W35517   4.879  22.866   2.862
31557W        W35518   7.181  23.132   0.419
31558W        W35519   5.916  23.199   2.515
31559W        W35520   6.477  22.093   3.367
31560W        W35521   4.141  22.243   2.954
31561W        W35522   4.480  23.266   2.007
31562W        W35523   4.849  23.080   0.129
31563W        W35524   5.060  22.573   0.222
31564W        W35525   6.856  22.383   3.234
31565W        W35526   6.856  21.980   0.670
31566W        W35527   6.465  22.317   0.289
31567W        W35528   6.530  22.924   2.475
31568W        W35529   5.319  22.455   1.992
31569W        W35530   7.199  22.353   2.064
31570W        W35531   4.162  21.987   3.529
31571W        W35532   5.357  21.938   0.830
31572W        W35533   6.070  22.807   1.689
31573W        W35534   5.009  22.356   0.662
31574W        W35535   5.807  22.821   1.225
31575W        W35536   4.608  22.616   0.519
31576W        W35537   6.125  22.758   0.844
31577W        W35538   5.211  22.282   1.508
31578W        W35539   5.341  23.217   0.308
31579W        W35540   5.277  22.408   2.791
31580W        W35541   6.949  22.117   0.218
31581W        W35542   5.557  21.969   1.357
31582W        W35543   5.115  22.694   2.419
31583W        W35544   4.815  22.063   1.888
31584W        W35545   3.931  22.410   1.728
31585W        W35546   3.731  22.229   0.805
31586W        W35547   6.272  22.821   0.304
31587W        W35548   6.144  21.984   0.124
31588W        W35549   6.141  23.002   3.500
31589W        W35550   4.124  22.532   3.499
31590W        W35551   3.855  23.132   0.832
31591W        W35552   6.126  22.015   1.203
31592W        W35553   5.536  22.262   0.419
31593W        W35554   7.217  21.890   1.141
31594W        W35555   7.071  22.862   1.294
31595W        W35556   4.968  22.608   3.292
31596W        W35557   4.788  23.192   2.533
31597W        W35558   5.980  22.637   3.187
31598W        W35559   3.824  23.108   2.964
31599W        W35560   6.073  23.045   2.951
31600W        W35561   5.283  22.976   3.319
31601W        W35562   3.770  22.628   6.748
31602W        W35563   4.532  21.908   6.550
31603W        W35564   6.226  22.296   5.437
31604W        W35565   5.875  23.167   4.007
31605W        W35566   6.445  22.601   7.098
31606W        W35567   3.811  22.393   6.223
31607W        W35568   4.757  23.076   6.906
31608W        W35569   7.216  22.935   5.405
31609W        W35570   4.957  23.140   5.713
31610W        W35571   3.715  23.124   7.214
31611W        W35572   4.128  22.241   4.811
31612W        W35573   6.531  22.682   5.667
31613W        W35574   6.816  22.635   3.762
31614W        W35575   4.341  22.195   6.115
31615W        W35576   6.964  23.213   6.390
31616W        W35577   5.349  22.797   5.215
31617W        W35578   5.722  22.333   4.647
31618W        W35579   3.750  22.526   4.929
31619W        W35580   6.536  23.133   5.403
31620W        W35581   6.727  23.126   3.652
31621W        W35582   4.936  22.221   6.008
31622W        W35583   7.165  21.983   5.305
31623W        W35584   4.039  22.888   3.952
31624W        W35585   5.490  22.828   4.392
31625W        W35586   6.550  23.079   6.762
31626W        W35587   5.971  23.257   4.537
31627W        W35588   4.191  23.167   6.115
31628W        W35589   4.066  21.960   5.196
31629W        W35590   5.834  22.307   5.757
31630W        W35591   5.482  22.492   6.920
31631W        W35592   5.837  22.641   4.098
31632W        W35593   5.987  22.115   6.891
31633W        W35594   6.436  22.583   6.609
31634W        W35595   6.236  22.521   4.879
31635W        W35596   5.027  22.948   4.255
31636W        W35597   4.596  22.232   6.919
31637W        W35598   6.648  22.716   4.600
31638W        W35599   7.015  23.198   4.545
31639W        W35600   4.684  21.951   4.251
31640W        W35601   7.005  22.485   5.286
31641W        W35602   5.979  22.524   3.663
31642W        W35603   7.152  22.050   6.133
31643W        W35604   5.764  21.872   5.439
31644W        W35605   4.376  22.775   5.502
31645W        W35606   6.983  22.765   5.854
31646W        W35607   7.250  22.165   6.628
31647W        W35608   5.616  22.886   5.667
31648W        W35609   6.755  22.917   4.147
31649W        W35610   3.983  22.652   5.787
31650W        W35611   6.043  22.629   6.250
31651W        W35612   6.947  22.291   4.777
31652W        W35613   3.721  22.931   6.116
31653W        W35614   6.581  22.726   5.134
31654W        W35615   6.992  22.877   6.911
31655W        W35616   4.248  22.347   4.000
31656W        W35617   5.352  22.001   5.810
31657W        W35618   5.238  22.574   4.712
31658W        W35619   6.594  22.171   5.140
31659W        W35620   4.586  22.364   4.664
31660W        W35621   4.591  22.592   3.689
31661W        W35622   5.392  23.201   6.083
31662W        W35623   6.240  22.067   5.953
31663W        W35624   4.632  22.043   3.766
31664W        W35625   5.370  23.124   4.817
31665W        W35626   6.340  22.100   6.516
31666W        W35627   5.633  22.064   7.240
31667W        W35628   4.855  22.680   5.633
31668W        W35629   4.281  22.636   5.031
31669W        W35630   5.741  22.416   5.205
31670W        W35631   7.220  22.694   4.473
31671W        W35632   5.597  22.625   6.074
31672W        W35633   4.683  22.874   4.640
31673W        W35634   5.515  22.784   3.692
31674W        W35635   6.452  22.255   4.487
31675W        W35636   3.782  22.103   3.935
31676W        W35637   5.058  22.161   7.111
31677W        W35638   5.767  22.303   6.467
31678W        W35639   4.962  22.071   4.748
31679W        W35640   6.021  22.148   4.253
31680W        W35641   3.966  22.080   5.830
31681W        W35642   6.703  22.151   5.606
31682W        W35643   4.125  22.649   4.420
31683W        W35644   6.696  22.337   6.036
31684W        W35645   4.384  22.298   5.540
31685W        W35646   5.498  22.870   6.480
31686W        W35647   3.646  22.560   3.958
31687W        W35648   6.818  21.975   6.504
31688W        W35649   7.254  22.296   7.109
31689W        W35650   6.972  23.224   5.730
31690W        W35651   5.135  21.983   3.934
31691W        W35652   4.443  22.675   6.763
31692W        W35653   7.003  22.660   6.423
31693W        W35654   4.703  22.354   6.425
31694W        W35655   4.198  22.726   6.364
31695W        W35656   5.499  21.981   6.728
31696W        W35657   4.554  22.716   6.023
31697W        W35658   4.524  22.064   5.133
31698W        W35659   4.754  22.479   5.189
31699W        W35660   6.882  22.447   4.225
31700W        W35661   5.021  21.966   6.628
31701W        W35662   4.873  22.997   5.207
31702W        W35663   4.879  22.866   6.506
31703W        W35664   7.181  23.132   4.063
31704W        W35665   5.916  23.199   6.159
31705W        W35666   6.477  22.093   7.011
31706W        W35667   4.141  22.243   6.598
31707W        W35668   4.480  23.266   5.651
31708W        W35669   4.849  23.080   3.773
31709W        W35670   5.060  22.573   3.866
31710W        W35671   6.856  22.383   6.878
31711W        W35672   6.856  21.980   4.314
31712W        W35673   6.465  22.317   3.933
31713W        W35674   6.530  22.924   6.119
31714W        W35675   5.319  22.455   5.636
31715W        W35676   7.199  22.353   5.708
31716W        W35677   4.162  21.987   7.173
31717W        W35678   5.357  21.938   4.474
31718W        W35679   5.009  22.356   4.306
31719W        W35680   4.608  22.616   4.163
31720W        W35681   6.125  22.758   4.488
31721W        W35682   5.211  22.282   5.152
31722W        W35683   5.341  23.217   3.952
31723W        W35684   5.277  22.408   6.435
31724W        W35685   6.949  22.117   3.862
31725W        W35686   5.557  21.969   5.001
31726W        W35687   5.115  22.694   6.063
31727W        W35688   4.815  22.063   5.532
31728W        W35689   3.931  22.410   5.372
31729W        W35690   3.731  22.229   4.449
31730W        W35691   6.272  22.821   3.948
31731W        W35692   6.144  21.984   3.768
31732W        W35693   6.141  23.002   7.144
31733W        W35694   4.124  22.532   7.143
31734W        W35695   3.855  23.132   4.476
31735W        W35696   6.126  22.015   4.847
31736W        W35697   5.536  22.262   4.063
31737W        W35698   7.217  21.890   4.785
31738W        W35699   7.071  22.862   4.938
31739W        W35700   4.968  22.608   6.936
31740W        W35701   4.788  23.192   6.177
31741W        W35702   5.980  22.637   6.831
31742W        W35703   3.824  23.108   6.608
31743W        W35704   6.073  23.045   6.595
31744W        W35705   5.283  22.976   6.963
31745W        W35706   3.770  22.628  10.393
31746W        W35707   4.532  21.908  10.195
31747W        W35708   6.226  22.296   9.082
31748W        W35709   5.875  23.167   7.652
31749W        W35710   6.445  22.601  10.743
31750W        W35711   3.811  22.393   9.868
31751W        W35712   4.757  23.076  10.551
31752W        W35713   7.216  22.935   9.050
31753W        W35714   4.957  23.140   9.358
31754W        W35715   3.715  23.124  10.859
31755W        W35716   4.128  22.241   8.456
31756W        W35717   6.531  22.682   9.312
31757W        W35718   6.816  22.635   7.407
31758W        W35719   4.341  22.195   9.760
31759W        W35720   6.964  23.213  10.035
31760W        W35721   5.349  22.797   8.860
31761W        W35722   5.722  22.333   8.292
31762W        W35723   3.750  22.526   8.574
31763W        W35724   6.536  23.133   9.048
31764W        W35725   6.727  23.126   7.297
31765W        W35726   4.936  22.221   9.653
31766W        W35727   7.165  21.983   8.950
31767W        W35728   4.039  22.888   7.597
31768W        W35729   5.490  22.828   8.037
31769W        W35730   5.971  23.257   8.182
31770W        W35731   4.191  23.167   9.760
31771W        W35732   4.066  21.960   8.841
31772W        W35733   5.834  22.307   9.402
31773W        W35734   5.482  22.492  10.565
31774W        W35735   5.837  22.641   7.743
31775W        W35736   5.987  22.115  10.536
31776W        W35737   6.236  22.521   8.524
31777W        W35738   5.027  22.948   7.900
31778W        W35739   4.596  22.232  10.564
31779W        W35740   6.648  22.716   8.245
31780W        W35741   7.015  23.198   8.190
31781W        W35742   4.684  21.951   7.896
31782W        W35743   7.005  22.485   8.931
31783W        W35744   5.979  22.524   7.308
31784W        W35745   7.152  22.050   9.778
31785W        W35746   4.376  22.775   9.147
31786W        W35747   6.983  22.765   9.499
31787W        W35748   7.250  22.165  10.273
31788W        W35749   5.616  22.886   9.312
31789W        W35750   6.755  22.917   7.792
31790W        W35751   3.983  22.652   9.432
31791W        W35752   6.043  22.629   9.895
31792W        W35753   6.947  22.291   8.422
31793W        W35754   3.721  22.931   9.761
31794W        W35755   6.581  22.726   8.779
31795W        W35756   6.992  22.877  10.556
31796W        W35757   4.248  22.347   7.645
31797W        W35758   5.352  22.001   9.455
31798W        W35759   5.238  22.574   8.357
31799W        W35760   6.594  22.171   8.785
31800W        W35761   4.586  22.364   8.309
31801W        W35762   4.591  22.592   7.334
31802W        W35763   5.392  23.201   9.728
31803W        W35764   6.240  22.067   9.598
31804W        W35765   4.632  22.043   7.411
31805W        W35766   5.370  23.124   8.462
31806W        W35767   6.340  22.100  10.161
31807W        W35768   5.633  22.064  10.885
31808W        W35769   4.855  22.680   9.278
31809W        W35770   4.281  22.636   8.676
31810W        W35771   5.741  22.416   8.850
31811W        W35772   7.220  22.694   8.118
31812W        W35773   5.597  22.625   9.719
31813W        W35774   4.683  22.874   8.285
31814W        W35775   5.515  22.784   7.337
31815W        W35776   6.452  22.255   8.132
31816W        W35777   3.782  22.103   7.580
31817W        W35778   5.058  22.161  10.756
31818W        W35779   5.767  22.303  10.112
31819W        W35780   4.962  22.071   8.393
31820W        W35781   6.021  22.148   7.898
31821W        W35782   3.966  22.080   9.475
31822W        W35783   6.703  22.151   9.251
31823W        W35784   4.125  22.649   8.065
31824W        W35785   6.696  22.337   9.681
31825W        W35786   4.384  22.298   9.185
31826W        W35787   5.498  22.870  10.125
31827W        W35788   3.646  22.560   7.603
31828W        W35789   6.818  21.975  10.149
31829W        W35790   7.254  22.296  10.754
31830W        W35791   6.972  23.224   9.375
31831W        W35792   5.135  21.983   7.579
31832W        W35793   4.443  22.675  10.408
31833W        W35794   7.003  22.660  10.068
31834W        W35795   4.703  22.354  10.070
31835W        W35796   4.198  22.726  10.009
31836W        W35797   5.499  21.981  10.373
31837W        W35798   4.554  22.716   9.668
31838W        W35799   4.524  22.064   8.778
31839W        W35800   6.145  22.906   9.470
31840W        W35801   4.754  22.479   8.834
31841W        W35802   6.882  22.447   7.870
31842W        W35803   5.021  21.966  10.273
31843W        W35804   4.873  22.997   8.852
31844W        W35805   4.879  22.866  10.151
31845W        W35806   7.181  23.132   7.708
31846W        W35807   6.477  22.093  10.656
31847W        W35808   4.141  22.243  10.243
31848W        W35809   4.480  23.266   9.296
31849W        W35810   4.849  23.080   7.418
31850W        W35811   5.060  22.573   7.511
31851W        W35812   6.856  22.383  10.523
31852W        W35813   6.856  21.980   7.959
31853W        W35814   6.465  22.317   7.578
31854W        W35815   6.530  22.924   9.764
31855W        W35816   5.319  22.455   9.281
31856W        W35817   7.199  22.353   9.353
31857W        W35818   4.162  21.987  10.818
31858W        W35819   5.357  21.938   8.119
31859W        W35820   6.070  22.807   8.978
31860W        W35821   5.009  22.356   7.951
31861W        W35822   5.807  22.821   8.514
31862W        W35823   4.608  22.616   7.808
31863W        W35824   6.125  22.758   8.133
31864W        W35825   5.211  22.282   8.797
31865W        W35826   5.341  23.217   7.597
31866W        W35827   5.277  22.408  10.080
31867W        W35828   6.949  22.117   7.507
31868W        W35829   5.557  21.969   8.646
31869W        W35830   5.115  22.694   9.708
31870W        W35831   4.815  22.063   9.177
31871W        W35832   3.931  22.410   9.017
31872W        W35833   3.731  22.229   8.094
31873W        W35834   6.272  22.821   7.593
31874W        W35835   6.144  21.984   7.413
31875W        W35836   6.141  23.002  10.789
31876W        W35837   4.124  22.532  10.788
31877W        W35838   3.855  23.132   8.121
31878W        W35839   6.126  22.015   8.492
31879W        W35840   5.536  22.262   7.708
31880W        W35841   7.217  21.890   8.430
31881W        W35842   7.071  22.862   8.583
31882W        W35843   4.968  22.608  10.581
31883W        W35844   4.788  23.192   9.822
31884W        W35845   5.980  22.637  10.476
31885W        W35846   3.824  23.108  10.253
31886W        W35847   5.283  22.976  10.608
31887W        W35848   3.770  22.628  14.037
31888W        W35849   4.532  21.908  13.839
31889W        W35850   6.226  22.296  12.726
31890W        W35851   5.875  23.167  11.296
31891W        W35852   6.445  22.601  14.387
31892W        W35853   3.811  22.393  13.512
31893W        W35854   4.757  23.076  14.195
31894W        W35855   7.216  22.935  12.694
31895W        W35856   4.957  23.140  13.002
31896W        W35857   3.715  23.124  14.503
31897W        W35858   4.128  22.241  12.100
31898W        W35859   6.531  22.682  12.956
31899W        W35860   6.816  22.635  11.051
31900W        W35861   4.341  22.195  13.404
31901W        W35862   6.964  23.213  13.679
31902W        W35863   5.349  22.797  12.504
31903W        W35864   5.722  22.333  11.936
31904W        W35865   3.750  22.526  12.218
31905W        W35866   6.536  23.133  12.692
31906W        W35867   6.727  23.126  10.941
31907W        W35868   4.936  22.221  13.297
31908W        W35869   7.165  21.983  12.594
31909W        W35870   4.039  22.888  11.241
31910W        W35871   5.490  22.828  11.681
31911W        W35872   6.550  23.079  14.051
31912W        W35873   5.971  23.257  11.826
31913W        W35874   4.191  23.167  13.404
31914W        W35875   4.066  21.960  12.485
31915W        W35876   5.834  22.307  13.046
31916W        W35877   5.482  22.492  14.209
31917W        W35878   5.837  22.641  11.387
31918W        W35879   5.987  22.115  14.180
31919W        W35880   6.436  22.583  13.898
31920W        W35881   6.236  22.521  12.168
31921W        W35882   5.027  22.948  11.544
31922W        W35883   4.596  22.232  14.208
31923W        W35884   6.648  22.716  11.889
31924W        W35885   7.015  23.198  11.834
31925W        W35886   4.684  21.951  11.540
31926W        W35887   7.005  22.485  12.575
31927W        W35888   5.979  22.524  10.952
31928W        W35889   7.152  22.050  13.422
31929W        W35890   5.764  21.872  12.728
31930W        W35891   4.376  22.775  12.791
31931W        W35892   6.983  22.765  13.143
31932W        W35893   7.250  22.165  13.917
31933W        W35894   5.616  22.886  12.956
31934W        W35895   6.755  22.917  11.436
31935W        W35896   3.983  22.652  13.076
31936W        W35897   6.043  22.629  13.539
31937W        W35898   6.947  22.291  12.066
31938W        W35899   3.721  22.931  13.405
31939W        W35900   6.581  22.726  12.423
31940W        W35901   6.992  22.877  14.200
31941W        W35902   4.248  22.347  11.289
31942W        W35903   5.352  22.001  13.099
31943W        W35904   5.238  22.574  12.001
31944W        W35905   6.594  22.171  12.429
31945W        W35906   4.586  22.364  11.953
31946W        W35907   4.591  22.592  10.978
31947W        W35908   5.392  23.201  13.372
31948W        W35909   6.240  22.067  13.242
31949W        W35910   4.632  22.043  11.055
31950W        W35911   5.370  23.124  12.106
31951W        W35912   6.340  22.100  13.805
31952W        W35913   5.633  22.064  14.529
31953W        W35914   4.855  22.680  12.922
31954W        W35915   4.281  22.636  12.320
31955W        W35916   5.741  22.416  12.494
31956W        W35917   7.220  22.694  11.762
31957W        W35918   5.597  22.625  13.363
31958W        W35919   4.683  22.874  11.929
31959W        W35920   5.515  22.784  10.981
31960W        W35921   6.452  22.255  11.776
31961W        W35922   3.782  22.103  11.224
31962W        W35923   5.058  22.161  14.400
31963W        W35924   5.767  22.303  13.756
31964W        W35925   4.962  22.071  12.037
31965W        W35926   6.021  22.148  11.542
31966W        W35927   3.966  22.080  13.119
31967W        W35928   6.703  22.151  12.895
31968W        W35929   4.125  22.649  11.709
31969W        W35930   6.696  22.337  13.325
31970W        W35931   4.384  22.298  12.829
31971W        W35932   5.498  22.870  13.769
31972W        W35933   3.646  22.560  11.247
31973W        W35934   6.818  21.975  13.793
31974W        W35935   7.254  22.296  14.398
31975W        W35936   6.972  23.224  13.019
31976W        W35937   5.135  21.983  11.223
31977W        W35938   4.443  22.675  14.052
31978W        W35939   7.003  22.660  13.712
31979W        W35940   4.703  22.354  13.714
31980W        W35941   4.198  22.726  13.653
31981W        W35942   5.499  21.981  14.017
31982W        W35943   4.554  22.716  13.312
31983W        W35944   4.524  22.064  12.422
31984W        W35945   6.145  22.906  13.114
31985W        W35946   4.754  22.479  12.478
31986W        W35947   6.882  22.447  11.514
31987W        W35948   5.021  21.966  13.917
31988W        W35949   4.873  22.997  12.496
31989W        W35950   4.879  22.866  13.795
31990W        W35951   7.181  23.132  11.352
31991W        W35952   5.916  23.199  13.448
31992W        W35953   6.477  22.093  14.300
31993W        W35954   4.141  22.243  13.887
31994W        W35955   4.480  23.266  12.940
31995W        W35956   4.849  23.080  11.062
31996W        W35957   5.060  22.573  11.155
31997W        W35958   6.856  22.383  14.167
31998W        W35959   6.856  21.980  11.603
31999W        W35960   6.465  22.317  11.222
32000W        W35961   6.530  22.924  13.408
32001W        W35962   5.319  22.455  12.925
32002W        W35963   7.199  22.353  12.997
32003W        W35964   4.162  21.987  14.462
32004W        W35965   5.357  21.938  11.763
32005W        W35966   6.070  22.807  12.622
32006W        W35967   5.009  22.356  11.595
32007W        W35968   5.807  22.821  12.158
32008W        W35969   4.608  22.616  11.452
32009W        W35970   6.125  22.758  11.777
32010W        W35971   5.211  22.282  12.441
32011W        W35972   5.341  23.217  11.241
32012W        W35973   5.277  22.408  13.724
32013W        W35974   6.949  22.117  11.151
32014W        W35975   5.557  21.969  12.290
32015W        W35976   5.115  22.694  13.352
32016W        W35977   4.815  22.063  12.821
32017W        W35978   3.931  22.410  12.661
32018W        W35979   3.731  22.229  11.738
32019W        W35980   6.272  22.821  11.237
32020W        W35981   6.144  21.984  11.057
32021W        W35982   6.141  23.002  14.433
32022W        W35983   4.124  22.532  14.432
32023W        W35984   3.855  23.132  11.765
32024W        W35985   6.126  22.015  12.136
32025W        W35986   5.536  22.262  11.352
32026W        W35987   7.217  21.890  12.074
32027W        W35988   7.071  22.862  12.227
32028W        W35989   4.968  22.608  14.225
32029W        W35990   4.788  23.192  13.466
32030W        W35991   5.980  22.637  14.120
32031W        W35992   3.824  23.108  13.897
32032W        W35993   6.073  23.045  13.884
32033W        W35994   5.283  22.976  14.252
32034W        W35995   3.770  22.628  17.681
32035W        W35996   4.532  21.908  17.483
32036W        W35997   6.226  22.296  16.370
32037W        W35998   5.875  23.167  14.940
32038W        W35999   6.445  22.601  18.031
32039W        W36000   3.811  22.393  17.156
32040W        W36001   4.757  23.076  17.839
32041W        W36002   7.216  22.935  16.338
32042W        W36003   4.957  23.140  16.646
32043W        W36004   3.715  23.124  18.147
32044W        W36005   4.128  22.241  15.744
32045W        W36006   6.531  22.682  16.600
32046W        W36007   6.816  22.635  14.695
32047W        W36008   4.341  22.195  17.048
32048W        W36009   6.964  23.213  17.323
32049W        W36010   5.349  22.797  16.148
32050W        W36011   5.722  22.333  15.580
32051W        W36012   3.750  22.526  15.862
32052W        W36013   6.536  23.133  16.336
32053W        W36014   6.727  23.126  14.585
32054W        W36015   4.936  22.221  16.941
32055W        W36016   7.165  21.983  16.238
32056W        W36017   4.039  22.888  14.885
32057W        W36018   5.490  22.828  15.325
32058W        W36019   6.550  23.079  17.695
32059W        W36020   5.971  23.257  15.470
32060W        W36021   4.191  23.167  17.048
32061W        W36022   4.066  21.960  16.129
32062W        W36023   5.834  22.307  16.690
32063W        W36024   5.482  22.492  17.853
32064W        W36025   5.837  22.641  15.031
32065W        W36026   5.987  22.115  17.824
32066W        W36027   6.436  22.583  17.542
32067W        W36028   6.236  22.521  15.812
32068W        W36029   5.027  22.948  15.188
32069W        W36030   4.596  22.232  17.852
32070W        W36031   6.648  22.716  15.533
32071W        W36032   7.015  23.198  15.478
32072W        W36033   4.684  21.951  15.184
32073W        W36034   7.005  22.485  16.219
32074W        W36035   5.979  22.524  14.596
32075W        W36036   7.152  22.050  17.066
32076W        W36037   5.764  21.872  16.372
32077W        W36038   4.376  22.775  16.435
32078W        W36039   6.983  22.765  16.787
32079W        W36040   7.250  22.165  17.561
32080W        W36041   5.616  22.886  16.600
32081W        W36042   6.755  22.917  15.080
32082W        W36043   3.983  22.652  16.720
32083W        W36044   6.043  22.629  17.183
32084W        W36045   6.947  22.291  15.710
32085W        W36046   3.721  22.931  17.049
32086W        W36047   6.581  22.726  16.067
32087W        W36048   6.992  22.877  17.844
32088W        W36049   4.248  22.347  14.933
32089W        W36050   5.352  22.001  16.743
32090W        W36051   5.238  22.574  15.645
32091W        W36052   6.594  22.171  16.073
32092W        W36053   4.586  22.364  15.597
32093W        W36054   4.591  22.592  14.622
32094W        W36055   5.392  23.201  17.016
32095W        W36056   6.240  22.067  16.886
32096W        W36057   4.632  22.043  14.699
32097W        W36058   5.370  23.124  15.750
32098W        W36059   6.340  22.100  17.449
32099W        W36060   5.633  22.064  18.173
32100W        W36061   4.855  22.680  16.566
32101W        W36062   4.281  22.636  15.964
32102W        W36063   5.741  22.416  16.138
32103W        W36064   7.220  22.694  15.406
32104W        W36065   5.597  22.625  17.007
32105W        W36066   4.683  22.874  15.573
32106W        W36067   5.515  22.784  14.625
32107W        W36068   6.452  22.255  15.420
32108W        W36069   3.782  22.103  14.868
32109W        W36070   5.058  22.161  18.044
32110W        W36071   5.767  22.303  17.400
32111W        W36072   4.962  22.071  15.681
32112W        W36073   6.021  22.148  15.186
32113W        W36074   3.966  22.080  16.763
32114W        W36075   6.703  22.151  16.539
32115W        W36076   4.125  22.649  15.353
32116W        W36077   6.696  22.337  16.969
32117W        W36078   4.384  22.298  16.473
32118W        W36079   5.498  22.870  17.413
32119W        W36080   3.646  22.560  14.891
32120W        W36081   6.818  21.975  17.437
32121W        W36082   7.254  22.296  18.042
32122W        W36083   6.972  23.224  16.663
32123W        W36084   5.135  21.983  14.867
32124W        W36085   4.443  22.675  17.696
32125W        W36086   7.003  22.660  17.356
32126W        W36087   4.703  22.354  17.358
32127W        W36088   4.198  22.726  17.297
32128W        W36089   5.499  21.981  17.661
32129W        W36090   4.554  22.716  16.956
32130W        W36091   4.524  22.064  16.066
32131W        W36092   6.145  22.906  16.758
32132W        W36093   4.754  22.479  16.122
32133W        W36094   6.882  22.447  15.158
32134W        W36095   5.021  21.966  17.561
32135W        W36096   4.873  22.997  16.140
32136W        W36097   4.879  22.866  17.439
32137W        W36098   7.181  23.132  14.996
32138W        W36099   5.916  23.199  17.092
32139W        W36100   6.477  22.093  17.944
32140W        W36101   4.141  22.243  17.531
32141W        W36102   4.480  23.266  16.584
32142W        W36103   4.849  23.080  14.706
32143W        W36104   5.060  22.573  14.799
32144W        W36105   6.856  22.383  17.811
32145W        W36106   6.856  21.980  15.247
32146W        W36107   6.465  22.317  14.866
32147W        W36108   6.530  22.924  17.052
32148W        W36109   5.319  22.455  16.569
32149W        W36110   7.199  22.353  16.641
32150W        W36111   4.162  21.987  18.106
32151W        W36112   5.357  21.938  15.407
32152W        W36113   6.070  22.807  16.266
32153W        W36114   5.009  22.356  15.239
32154W        W36115   5.807  22.821  15.802
32155W        W36116   4.608  22.616  15.096
32156W        W36117   6.125  22.758  15.421
32157W        W36118   5.211  22.282  16.085
32158W        W36119   5.341  23.217  14.885
32159W        W36120   5.277  22.408  17.368
32160W        W36121   6.949  22.117  14.795
32161W        W36122   5.557  21.969  15.934
32162W        W36123   5.115  22.694  16.996
32163W        W36124   4.815  22.063  16.465
32164W        W36125   3.931  22.410  16.305
32165W        W36126   3.731  22.229  15.382
32166W        W36127   6.272  22.821  14.881
32167W        W36128   6.144  21.984  14.701
32168W        W36129   6.141  23.002  18.077
32169W        W36130   4.124  22.532  18.076
32170W        W36131   3.855  23.132  15.409
32171W        W36132   6.126  22.015  15.780
32172W        W36133   5.536  22.262  14.996
32173W        W36134   7.217  21.890  15.718
32174W        W36135   7.071  22.862  15.871
32175W        W36136   4.968  22.608  17.869
32176W        W36137   4.788  23.192  17.110
32177W        W36138   5.980  22.637  17.764
32178W        W36139   3.824  23.108  17.541
32179W        W36140   6.073  23.045  17.528
32180W        W36141   5.283  22.976  17.896
32181W        W36142   3.770  22.628  21.325
32182W        W36143   4.532  21.908  21.127
32183W        W36144   6.226  22.296  20.014
32184W        W36145   5.875  23.167  18.584
32185W        W36146   6.445  22.601  21.675
32186W        W36147   3.811  22.393  20.800
32187W        W36148   4.757  23.076  21.483
32188W        W36149   7.216  22.935  19.982
32189W        W36150   4.957  23.140  20.290
32190W        W36151   3.715  23.124  21.791
32191W        W36152   4.128  22.241  19.388
32192W        W36153   6.531  22.682  20.244
32193W        W36154   6.816  22.635  18.339
32194W        W36155   4.341  22.195  20.692
32195W        W36156   6.964  23.213  20.967
32196W        W36157   5.349  22.797  19.792
32197W        W36158   5.722  22.333  19.224
32198W        W36159   3.750  22.526  19.506
32199W        W36160   6.536  23.133  19.980
32200W        W36161   6.727  23.126  18.229
32201W        W36162   4.936  22.221  20.585
32202W        W36163   7.165  21.983  19.882
32203W        W36164   4.039  22.888  18.529
32204W        W36165   5.490  22.828  18.969
32205W        W36166   6.550  23.079  21.339
32206W        W36167   5.971  23.257  19.114
32207W        W36168   4.191  23.167  20.692
32208W        W36169   4.066  21.960  19.773
32209W        W36170   5.834  22.307  20.334
32210W        W36171   5.482  22.492  21.497
32211W        W36172   5.837  22.641  18.675
32212W        W36173   5.987  22.115  21.468
32213W        W36174   6.436  22.583  21.186
32214W        W36175   6.236  22.521  19.456
32215W        W36176   5.027  22.948  18.832
32216W        W36177   4.596  22.232  21.496
32217W        W36178   6.648  22.716  19.177
32218W        W36179   7.015  23.198  19.122
32219W        W36180   4.684  21.951  18.828
32220W        W36181   7.005  22.485  19.863
32221W        W36182   5.979  22.524  18.240
32222W        W36183   7.152  22.050  20.710
32223W        W36184   5.764  21.872  20.016
32224W        W36185   4.376  22.775  20.079
32225W        W36186   6.983  22.765  20.431
32226W        W36187   7.250  22.165  21.205
32227W        W36188   5.616  22.886  20.244
32228W        W36189   6.755  22.917  18.724
32229W        W36190   3.983  22.652  20.364
32230W        W36191   6.043  22.629  20.827
32231W        W36192   6.947  22.291  19.354
32232W        W36193   3.721  22.931  20.693
32233W        W36194   6.581  22.726  19.711
32234W        W36195   6.992  22.877  21.488
32235W        W36196   4.248  22.347  18.577
32236W        W36197   5.352  22.001  20.387
32237W        W36198   5.238  22.574  19.289
32238W        W36199   6.594  22.171  19.717
32239W        W36200   4.586  22.364  19.241
32240W        W36201   4.591  22.592  18.266
32241W        W36202   5.392  23.201  20.660
32242W        W36203   6.240  22.067  20.530
32243W        W36204   4.632  22.043  18.343
32244W        W36205   5.370  23.124  19.394
32245W        W36206   6.340  22.100  21.093
32246W        W36207   5.633  22.064  21.817
32247W        W36208   4.855  22.680  20.210
32248W        W36209   4.281  22.636  19.608
32249W        W36210   5.741  22.416  19.782
32250W        W36211   7.220  22.694  19.050
32251W        W36212   5.597  22.625  20.651
32252W        W36213   4.683  22.874  19.217
32253W        W36214   5.515  22.784  18.269
32254W        W36215   6.452  22.255  19.064
32255W        W36216   3.782  22.103  18.512
32256W        W36217   5.058  22.161  21.688
32257W        W36218   5.767  22.303  21.044
32258W        W36219   4.962  22.071  19.325
32259W        W36220   6.021  22.148  18.830
32260W        W36221   3.966  22.080  20.407
32261W        W36222   6.703  22.151  20.183
32262W        W36223   4.125  22.649  18.997
32263W        W36224   6.696  22.337  20.613
32264W        W36225   4.384  22.298  20.117
32265W        W36226   5.498  22.870  21.057
32266W        W36227   3.646  22.560  18.535
32267W        W36228   6.818  21.975  21.081
32268W        W36229   7.254  22.296  21.686
32269W        W36230   6.972  23.224  20.307
32270W        W36231   5.135  21.983  18.511
32271W        W36232   4.443  22.675  21.340
32272W        W36233   7.003  22.660  21.000
32273W        W36234   4.703  22.354  21.002
32274W        W36235   4.198  22.726  20.941
32275W        W36236   5.499  21.981  21.305
32276W        W36237   4.554  22.716  20.600
32277W        W36238   4.524  22.064  19.710
32278W        W36239   6.145  22.906  20.402
32279W        W36240   4.754  22.479  19.766
32280W        W36241   6.882  22.447  18.802
32281W        W36242   5.021  21.966  21.205
32282W        W36243   4.873  22.997  19.784
32283W        W36244   4.879  22.866  21.083
32284W        W36245   7.181  23.132  18.640
32285W        W36246   5.916  23.199  20.736
32286W        W36247   6.477  22.093  21.588
32287W        W36248   4.141  22.243  21.175
32288W        W36249   4.480  23.266  20.228
32289W        W36250   4.849  23.080  18.350
32290W        W36251   5.060  22.573  18.443
32291W        W36252   6.856  22.383  21.455
32292W        W36253   6.856  21.980  18.891
32293W        W36254   6.465  22.317  18.510
32294W        W36255   6.530  22.924  20.696
32295W        W36256   5.319  22.455  20.213
32296W        W36257   7.199  22.353  20.285
32297W        W36258   4.162  21.987  21.750
32298W        W36259   5.357  21.938  19.051
32299W        W36260   6.070  22.807  19.910
32300W        W36261   5.009  22.356  18.883
32301W        W36262   5.807  22.821  19.446
32302W        W36263   4.608  22.616  18.740
32303W        W36264   6.125  22.758  19.065
32304W        W36265   5.211  22.282  19.729
32305W        W36266   5.341  23.217  18.529
32306W        W36267   5.277  22.408  21.012
32307W        W36268   6.949  22.117  18.439
32308W        W36269   5.557  21.969  19.578
32309W        W36270   5.115  22.694  20.640
32310W        W36271   4.815  22.063  20.109
32311W        W36272   3.931  22.410  19.949
32312W        W36273   3.731  22.229  19.026
32313W        W36274   6.272  22.821  18.525
32314W        W36275   6.144  21.984  18.345
32315W        W36276   6.141  23.002  21.721
32316W        W36277   4.124  22.532  21.720
32317W        W36278   3.855  23.132  19.053
32318W        W36279   6.126  22.015  19.424
32319W        W36280   5.536  22.262  18.640
32320W        W36281   7.217  21.890  19.362
32321W        W36282   7.071  22.862  19.515
32322W        W36283   4.968  22.608  21.513
32323W        W36284   4.788  23.192  20.754
32324W        W36285   5.980  22.637  21.408
32325W        W36286   3.824  23.108  21.185
32326W        W36287   6.073  23.045  21.172
32327W        W36288   5.283  22.976  21.540
32328W        W36289   5.875  23.167  22.229
32329W        W36290   4.128  22.241  23.033
32330W        W36291   6.816  22.635  21.984
32331W        W36292   5.722  22.333  22.869
32332W        W36293   6.727  23.126  21.874
32333W        W36294   4.039  22.888  22.174
32334W        W36295   5.490  22.828  22.614
32335W        W36296   5.971  23.257  22.759
32336W        W36297   5.837  22.641  22.320
32337W        W36298   6.236  22.521  23.101
32338W        W36299   5.027  22.948  22.477
32339W        W36300   6.648  22.716  22.822
32340W        W36301   7.015  23.198  22.767
32341W        W36302   4.684  21.951  22.473
32342W        W36303   5.979  22.524  21.885
32343W        W36304   6.755  22.917  22.369
32344W        W36305   6.947  22.291  22.999
32345W        W36306   4.248  22.347  22.222
32346W        W36307   5.238  22.574  22.934
32347W        W36308   4.586  22.364  22.886
32348W        W36309   4.591  22.592  21.911
32349W        W36310   4.632  22.043  21.988
32350W        W36311   5.370  23.124  23.039
32351W        W36312   4.281  22.636  23.253
32352W        W36313   7.220  22.694  22.695
32353W        W36314   4.683  22.874  22.862
32354W        W36315   5.515  22.784  21.914
32355W        W36316   6.452  22.255  22.709
32356W        W36317   3.782  22.103  22.157
32357W        W36318   4.962  22.071  22.970
32358W        W36319   6.021  22.148  22.475
32359W        W36320   4.125  22.649  22.642
32360W        W36321   3.646  22.560  22.180
32361W        W36322   5.135  21.983  22.156
32362W        W36323   6.882  22.447  22.447
32363W        W36324   7.181  23.132  22.285
32364W        W36325   4.849  23.080  21.995
32365W        W36326   5.060  22.573  22.088
32366W        W36327   6.856  21.980  22.536
32367W        W36328   6.465  22.317  22.155
32368W        W36329   5.357  21.938  22.696
32369W        W36330   5.009  22.356  22.528
32370W        W36331   5.807  22.821  23.091
32371W        W36332   4.608  22.616  22.385
32372W        W36333   6.125  22.758  22.710
32373W        W36334   5.341  23.217  22.174
32374W        W36335   6.949  22.117  22.084
32375W        W36336   5.557  21.969  23.223
32376W        W36337   3.731  22.229  22.671
32377W        W36338   6.272  22.821  22.170
32378W        W36339   6.144  21.984  21.990
32379W        W36340   3.855  23.132  22.698
32380W        W36341   5.536  22.262  22.285
32381W        W36342   7.217  21.890  23.007
32382W        W36343   7.071  22.862  23.160
32383W        W36344   7.373   3.595   3.359
32384W        W36345   7.749   2.488   2.882
32385W        W36346  10.454   2.218   0.652
32386W        W36347  10.584   3.303   2.679
32387W        W36348   8.502   3.294   0.205
32388W        W36349   8.585   1.446   1.188
32389W        W36350   8.100   1.294   1.352
32390W        W36351   9.091   2.109   0.786
32391W        W36352   8.766   3.201   3.141
32392W        W36353   7.415   0.762   3.104
32393W        W36354   8.177   0.042   2.906
32394W        W36355   9.871   0.430   1.793
32395W        W36356   9.520   1.301   0.363
32396W        W36357  10.090   0.735   3.454
32397W        W36358   7.456   0.527   2.579
32398W        W36359   7.555   3.146   3.600
32399W        W36360   9.077   2.536   0.332
32400W        W36361   7.509   1.319   2.025
32401W        W36362   8.402   1.210   3.262
32402W        W36363  10.861   1.069   1.761
32403W        W36364  10.625   2.112   2.620
32404W        W36365   8.933   1.445   1.647
32405W        W36366   9.479   2.784   2.016
32406W        W36367   7.979   2.218   2.248
32407W        W36368   7.338   1.746   1.819
32408W        W36369   8.374   1.718   3.011
32409W        W36370  10.645   1.501   3.265
32410W        W36371   8.261   2.945   1.710
32411W        W36372   9.382   2.634   2.844
32412W        W36373   8.602   1.274   2.069
32413W        W36374   8.894   2.058   1.712
32414W        W36375   9.891   2.831   3.560
32415W        W36376   8.970   2.151   3.570
32416W        W36377   8.951   1.867   3.048
32417W        W36378   7.360   1.258   3.570
32418W        W36379  10.192   2.793   3.169
32419W        W36380   7.773   0.375   1.167
32420W        W36381   8.300   2.633   2.166
32421W        W36382  10.763   2.416   1.456
32422W        W36383  10.176   0.816   2.023
32423W        W36384  10.461   0.769   0.118
32424W        W36385  10.926   1.570   2.424
32425W        W36386   8.893   3.277   2.177
32426W        W36387  10.667   2.743   0.615
32427W        W36388   7.796   3.529   0.369
32428W        W36389   8.189   3.575   1.045
32429W        W36390   7.986   0.329   2.471
32430W        W36391  10.609   1.347   2.746
32431W        W36392  10.014   1.769   1.205
32432W        W36393   9.980   1.457   0.232
32433W        W36394   9.188   2.601   2.372
32434W        W36395   8.994   0.931   1.571
32435W        W36396   9.594   3.018   2.565
32436W        W36397  10.465   1.809   0.987
32437W        W36398   9.367   0.467   1.003
32438W        W36399   8.024   3.161   0.686
32439W        W36400   7.395   0.660   1.285
32440W        W36401  10.181   1.267   1.759
32441W        W36402   7.639   2.884   1.674
32442W        W36403   8.980   3.234   0.544
32443W        W36404  10.372   1.260   0.008
32444W        W36405   7.395   3.018   2.172
32445W        W36406   8.186   2.590   2.652
32446W        W36407   8.559   1.950   1.271
32447W        W36408   8.581   0.355   2.364
32448W        W36409  10.810   0.117   1.661
32449W        W36410   8.029   1.989   0.129
32450W        W36411   7.684   1.022   0.308
32451W        W36412   7.746   2.978   1.102
32452W        W36413   8.877   2.461   1.350
32453W        W36414  10.209   3.320   3.064
32454W        W36415   9.135   0.962   0.748
32455W        W36416  10.518   3.360   1.520
32456W        W36417  10.195   1.213   3.118
32457W        W36418  10.908   2.869   1.252
32458W        W36419   9.535   2.161   2.736
32459W        W36420   7.301   1.712   0.942
32460W        W36421   8.412   2.127   2.515
32461W        W36422   9.616   1.391   0.893
32462W        W36423   9.493   1.881   0.997
32463W        W36424   7.836   1.301   2.471
32464W        W36425   7.821   1.177   3.393
32465W        W36426   7.711   0.094   1.552
32466W        W36427   9.479   0.441   2.113
32467W        W36428   9.127   0.626   3.276
32468W        W36429   9.482   0.775   0.454
32469W        W36430  10.665   3.168   3.208
32470W        W36431   9.632   0.249   3.247
32471W        W36432  10.651   2.550   3.369
32472W        W36433  10.081   0.717   2.965
32473W        W36434   9.881   0.655   1.235
32474W        W36435  10.274   1.789   3.639
32475W        W36436   8.014   3.365   1.625
32476W        W36437   8.672   1.082   0.611
32477W        W36438   8.241   0.366   3.275
32478W        W36439  10.293   0.850   0.956
32479W        W36440  10.660   1.332   0.901
32480W        W36441   8.403   3.549   3.372
32481W        W36442   8.329   0.085   0.607
32482W        W36443  10.650   0.619   1.642
32483W        W36444  10.800   2.868   0.087
32484W        W36445   7.707   2.071   1.789
32485W        W36446   9.624   0.658   0.019
32486W        W36447  10.758   2.990   1.739
32487W        W36448  10.797   0.184   2.489
32488W        W36449   9.242   1.396   3.043
32489W        W36450   9.335   2.735   0.746
32490W        W36451   9.735   2.029   3.486
32491W        W36452   9.409   0.006   1.795
32492W        W36453   8.021   0.909   1.858
32493W        W36454   7.575   2.109   2.632
32494W        W36455   9.434   3.302   1.338
32495W        W36456  10.628   0.899   2.210
32496W        W36457   9.265   3.246   2.977
32497W        W36458  10.608   2.305   0.182
32498W        W36459   9.043   1.788   1.243
32499W        W36460  10.895   0.299   2.984
32500W        W36461   9.044   2.134   2.578
32501W        W36462   9.261   1.020   2.023
32502W        W36463  10.113   1.318   0.861
32503W        W36464  10.400   1.051   0.503
32504W        W36465  10.209   3.091   0.892
32505W        W36466  10.043   2.694   1.688
32506W        W36467   9.939   1.773   0.666
32507W        W36468   9.372   1.983   1.652
32508W        W36469  10.253   1.771   1.719
32509W        W36470   7.628   0.786   2.143
32510W        W36471  10.406   1.838   2.970
32511W        W36472  10.757   3.456   2.116
32512W        W36473   8.687   2.900   1.518
32513W        W36474   9.694   3.433   2.842
32514W        W36475   9.688   0.763   2.606
32515W        W36476   8.895   3.471   2.667
32516W        W36477  10.592   0.425   1.133
32517W        W36478  10.383   1.744   2.434
32518W        W36479   7.366   1.065   2.472
32519W        W36480  10.226   0.860   1.490
32520W        W36481  10.637   1.011   3.267
32521W        W36482   9.522   2.710   1.485
32522W        W36483   8.778   3.301   1.098
32523W        W36484   7.893   0.481   0.356
32524W        W36485   8.997   0.135   2.166
32525W        W36486   8.025   3.255   0.014
32526W        W36487   8.399   1.721   0.765
32527W        W36488   9.053   2.350   3.078
32528W        W36489   8.883   0.708   1.068
32529W        W36490  10.239   0.305   1.496
32530W        W36491   9.959   3.587   1.824
32531W        W36492   9.371   3.235   2.164
32532W        W36493   8.767   2.272   2.125
32533W        W36494  10.537   2.995   2.251
32534W        W36495   8.231   0.498   1.020
32535W        W36496   8.753   2.795   1.980
32536W        W36497   8.236   0.726   0.045
32537W        W36498   9.037   1.335   2.439
32538W        W36499   9.885   0.201   2.309
32539W        W36500   7.305   2.044   2.194
32540W        W36501   9.009   1.862   0.352
32541W        W36502   8.277   0.177   0.122
32542W        W36503   9.015   1.258   1.173
32543W        W36504   9.985   0.234   2.872
32544W        W36505   8.573   2.246   2.981
32545W        W36506   9.377   2.028   3.198
32546W        W36507   9.994   2.058   3.091
32547W        W36508   8.500   0.814   1.989
32548W        W36509   7.926   0.770   1.387
32549W        W36510   7.712   3.482   1.063
32550W        W36511   9.044   2.812   3.188
32551W        W36512   8.079   2.297   0.547
32552W        W36513   9.759   1.682   1.768
32553W        W36514  10.039   1.481   2.167
32554W        W36515   9.244   2.155   2.101
32555W        W36516   9.714   2.529   0.233
32556W        W36517   9.386   0.550   1.561
32557W        W36518  10.865   0.828   0.829
32558W        W36519   7.359   3.417   2.860
32559W        W36520   7.776   2.643   2.392
32560W        W36521   7.343   3.489   0.624
32561W        W36522   9.242   0.759   2.430
32562W        W36523   8.605   2.782   0.279
32563W        W36524  10.510   3.164   0.465
32564W        W36525   9.485   1.817   0.479
32565W        W36526   8.328   1.008   0.996
32566W        W36527   9.160   0.918   0.048
32567W        W36528   9.744   2.483   3.226
32568W        W36529  10.097   0.389   0.843
32569W        W36530   7.427   0.237   0.291
32570W        W36531   8.713   2.556   2.581
32571W        W36532   8.512   2.472   1.673
32572W        W36533   8.254   2.424   0.071
32573W        W36534   7.495   2.665   0.839
32574W        W36535   7.999   1.735   3.281
32575W        W36536   8.703   0.295   3.467
32576W        W36537   9.412   0.437   2.823
32577W        W36538   8.607   0.205   1.104
32578W        W36539   9.666   0.282   0.609
32579W        W36540   7.611   0.214   2.186
32580W        W36541   7.659   1.177   1.556
32581W        W36542  10.348   0.285   1.962
32582W        W36543   7.770   0.783   0.776
32583W        W36544  10.341   0.471   2.392
32584W        W36545  10.737   1.674   0.077
32585W        W36546   8.029   0.432   1.896
32586W        W36547   9.143   1.004   2.836
32587W        W36548   7.291   0.694   0.314
32588W        W36549   8.077   2.083   2.875
32589W        W36550   9.435   1.481   2.054
32590W        W36551   9.302   3.560   0.350
32591W        W36552   7.448   2.067   0.047
32592W        W36553   8.183   2.478   3.173
32593W        W36554   7.704   1.645   2.804
32594W        W36555   8.695   1.750   2.598
32595W        W36556  10.463   0.109   2.860
32596W        W36557  10.861   1.719   2.851
32597W        W36558  10.849   1.919   0.537
32598W        W36559   9.712   2.251   0.636
32599W        W36560  10.186   3.551   0.331
32600W        W36561   9.363   1.541   3.473
32601W        W36562   7.693   2.508   3.513
32602W        W36563  10.899   0.430   3.465
32603W        W36564  10.617   1.358   2.086
32604W        W36565   8.925   3.488   3.563
32605W        W36566   8.780   0.117   0.290
32606W        W36567  10.319   2.716   0.233
32607W        W36568   8.088   0.809   3.119
32608W        W36569   8.522   2.803   2.981
32609W        W36570  10.648   0.794   2.779
32610W        W36571   9.859   3.453   0.747
32611W        W36572  10.098   2.072   2.114
32612W        W36573   8.348   0.488   2.781
32613W        W36574   8.817   1.557   3.538
32614W        W36575   8.320   2.736   0.732
32615W        W36576  10.075   2.234   0.996
32616W        W36577   7.843   0.860   2.720
32617W        W36578   9.172   2.922   1.184
32618W        W36579  10.922   1.482   1.365
32619W        W36580   9.144   0.115   3.084
32620W        W36581   9.924   2.820   2.163
32621W        W36582  10.227   3.164   1.871
32622W        W36583   9.446   2.966   0.299
32623W        W36584   7.456   2.858   3.141
32624W        W36585   8.199   0.850   2.379
32625W        W36586   8.169   0.198   1.489
32626W        W36587   9.790   1.040   2.181
32627W        W36588   8.588   2.211   0.381
32628W        W36589  10.586   2.153   1.880
32629W        W36590   7.913   2.911   3.303
32630W        W36591  10.300   3.593   1.100
32631W        W36592   8.399   0.613   1.545
32632W        W36593   8.168   2.106   1.635
32633W        W36594   8.481   3.517   2.385
32634W        W36595  10.548   3.613   3.417
32635W        W36596   9.707   1.801   2.350
32636W        W36597   7.556   1.599   0.265
32637W        W36598  10.690   3.257   0.962
32638W        W36599  10.527   0.581   0.581
32639W        W36600   8.666   0.100   2.984
32640W        W36601  10.372   2.902   1.442
32641W        W36602  10.401   1.458   1.347
32642W        W36603   8.518   1.131   1.563
32643W        W36604   8.763   1.393   2.887
32644W        W36605   9.874   2.546   2.750
32645W        W36606   8.524   1.000   2.862
32646W        W36607   8.503   3.466   1.478
32647W        W36608   7.820   3.425   3.112
32648W        W36609   7.932   2.786   0.242
32649W        W36610  10.449   2.544   1.052
32650W        W36611   8.053   1.336   2.938
32651W        W36612  10.826   1.266   0.419
32652W        W36613   8.571   2.323   0.890
32653W        W36614   9.670   1.705   2.971
32654W        W36615   9.561   1.333   2.515
32655W        W36616   8.121   1.705   2.544
32656W        W36617  10.331   3.593   2.373
32657W        W36618  10.122   0.227   3.367
32658W        W36619   7.786   0.377   2.954
32659W        W36620   8.125   1.400   2.007
32660W        W36621   8.494   1.214   0.129
32661W        W36622   7.297   2.973   2.674
32662W        W36623   8.882   1.682   2.117
32663W        W36624   8.705   0.707   0.222
32664W        W36625   7.840   1.523   1.003
32665W        W36626   7.611   3.375   2.440
32666W        W36627  10.406   1.601   0.548
32667W        W36628  10.501   0.517   3.234
32668W        W36629   9.937   2.726   1.197
32669W        W36630   7.535   1.650   3.374
32670W        W36631  10.501   0.114   0.670
32671W        W36632  10.021   2.589   0.681
32672W        W36633   8.923   1.647   0.766
32673W        W36634  10.110   0.451   0.289
32674W        W36635  10.175   1.058   2.475
32675W        W36636   7.884   1.651   1.682
32676W        W36637   8.178   2.590   1.331
32677W        W36638   9.941   1.210   1.296
32678W        W36639   8.964   0.589   1.992
32679W        W36640  10.926   2.500   2.503
32680W        W36641  10.844   0.487   2.064
32681W        W36642   7.383   3.317   1.440
32682W        W36643   7.892   2.504   0.976
32683W        W36644   7.807   0.121   3.529
32684W        W36645   8.926   2.974   3.631
32685W        W36646  10.681   1.942   1.421
32686W        W36647  10.035   2.119   0.301
32687W        W36648   9.330   3.640   2.513
32688W        W36649  10.187   2.362   3.550
32689W        W36650   9.002   0.072   0.830
32690W        W36651   9.715   0.941   1.689
32691W        W36652   7.401   2.528   2.021
32692W        W36653   8.654   0.490   0.662
32693W        W36654   8.458   1.974   3.511
32694W        W36655   9.452   0.955   1.225
32695W        W36656   9.657   2.365   2.347
32696W        W36657   7.811   2.970   2.782
32697W        W36658   8.402   2.953   3.505
32698W        W36659   8.253   0.750   0.519
32699W        W36660   9.770   0.892   0.844
32700W        W36661   9.728   3.000   3.081
32701W        W36662   8.413   1.592   1.680
32702W        W36663   8.068   3.290   2.545
32703W        W36664  10.813   3.407   0.146
32704W        W36665   7.676   2.079   3.142
32705W        W36666   9.671   2.341   1.830
32706W        W36667   8.107   1.990   1.072
32707W        W36668   8.478   2.997   2.467
32708W        W36669   8.856   0.416   1.508
32709W        W36670   7.467   2.400   0.438
32710W        W36671   8.986   1.351   0.308
32711W        W36672   7.632   1.900   1.327
32712W        W36673   8.922   0.542   2.791
32713W        W36674  10.594   0.251   0.218
32714W        W36675  10.687   1.997   3.317
32715W        W36676   9.341   3.254   3.469
32716W        W36677  10.899   2.348   2.991
32717W        W36678  10.307   3.146   3.602
32718W        W36679   8.046   3.602   2.080
32719W        W36680  10.905   2.224   0.954
32720W        W36681   9.435   1.491   1.467
32721W        W36682   9.202   0.103   1.357
32722W        W36683   8.261   3.087   1.194
32723W        W36684   8.760   0.828   2.419
32724W        W36685   8.460   0.197   1.888
32725W        W36686   7.523   3.019   0.436
32726W        W36687   9.339   2.383   1.154
32727W        W36688   8.214   3.178   3.033
32728W        W36689   7.691   2.001   0.729
32729W        W36690   7.576   0.544   1.728
32730W        W36691   9.124   2.509   1.785
32731W        W36692   7.376   0.363   0.805
32732W        W36693  10.040   1.569   2.732
32733W        W36694   9.917   0.955   0.304
32734W        W36695  10.434   2.627   1.952
32735W        W36696   9.095   3.111   1.783
32736W        W36697   8.507   3.215   0.694
32737W        W36698   9.789   0.118   0.124
32738W        W36699   7.589   3.378   1.865
32739W        W36700   9.786   1.136   3.500
32740W        W36701   7.769   0.666   3.499
32741W        W36702   7.500   1.266   0.832
32742W        W36703   8.191   1.255   0.557
32743W        W36704   9.954   1.582   3.374
32744W        W36705   8.297   1.863   2.083
32745W        W36706   9.771   0.149   1.203
32746W        W36707   8.902   3.580   1.706
32747W        W36708  10.116   3.042   2.643
32748W        W36709   9.700   3.191   1.754
32749W        W36710   9.719   2.171   1.348
32750W        W36711   9.181   0.396   0.419
32751W        W36712  10.862   0.024   1.141
32752W        W36713   8.550   1.659   0.304
32753W        W36714  10.716   0.996   1.294
32754W        W36715   9.408   2.166   0.171
32755W        W36716  10.344   2.366   2.919
32756W        W36717   9.998   3.067   0.386
32757W        W36718   8.613   0.742   3.292
32758W        W36719   8.433   1.326   2.533
32759W        W36720  10.525   2.821   2.810
32760W        W36721   9.625   0.771   3.187
32761W        W36722   7.469   1.242   2.964
32762W        W36723   9.229   1.719   2.690
32763W        W36724   7.586   2.477   1.347
32764W        W36725   7.733   1.774   2.237
32765W        W36726  10.050   2.060   2.587
32766W        W36727   9.822   3.440   3.398
32767W        W36728   9.718   1.179   2.951
32768W        W36729   9.995   3.233   1.356
32769W        W36730   8.997   2.953   2.679
32770W        W36731   8.482   3.308   1.948
32771W        W36732  10.287   2.479   2.367
32772W        W36733   9.337   2.551   3.504
32773W        W36734   7.942   2.504   1.843
32774W        W36735  10.288   2.263   1.488
32775W        W36736   9.929   3.329   2.239
32776W        W36737   7.907   3.058   2.109
32777W        W36738   8.928   1.110   3.319
32778W        W36739   9.379   3.276   0.830
32779W        W36740   8.687   2.531   3.468
32780W        W36741   8.813   2.769   0.845
32781W        W36742   8.034   1.509   0.104
32782W        W36743   7.373   3.595   7.003
32783W        W36744   7.749   2.488   6.526
32784W        W36745  10.454   2.218   4.296
32785W        W36746  10.584   3.303   6.323
32786W        W36747   8.502   3.294   3.849
32787W        W36748   8.585   1.446   4.832
32788W        W36749   8.100   1.294   4.996
32789W        W36750   9.091   2.109   4.430
32790W        W36751   8.766   3.201   6.785
32791W        W36752   7.415   0.762   6.748
32792W        W36753   8.177   0.042   6.550
32793W        W36754   9.871   0.430   5.437
32794W        W36755  10.090   0.735   7.098
32795W        W36756   7.456   0.527   6.223
32796W        W36757   7.555   3.146   7.244
32797W        W36758   9.077   2.536   3.976
32798W        W36759   7.509   1.319   5.669
32799W        W36760   8.402   1.210   6.906
32800W        W36761  10.861   1.069   5.405
32801W        W36762  10.625   2.112   6.264
32802W        W36763   8.933   1.445   5.291
32803W        W36764   9.479   2.784   5.660
32804W        W36765   7.979   2.218   5.892
32805W        W36766   7.338   1.746   5.463
32806W        W36767   8.374   1.718   6.655
32807W        W36768  10.645   1.501   6.909
32808W        W36769   8.261   2.945   5.354
32809W        W36770   9.382   2.634   6.488
32810W        W36771   8.602   1.274   5.713
32811W        W36772   8.894   2.058   5.356
32812W        W36773   9.891   2.831   7.204
32813W        W36774   8.970   2.151   7.214
32814W        W36775   8.951   1.867   6.692
32815W        W36776   7.360   1.258   7.214
32816W        W36777  10.192   2.793   6.813
32817W        W36778   7.773   0.375   4.811
32818W        W36779   8.300   2.633   5.810
32819W        W36780  10.763   2.416   5.100
32820W        W36781  10.176   0.816   5.667
32821W        W36782  10.461   0.769   3.762
32822W        W36783  10.926   1.570   6.068
32823W        W36784   8.893   3.277   5.821
32824W        W36785  10.667   2.743   4.259
32825W        W36786   7.796   3.529   4.013
32826W        W36787   8.189   3.575   4.689
32827W        W36788   7.986   0.329   6.115
32828W        W36789  10.609   1.347   6.390
32829W        W36790  10.014   1.769   4.849
32830W        W36791   9.980   1.457   3.876
32831W        W36792   9.188   2.601   6.016
32832W        W36793   8.994   0.931   5.215
32833W        W36794   9.594   3.018   6.209
32834W        W36795  10.465   1.809   4.631
32835W        W36796   9.367   0.467   4.647
32836W        W36797   8.024   3.161   4.330
32837W        W36798   7.395   0.660   4.929
32838W        W36799  10.181   1.267   5.403
32839W        W36800   7.639   2.884   5.318
32840W        W36801  10.372   1.260   3.652
32841W        W36802   7.395   3.018   5.816
32842W        W36803   8.186   2.590   6.296
32843W        W36804   8.559   1.950   4.915
32844W        W36805   8.581   0.355   6.008
32845W        W36806  10.810   0.117   5.305
32846W        W36807   8.029   1.989   3.773
32847W        W36808   7.684   1.022   3.952
32848W        W36809   7.746   2.978   4.746
32849W        W36810   8.877   2.461   4.994
32850W        W36811  10.209   3.320   6.708
32851W        W36812   9.135   0.962   4.392
32852W        W36813  10.518   3.360   5.164
32853W        W36814  10.195   1.213   6.762
32854W        W36815  10.908   2.869   4.896
32855W        W36816   9.535   2.161   6.380
32856W        W36817   7.301   1.712   4.586
32857W        W36818   8.412   2.127   6.159
32858W        W36819   9.616   1.391   4.537
32859W        W36820   9.493   1.881   4.641
32860W        W36821   7.836   1.301   6.115
32861W        W36822   7.821   1.177   7.037
32862W        W36823   7.711   0.094   5.196
32863W        W36824   9.479   0.441   5.757
32864W        W36825   9.127   0.626   6.920
32865W        W36826  10.665   3.168   6.852
32866W        W36827   9.632   0.249   6.891
32867W        W36828  10.651   2.550   7.013
32868W        W36829  10.081   0.717   6.609
32869W        W36830   9.881   0.655   4.879
32870W        W36831  10.274   1.789   7.283
32871W        W36832   8.014   3.365   5.269
32872W        W36833   8.672   1.082   4.255
32873W        W36834   8.241   0.366   6.919
32874W        W36835  10.293   0.850   4.600
32875W        W36836  10.660   1.332   4.545
32876W        W36837   8.403   3.549   7.016
32877W        W36838   8.329   0.085   4.251
32878W        W36839  10.650   0.619   5.286
32879W        W36840  10.800   2.868   3.731
32880W        W36841   7.707   2.071   5.433
32881W        W36842   9.624   0.658   3.663
32882W        W36843  10.758   2.990   5.383
32883W        W36844  10.797   0.184   6.133
32884W        W36845   9.242   1.396   6.687
32885W        W36846   9.335   2.735   4.390
32886W        W36847   9.735   2.029   7.130
32887W        W36848   9.409   0.006   5.439
32888W        W36849   8.021   0.909   5.502
32889W        W36850   7.575   2.109   6.276
32890W        W36851   9.434   3.302   4.982
32891W        W36852  10.628   0.899   5.854
32892W        W36853   9.265   3.246   6.621
32893W        W36854  10.608   2.305   3.826
32894W        W36855   9.043   1.788   4.887
32895W        W36856  10.895   0.299   6.628
32896W        W36857   9.044   2.134   6.222
32897W        W36858   9.261   1.020   5.667
32898W        W36859  10.113   1.318   4.505
32899W        W36860  10.400   1.051   4.147
32900W        W36861  10.209   3.091   4.536
32901W        W36862  10.043   2.694   5.332
32902W        W36863   9.939   1.773   4.310
32903W        W36864   9.372   1.983   5.296
32904W        W36865  10.253   1.771   5.363
32905W        W36866   7.628   0.786   5.787
32906W        W36867  10.406   1.838   6.614
32907W        W36868  10.757   3.456   5.760
32908W        W36869   8.687   2.900   5.162
32909W        W36870   9.694   3.433   6.486
32910W        W36871   9.688   0.763   6.250
32911W        W36872   8.895   3.471   6.311
32912W        W36873  10.592   0.425   4.777
32913W        W36874  10.383   1.744   6.078
32914W        W36875   7.366   1.065   6.116
32915W        W36876  10.226   0.860   5.134
32916W        W36877  10.637   1.011   6.911
32917W        W36878   9.522   2.710   5.129
32918W        W36879   8.778   3.301   4.742
32919W        W36880   7.893   0.481   4.000
32920W        W36881   8.997   0.135   5.810
32921W        W36882   8.025   3.255   3.658
32922W        W36883   8.399   1.721   4.409
32923W        W36884   9.053   2.350   6.722
32924W        W36885   8.883   0.708   4.712
32925W        W36886  10.239   0.305   5.140
32926W        W36887   9.959   3.587   5.468
32927W        W36888   9.371   3.235   5.808
32928W        W36889   8.767   2.272   5.769
32929W        W36890  10.537   2.995   5.895
32930W        W36891   8.231   0.498   4.664
32931W        W36892   8.753   2.795   5.624
32932W        W36893   8.236   0.726   3.689
32933W        W36894   9.037   1.335   6.083
32934W        W36895   9.885   0.201   5.953
32935W        W36896   7.305   2.044   5.838
32936W        W36897   9.009   1.862   3.996
32937W        W36898   8.277   0.177   3.766
32938W        W36899   9.015   1.258   4.817
32939W        W36900   9.985   0.234   6.516
32940W        W36901   8.573   2.246   6.625
32941W        W36902   9.377   2.028   6.842
32942W        W36903   9.994   2.058   6.735
32943W        W36904   9.278   0.198   7.240
32944W        W36905   8.500   0.814   5.633
32945W        W36906   7.926   0.770   5.031
32946W        W36907   7.712   3.482   4.707
32947W        W36908   9.044   2.812   6.832
32948W        W36909   8.079   2.297   4.191
32949W        W36910   9.759   1.682   5.412
32950W        W36911  10.039   1.481   5.811
32951W        W36912   9.244   2.155   5.745
32952W        W36913   9.714   2.529   3.877
32953W        W36914   9.386   0.550   5.205
32954W        W36915  10.865   0.828   4.473
32955W        W36916   7.359   3.417   6.504
32956W        W36917   7.776   2.643   6.036
32957W        W36918   7.343   3.489   4.268
32958W        W36919   9.242   0.759   6.074
32959W        W36920   8.605   2.782   3.923
32960W        W36921  10.510   3.164   4.109
32961W        W36922   9.485   1.817   4.123
32962W        W36923   8.328   1.008   4.640
32963W        W36924   9.160   0.918   3.692
32964W        W36925   9.744   2.483   6.870
32965W        W36926  10.097   0.389   4.487
32966W        W36927   7.427   0.237   3.935
32967W        W36928   8.713   2.556   6.225
32968W        W36929   8.512   2.472   5.317
32969W        W36930   8.254   2.424   3.715
32970W        W36931   7.495   2.665   4.483
32971W        W36932   7.999   1.735   6.925
32972W        W36933   8.703   0.295   7.111
32973W        W36934   9.412   0.437   6.467
32974W        W36935   8.607   0.205   4.748
32975W        W36936   9.666   0.282   4.253
32976W        W36937   7.611   0.214   5.830
32977W        W36938   7.659   1.177   5.200
32978W        W36939  10.348   0.285   5.606
32979W        W36940   7.770   0.783   4.420
32980W        W36941  10.341   0.471   6.036
32981W        W36942  10.737   1.674   3.721
32982W        W36943   8.029   0.432   5.540
32983W        W36944   9.143   1.004   6.480
32984W        W36945   7.291   0.694   3.958
32985W        W36946   8.077   2.083   6.519
32986W        W36947   9.435   1.481   5.698
32987W        W36948   7.448   2.067   3.691
32988W        W36949   8.183   2.478   6.817
32989W        W36950   7.704   1.645   6.448
32990W        W36951   8.695   1.750   6.242
32991W        W36952  10.463   0.109   6.504
32992W        W36953  10.861   1.719   6.495
32993W        W36954  10.849   1.919   4.181
32994W        W36955   9.712   2.251   4.280
32995W        W36956  10.186   3.551   3.975
32996W        W36957   9.363   1.541   7.117
32997W        W36958   7.693   2.508   7.157
32998W        W36959  10.899   0.430   7.109
32999W        W36960  10.617   1.358   5.730
33000W        W36961   8.925   3.488   7.207
33001W        W36962   8.780   0.117   3.934
33002W        W36963  10.319   2.716   3.877
33003W        W36964   8.088   0.809   6.763
33004W        W36965   8.522   2.803   6.625
33005W        W36966  10.648   0.794   6.423
33006W        W36967   9.859   3.453   4.391
33007W        W36968  10.098   2.072   5.758
33008W        W36969   8.348   0.488   6.425
33009W        W36970   8.817   1.557   7.182
33010W        W36971   8.320   2.736   4.376
33011W        W36972  10.075   2.234   4.640
33012W        W36973   7.843   0.860   6.364
33013W        W36974   9.172   2.922   4.828
33014W        W36975  10.922   1.482   5.009
33015W        W36976   9.144   0.115   6.728
33016W        W36977   9.924   2.820   5.807
33017W        W36978  10.227   3.164   5.515
33018W        W36979   9.446   2.966   3.943
33019W        W36980   7.456   2.858   6.785
33020W        W36981   8.199   0.850   6.023
33021W        W36982   8.169   0.198   5.133
33022W        W36983   9.790   1.040   5.825
33023W        W36984   8.588   2.211   4.025
33024W        W36985  10.586   2.153   5.524
33025W        W36986   7.913   2.911   6.947
33026W        W36987  10.300   3.593   4.744
33027W        W36988   8.399   0.613   5.189
33028W        W36989   8.168   2.106   5.279
33029W        W36990   8.481   3.517   6.029
33030W        W36991  10.548   3.613   7.061
33031W        W36992   9.707   1.801   5.994
33032W        W36993   7.556   1.599   3.909
33033W        W36994  10.690   3.257   4.606
33034W        W36995  10.527   0.581   4.225
33035W        W36996   8.666   0.100   6.628
33036W        W36997  10.372   2.902   5.086
33037W        W36998  10.401   1.458   4.991
33038W        W36999   8.518   1.131   5.207
33039W        W37000   8.763   1.393   6.531
33040W        W37001   9.874   2.546   6.394
33041W        W37002   8.524   1.000   6.506
33042W        W37003   8.503   3.466   5.122
33043W        W37004   7.820   3.425   6.756
33044W        W37005   7.932   2.786   3.886
33045W        W37006  10.449   2.544   4.696
33046W        W37007   8.053   1.336   6.582
33047W        W37008  10.826   1.266   4.063
33048W        W37009   8.571   2.323   4.534
33049W        W37010   9.670   1.705   6.615
33050W        W37011   9.561   1.333   6.159
33051W        W37012   8.121   1.705   6.188
33052W        W37013  10.331   3.593   6.017
33053W        W37014  10.122   0.227   7.011
33054W        W37015   7.786   0.377   6.598
33055W        W37016   8.125   1.400   5.651
33056W        W37017   8.494   1.214   3.773
33057W        W37018   7.297   2.973   6.318
33058W        W37019   8.882   1.682   5.761
33059W        W37020   7.840   1.523   4.647
33060W        W37021   7.611   3.375   6.084
33061W        W37022  10.406   1.601   4.192
33062W        W37023  10.501   0.517   6.878
33063W        W37024   9.937   2.726   4.841
33064W        W37025   7.535   1.650   7.018
33065W        W37026  10.501   0.114   4.314
33066W        W37027  10.021   2.589   4.325
33067W        W37028   8.923   1.647   4.410
33068W        W37029  10.110   0.451   3.933
33069W        W37030  10.175   1.058   6.119
33070W        W37031   7.884   1.651   5.326
33071W        W37032   8.178   2.590   4.975
33072W        W37033   9.941   1.210   4.940
33073W        W37034   8.964   0.589   5.636
33074W        W37035  10.926   2.500   6.147
33075W        W37036  10.844   0.487   5.708
33076W        W37037   7.383   3.317   5.084
33077W        W37038   7.892   2.504   4.620
33078W        W37039   7.807   0.121   7.173
33079W        W37040   8.926   2.974   7.275
33080W        W37041  10.681   1.942   5.065
33081W        W37042  10.035   2.119   3.945
33082W        W37043   9.330   3.640   6.157
33083W        W37044  10.187   2.362   7.194
33084W        W37045   9.002   0.072   4.474
33085W        W37046   9.715   0.941   5.333
33086W        W37047   7.401   2.528   5.665
33087W        W37048   8.654   0.490   4.306
33088W        W37049   8.458   1.974   7.155
33089W        W37050   9.452   0.955   4.869
33090W        W37051   9.657   2.365   5.991
33091W        W37052   7.811   2.970   6.426
33092W        W37053   8.402   2.953   7.149
33093W        W37054   8.253   0.750   4.163
33094W        W37055   9.770   0.892   4.488
33095W        W37056   9.728   3.000   6.725
33096W        W37057   8.413   1.592   5.324
33097W        W37058   8.068   3.290   6.189
33098W        W37059  10.813   3.407   3.790
33099W        W37060   7.676   2.079   6.786
33100W        W37061   9.671   2.341   5.474
33101W        W37062   8.107   1.990   4.716
33102W        W37063   8.478   2.997   6.111
33103W        W37064   8.856   0.416   5.152
33104W        W37065   7.467   2.400   4.082
33105W        W37066   8.986   1.351   3.952
33106W        W37067   7.632   1.900   4.971
33107W        W37068   8.922   0.542   6.435
33108W        W37069  10.594   0.251   3.862
33109W        W37070  10.687   1.997   6.961
33110W        W37071   9.341   3.254   7.113
33111W        W37072  10.899   2.348   6.635
33112W        W37073  10.307   3.146   7.246
33113W        W37074   8.046   3.602   5.724
33114W        W37075  10.905   2.224   4.598
33115W        W37076   9.435   1.491   5.111
33116W        W37077   9.202   0.103   5.001
33117W        W37078   8.261   3.087   4.838
33118W        W37079   8.760   0.828   6.063
33119W        W37080   8.460   0.197   5.532
33120W        W37081   7.523   3.019   4.080
33121W        W37082   9.339   2.383   4.798
33122W        W37083   8.214   3.178   6.677
33123W        W37084   7.691   2.001   4.373
33124W        W37085   7.576   0.544   5.372
33125W        W37086   9.124   2.509   5.429
33126W        W37087   7.376   0.363   4.449
33127W        W37088  10.040   1.569   6.376
33128W        W37089   9.917   0.955   3.948
33129W        W37090  10.434   2.627   5.596
33130W        W37091   9.095   3.111   5.427
33131W        W37092   8.507   3.215   4.338
33132W        W37093   9.789   0.118   3.768
33133W        W37094   7.589   3.378   5.509
33134W        W37095   9.786   1.136   7.144
33135W        W37096   7.769   0.666   7.143
33136W        W37097   7.500   1.266   4.476
33137W        W37098   8.191   1.255   4.201
33138W        W37099   9.954   1.582   7.018
33139W        W37100   8.297   1.863   5.727
33140W        W37101   9.771   0.149   4.847
33141W        W37102   8.902   3.580   5.350
33142W        W37103  10.116   3.042   6.287
33143W        W37104   9.700   3.191   5.398
33144W        W37105   9.719   2.171   4.992
33145W        W37106  10.862   0.024   4.785
33146W        W37107   8.550   1.659   3.948
33147W        W37108  10.716   0.996   4.938
33148W        W37109   9.408   2.166   3.815
33149W        W37110  10.344   2.366   6.563
33150W        W37111   9.998   3.067   4.030
33151W        W37112   8.613   0.742   6.936
33152W        W37113   8.433   1.326   6.177
33153W        W37114  10.525   2.821   6.454
33154W        W37115   9.625   0.771   6.831
33155W        W37116   7.469   1.242   6.608
33156W        W37117   9.229   1.719   6.334
33157W        W37118   7.586   2.477   4.991
33158W        W37119   7.733   1.774   5.881
33159W        W37120  10.050   2.060   6.231
33160W        W37121   9.822   3.440   7.042
33161W        W37122   9.718   1.179   6.595
33162W        W37123   9.995   3.233   5.000
33163W        W37124   8.997   2.953   6.323
33164W        W37125   8.482   3.308   5.592
33165W        W37126  10.287   2.479   6.011
33166W        W37127   9.337   2.551   7.148
33167W        W37128   7.942   2.504   5.487
33168W        W37129  10.288   2.263   5.132
33169W        W37130   9.929   3.329   5.883
33170W        W37131   7.907   3.058   5.753
33171W        W37132   8.928   1.110   6.963
33172W        W37133   8.687   2.531   7.112
33173W        W37134   8.813   2.769   4.489
33174W        W37135   8.034   1.509   3.748
33175W        W37136   7.373   3.595  10.648
33176W        W37137   7.749   2.488  10.171
33177W        W37138  10.454   2.218   7.941
33178W        W37139  10.584   3.303   9.968
33179W        W37140   8.502   3.294   7.494
33180W        W37141   8.585   1.446   8.477
33181W        W37142   8.100   1.294   8.641
33182W        W37143   9.091   2.109   8.075
33183W        W37144   8.766   3.201  10.430
33184W        W37145   8.177   0.042  10.195
33185W        W37146   9.871   0.430   9.082
33186W        W37147   9.520   1.301   7.652
33187W        W37148  10.090   0.735  10.743
33188W        W37149   7.456   0.527   9.868
33189W        W37150   7.555   3.146  10.889
33190W        W37151   9.077   2.536   7.621
33191W        W37152   7.509   1.319   9.314
33192W        W37153   8.402   1.210  10.551
33193W        W37154  10.861   1.069   9.050
33194W        W37155  10.625   2.112   9.909
33195W        W37156   8.933   1.445   8.936
33196W        W37157   9.479   2.784   9.305
33197W        W37158   7.979   2.218   9.537
33198W        W37159   7.338   1.746   9.108
33199W        W37160   8.374   1.718  10.300
33200W        W37161  10.645   1.501  10.554
33201W        W37162   8.261   2.945   8.999
33202W        W37163   9.382   2.634  10.133
33203W        W37164   8.602   1.274   9.358
33204W        W37165   8.894   2.058   9.001
33205W        W37166   9.891   2.831  10.849
33206W        W37167   8.970   2.151  10.859
33207W        W37168   8.951   1.867  10.337
33208W        W37169   7.360   1.258  10.859
33209W        W37170  10.192   2.793  10.458
33210W        W37171   7.773   0.375   8.456
33211W        W37172   8.300   2.633   9.455
33212W        W37173  10.763   2.416   8.745
33213W        W37174  10.176   0.816   9.312
33214W        W37175  10.461   0.769   7.407
33215W        W37176  10.926   1.570   9.713
33216W        W37177   8.893   3.277   9.466
33217W        W37178  10.667   2.743   7.904
33218W        W37179   7.796   3.529   7.658
33219W        W37180   8.189   3.575   8.334
33220W        W37181   7.986   0.329   9.760
33221W        W37182  10.609   1.347  10.035
33222W        W37183  10.014   1.769   8.494
33223W        W37184   9.980   1.457   7.521
33224W        W37185   9.188   2.601   9.661
33225W        W37186   8.994   0.931   8.860
33226W        W37187   9.594   3.018   9.854
33227W        W37188  10.465   1.809   8.276
33228W        W37189   9.367   0.467   8.292
33229W        W37190   8.024   3.161   7.975
33230W        W37191   7.395   0.660   8.574
33231W        W37192  10.181   1.267   9.048
33232W        W37193   7.639   2.884   8.963
33233W        W37194   8.980   3.234   7.833
33234W        W37195  10.372   1.260   7.297
33235W        W37196   7.395   3.018   9.461
33236W        W37197   8.186   2.590   9.941
33237W        W37198   8.559   1.950   8.560
33238W        W37199   8.581   0.355   9.653
33239W        W37200  10.810   0.117   8.950
33240W        W37201   8.029   1.989   7.418
33241W        W37202   7.684   1.022   7.597
33242W        W37203   7.746   2.978   8.391
33243W        W37204   8.877   2.461   8.639
33244W        W37205  10.209   3.320  10.353
33245W        W37206   9.135   0.962   8.037
33246W        W37207  10.518   3.360   8.809
33247W        W37208  10.195   1.213  10.407
33248W        W37209  10.908   2.869   8.541
33249W        W37210   9.535   2.161  10.025
33250W        W37211   7.301   1.712   8.231
33251W        W37212   8.412   2.127   9.804
33252W        W37213   9.616   1.391   8.182
33253W        W37214   9.493   1.881   8.286
33254W        W37215   7.836   1.301   9.760
33255W        W37216   7.821   1.177  10.682
33256W        W37217   7.711   0.094   8.841
33257W        W37218   9.479   0.441   9.402
33258W        W37219   9.127   0.626  10.565
33259W        W37220   9.482   0.775   7.743
33260W        W37221  10.665   3.168  10.497
33261W        W37222   9.632   0.249  10.536
33262W        W37223  10.651   2.550  10.658
33263W        W37224  10.081   0.717  10.254
33264W        W37225   9.881   0.655   8.524
33265W        W37226  10.274   1.789  10.928
33266W        W37227   8.014   3.365   8.914
33267W        W37228   8.672   1.082   7.900
33268W        W37229   8.241   0.366  10.564
33269W        W37230  10.293   0.850   8.245
33270W        W37231  10.660   1.332   8.190
33271W        W37232   8.403   3.549  10.661
33272W        W37233   8.329   0.085   7.896
33273W        W37234  10.650   0.619   8.931
33274W        W37235  10.800   2.868   7.376
33275W        W37236   7.707   2.071   9.078
33276W        W37237   9.624   0.658   7.308
33277W        W37238  10.758   2.990   9.028
33278W        W37239  10.797   0.184   9.778
33279W        W37240   9.242   1.396  10.332
33280W        W37241   9.335   2.735   8.035
33281W        W37242   9.735   2.029  10.775
33282W        W37243   9.409   0.006   9.084
33283W        W37244   8.021   0.909   9.147
33284W        W37245   7.575   2.109   9.921
33285W        W37246   9.434   3.302   8.627
33286W        W37247  10.628   0.899   9.499
33287W        W37248   9.265   3.246  10.266
33288W        W37249  10.608   2.305   7.471
33289W        W37250   9.043   1.788   8.532
33290W        W37251  10.895   0.299  10.273
33291W        W37252   9.044   2.134   9.867
33292W        W37253   9.261   1.020   9.312
33293W        W37254  10.113   1.318   8.150
33294W        W37255  10.400   1.051   7.792
33295W        W37256  10.209   3.091   8.181
33296W        W37257  10.043   2.694   8.977
33297W        W37258   9.939   1.773   7.955
33298W        W37259   9.372   1.983   8.941
33299W        W37260  10.253   1.771   9.008
33300W        W37261   7.628   0.786   9.432
33301W        W37262  10.406   1.838  10.259
33302W        W37263  10.757   3.456   9.405
33303W        W37264   8.687   2.900   8.807
33304W        W37265   9.694   3.433  10.131
33305W        W37266   9.688   0.763   9.895
33306W        W37267   8.895   3.471   9.956
33307W        W37268  10.592   0.425   8.422
33308W        W37269  10.383   1.744   9.723
33309W        W37270   7.366   1.065   9.761
33310W        W37271  10.226   0.860   8.779
33311W        W37272  10.637   1.011  10.556
33312W        W37273   9.522   2.710   8.774
33313W        W37274   8.778   3.301   8.387
33314W        W37275   7.893   0.481   7.645
33315W        W37276   8.997   0.135   9.455
33316W        W37277   8.025   3.255   7.303
33317W        W37278   8.399   1.721   8.054
33318W        W37279   9.053   2.350  10.367
33319W        W37280   8.883   0.708   8.357
33320W        W37281  10.239   0.305   8.785
33321W        W37282   9.959   3.587   9.113
33322W        W37283   9.371   3.235   9.453
33323W        W37284   8.767   2.272   9.414
33324W        W37285  10.537   2.995   9.540
33325W        W37286   8.231   0.498   8.309
33326W        W37287   8.753   2.795   9.269
33327W        W37288   8.236   0.726   7.334
33328W        W37289   9.037   1.335   9.728
33329W        W37290   9.885   0.201   9.598
33330W        W37291   7.305   2.044   9.483
33331W        W37292   9.009   1.862   7.641
33332W        W37293   8.277   0.177   7.411
33333W        W37294   9.015   1.258   8.462
33334W        W37295   9.985   0.234  10.161
33335W        W37296   8.573   2.246  10.270
33336W        W37297   9.377   2.028  10.487
33337W        W37298   9.994   2.058  10.380
33338W        W37299   9.278   0.198  10.885
33339W        W37300   8.500   0.814   9.278
33340W        W37301   7.926   0.770   8.676
33341W        W37302   7.712   3.482   8.352
33342W        W37303   9.044   2.812  10.477
33343W        W37304   8.079   2.297   7.836
33344W        W37305   9.759   1.682   9.057
33345W        W37306  10.039   1.481   9.456
33346W        W37307   9.244   2.155   9.390
33347W        W37308   9.714   2.529   7.522
33348W        W37309   9.386   0.550   8.850
33349W        W37310  10.865   0.828   8.118
33350W        W37311   7.359   3.417  10.149
33351W        W37312   7.776   2.643   9.681
33352W        W37313   7.343   3.489   7.913
33353W        W37314   9.242   0.759   9.719
33354W        W37315   8.605   2.782   7.568
33355W        W37316  10.510   3.164   7.754
33356W        W37317   9.485   1.817   7.768
33357W        W37318   8.328   1.008   8.285
33358W        W37319   9.160   0.918   7.337
33359W        W37320   9.744   2.483  10.515
33360W        W37321  10.097   0.389   8.132
33361W        W37322   7.427   0.237   7.580
33362W        W37323   8.713   2.556   9.870
33363W        W37324   8.512   2.472   8.962
33364W        W37325   8.254   2.424   7.360
33365W        W37326   7.495   2.665   8.128
33366W        W37327   7.999   1.735  10.570
33367W        W37328   8.703   0.295  10.756
33368W        W37329   9.412   0.437  10.112
33369W        W37330   8.607   0.205   8.393
33370W        W37331   9.666   0.282   7.898
33371W        W37332   7.611   0.214   9.475
33372W        W37333   7.659   1.177   8.845
33373W        W37334  10.348   0.285   9.251
33374W        W37335   7.770   0.783   8.065
33375W        W37336  10.341   0.471   9.681
33376W        W37337  10.737   1.674   7.366
33377W        W37338   8.029   0.432   9.185
33378W        W37339   9.143   1.004  10.125
33379W        W37340   7.291   0.694   7.603
33380W        W37341   8.077   2.083  10.164
33381W        W37342   9.435   1.481   9.343
33382W        W37343   9.302   3.560   7.639
33383W        W37344   7.448   2.067   7.336
33384W        W37345   8.183   2.478  10.462
33385W        W37346   7.704   1.645  10.093
33386W        W37347   8.695   1.750   9.887
33387W        W37348  10.463   0.109  10.149
33388W        W37349  10.861   1.719  10.140
33389W        W37350  10.849   1.919   7.826
33390W        W37351   9.712   2.251   7.925
33391W        W37352  10.186   3.551   7.620
33392W        W37353   9.363   1.541  10.762
33393W        W37354   7.693   2.508  10.802
33394W        W37355  10.899   0.430  10.754
33395W        W37356  10.617   1.358   9.375
33396W        W37357   8.925   3.488  10.852
33397W        W37358   8.780   0.117   7.579
33398W        W37359  10.319   2.716   7.522
33399W        W37360   8.522   2.803  10.270
33400W        W37361  10.648   0.794  10.068
33401W        W37362   9.859   3.453   8.036
33402W        W37363  10.098   2.072   9.403
33403W        W37364   8.348   0.488  10.070
33404W        W37365   8.817   1.557  10.827
33405W        W37366   8.320   2.736   8.021
33406W        W37367  10.075   2.234   8.285
33407W        W37368   7.843   0.860  10.009
33408W        W37369   9.172   2.922   8.473
33409W        W37370  10.922   1.482   8.654
33410W        W37371   9.144   0.115  10.373
33411W        W37372   9.924   2.820   9.452
33412W        W37373  10.227   3.164   9.160
33413W        W37374   9.446   2.966   7.588
33414W        W37375   7.456   2.858  10.430
33415W        W37376   8.199   0.850   9.668
33416W        W37377   8.169   0.198   8.778
33417W        W37378   9.790   1.040   9.470
33418W        W37379   8.588   2.211   7.670
33419W        W37380  10.586   2.153   9.169
33420W        W37381   7.913   2.911  10.592
33421W        W37382  10.300   3.593   8.389
33422W        W37383   8.399   0.613   8.834
33423W        W37384   8.168   2.106   8.924
33424W        W37385   8.481   3.517   9.674
33425W        W37386  10.548   3.613  10.706
33426W        W37387   9.707   1.801   9.639
33427W        W37388   7.556   1.599   7.554
33428W        W37389  10.690   3.257   8.251
33429W        W37390  10.527   0.581   7.870
33430W        W37391   8.666   0.100  10.273
33431W        W37392  10.372   2.902   8.731
33432W        W37393  10.401   1.458   8.636
33433W        W37394   8.518   1.131   8.852
33434W        W37395   8.763   1.393  10.176
33435W        W37396   9.874   2.546  10.039
33436W        W37397   8.524   1.000  10.151
33437W        W37398   8.503   3.466   8.767
33438W        W37399   7.820   3.425  10.401
33439W        W37400   7.932   2.786   7.531
33440W        W37401  10.449   2.544   8.341
33441W        W37402   8.053   1.336  10.227
33442W        W37403  10.826   1.266   7.708
33443W        W37404   8.571   2.323   8.179
33444W        W37405   9.670   1.705  10.260
33445W        W37406   9.561   1.333   9.804
33446W        W37407   8.121   1.705   9.833
33447W        W37408  10.331   3.593   9.662
33448W        W37409  10.122   0.227  10.656
33449W        W37410   7.786   0.377  10.243
33450W        W37411   8.125   1.400   9.296
33451W        W37412   8.494   1.214   7.418
33452W        W37413   7.297   2.973   9.963
33453W        W37414   8.882   1.682   9.406
33454W        W37415   8.705   0.707   7.511
33455W        W37416   7.840   1.523   8.292
33456W        W37417   7.611   3.375   9.729
33457W        W37418  10.406   1.601   7.837
33458W        W37419  10.501   0.517  10.523
33459W        W37420   9.937   2.726   8.486
33460W        W37421   7.535   1.650  10.663
33461W        W37422  10.501   0.114   7.959
33462W        W37423  10.021   2.589   7.970
33463W        W37424   8.923   1.647   8.055
33464W        W37425  10.110   0.451   7.578
33465W        W37426  10.175   1.058   9.764
33466W        W37427   7.884   1.651   8.971
33467W        W37428   8.178   2.590   8.620
33468W        W37429   9.941   1.210   8.585
33469W        W37430   8.964   0.589   9.281
33470W        W37431  10.926   2.500   9.792
33471W        W37432  10.844   0.487   9.353
33472W        W37433   7.383   3.317   8.729
33473W        W37434   7.892   2.504   8.265
33474W        W37435   7.807   0.121  10.818
33475W        W37436   8.926   2.974  10.920
33476W        W37437  10.681   1.942   8.710
33477W        W37438  10.035   2.119   7.590
33478W        W37439   9.330   3.640   9.802
33479W        W37440  10.187   2.362  10.839
33480W        W37441   9.002   0.072   8.119
33481W        W37442   9.715   0.941   8.978
33482W        W37443   7.401   2.528   9.310
33483W        W37444   8.654   0.490   7.951
33484W        W37445   8.458   1.974  10.800
33485W        W37446   9.452   0.955   8.514
33486W        W37447   9.657   2.365   9.636
33487W        W37448   7.811   2.970  10.071
33488W        W37449   8.402   2.953  10.794
33489W        W37450   8.253   0.750   7.808
33490W        W37451   9.770   0.892   8.133
33491W        W37452   9.728   3.000  10.370
33492W        W37453   8.413   1.592   8.969
33493W        W37454   8.068   3.290   9.834
33494W        W37455  10.813   3.407   7.435
33495W        W37456   7.676   2.079  10.431
33496W        W37457   9.671   2.341   9.119
33497W        W37458   8.107   1.990   8.361
33498W        W37459   8.478   2.997   9.756
33499W        W37460   8.856   0.416   8.797
33500W        W37461   7.467   2.400   7.727
33501W        W37462   8.986   1.351   7.597
33502W        W37463   7.632   1.900   8.616
33503W        W37464   8.922   0.542  10.080
33504W        W37465  10.594   0.251   7.507
33505W        W37466  10.687   1.997  10.606
33506W        W37467   9.341   3.254  10.758
33507W        W37468  10.899   2.348  10.280
33508W        W37469  10.307   3.146  10.891
33509W        W37470   8.046   3.602   9.369
33510W        W37471  10.905   2.224   8.243
33511W        W37472   9.435   1.491   8.756
33512W        W37473   9.202   0.103   8.646
33513W        W37474   8.261   3.087   8.483
33514W        W37475   8.760   0.828   9.708
33515W        W37476   8.460   0.197   9.177
33516W        W37477   7.523   3.019   7.725
33517W        W37478   9.339   2.383   8.443
33518W        W37479   8.214   3.178  10.322
33519W        W37480   7.691   2.001   8.018
33520W        W37481   7.576   0.544   9.017
33521W        W37482   9.124   2.509   9.074
33522W        W37483   7.376   0.363   8.094
33523W        W37484  10.040   1.569  10.021
33524W        W37485   9.917   0.955   7.593
33525W        W37486  10.434   2.627   9.241
33526W        W37487   9.095   3.111   9.072
33527W        W37488   8.507   3.215   7.983
33528W        W37489   9.789   0.118   7.413
33529W        W37490   7.589   3.378   9.154
33530W        W37491   9.786   1.136  10.789
33531W        W37492   7.500   1.266   8.121
33532W        W37493   8.191   1.255   7.846
33533W        W37494   9.954   1.582  10.663
33534W        W37495   8.297   1.863   9.372
33535W        W37496   9.771   0.149   8.492
33536W        W37497   8.902   3.580   8.995
33537W        W37498  10.116   3.042   9.932
33538W        W37499   9.700   3.191   9.043
33539W        W37500   9.719   2.171   8.637
33540W        W37501   9.181   0.396   7.708
33541W        W37502  10.862   0.024   8.430
33542W        W37503   8.550   1.659   7.593
33543W        W37504  10.716   0.996   8.583
33544W        W37505   9.408   2.166   7.460
33545W        W37506  10.344   2.366  10.208
33546W        W37507   9.998   3.067   7.675
33547W        W37508   8.613   0.742  10.581
33548W        W37509   8.433   1.326   9.822
33549W        W37510  10.525   2.821  10.099
33550W        W37511   9.625   0.771  10.476
33551W        W37512   7.469   1.242  10.253
33552W        W37513   9.229   1.719   9.979
33553W        W37514   7.586   2.477   8.636
33554W        W37515   7.733   1.774   9.526
33555W        W37516  10.050   2.060   9.876
33556W        W37517   9.822   3.440  10.687
33557W        W37518   9.718   1.179  10.240
33558W        W37519   9.995   3.233   8.645
33559W        W37520   8.997   2.953   9.968
33560W        W37521   8.482   3.308   9.237
33561W        W37522  10.287   2.479   9.656
33562W        W37523   9.337   2.551  10.793
33563W        W37524   7.942   2.504   9.132
33564W        W37525  10.288   2.263   8.777
33565W        W37526   9.929   3.329   9.528
33566W        W37527   7.907   3.058   9.398
33567W        W37528   8.928   1.110  10.608
33568W        W37529   9.379   3.276   8.119
33569W        W37530   8.687   2.531  10.757
33570W        W37531   8.813   2.769   8.134
33571W        W37532   8.034   1.509   7.393
33572W        W37533   7.373   3.595  14.292
33573W        W37534   7.749   2.488  13.815
33574W        W37535  10.454   2.218  11.585
33575W        W37536  10.584   3.303  13.612
33576W        W37537   8.502   3.294  11.138
33577W        W37538   8.585   1.446  12.121
33578W        W37539   8.100   1.294  12.285
33579W        W37540   9.091   2.109  11.719
33580W        W37541   8.766   3.201  14.074
33581W        W37542   7.415   0.762  14.037
33582W        W37543   8.177   0.042  13.839
33583W        W37544   9.871   0.430  12.726
33584W        W37545   9.520   1.301  11.296
33585W        W37546  10.090   0.735  14.387
33586W        W37547   7.456   0.527  13.512
33587W        W37548   7.555   3.146  14.533
33588W        W37549   9.077   2.536  11.265
33589W        W37550   7.509   1.319  12.958
33590W        W37551   8.402   1.210  14.195
33591W        W37552  10.861   1.069  12.694
33592W        W37553  10.625   2.112  13.553
33593W        W37554   8.933   1.445  12.580
33594W        W37555   9.479   2.784  12.949
33595W        W37556   8.374   1.718  13.944
33596W        W37557  10.645   1.501  14.198
33597W        W37558   8.261   2.945  12.643
33598W        W37559   9.382   2.634  13.777
33599W        W37560   8.602   1.274  13.002
33600W        W37561   8.894   2.058  12.645
33601W        W37562   9.891   2.831  14.493
33602W        W37563   8.970   2.151  14.503
33603W        W37564   8.951   1.867  13.981
33604W        W37565   7.360   1.258  14.503
33605W        W37566  10.192   2.793  14.102
33606W        W37567   7.773   0.375  12.100
33607W        W37568   8.300   2.633  13.099
33608W        W37569  10.763   2.416  12.389
33609W        W37570  10.176   0.816  12.956
33610W        W37571  10.461   0.769  11.051
33611W        W37572  10.926   1.570  13.357
33612W        W37573   8.893   3.277  13.110
33613W        W37574  10.667   2.743  11.548
33614W        W37575   7.796   3.529  11.302
33615W        W37576   8.189   3.575  11.978
33616W        W37577   7.986   0.329  13.404
33617W        W37578  10.609   1.347  13.679
33618W        W37579  10.014   1.769  12.138
33619W        W37580   9.980   1.457  11.165
33620W        W37581   9.188   2.601  13.305
33621W        W37582   8.994   0.931  12.504
33622W        W37583   9.594   3.018  13.498
33623W        W37584  10.465   1.809  11.920
33624W        W37585   9.367   0.467  11.936
33625W        W37586   8.024   3.161  11.619
33626W        W37587   7.395   0.660  12.218
33627W        W37588  10.181   1.267  12.692
33628W        W37589   7.639   2.884  12.607
33629W        W37590   8.980   3.234  11.477
33630W        W37591  10.372   1.260  10.941
33631W        W37592   7.395   3.018  13.105
33632W        W37593   8.186   2.590  13.585
33633W        W37594   8.559   1.950  12.204
33634W        W37595   8.581   0.355  13.297
33635W        W37596  10.810   0.117  12.594
33636W        W37597   8.029   1.989  11.062
33637W        W37598   7.684   1.022  11.241
33638W        W37599   7.746   2.978  12.035
33639W        W37600   8.877   2.461  12.283
33640W        W37601  10.209   3.320  13.997
33641W        W37602   9.135   0.962  11.681
33642W        W37603  10.518   3.360  12.453
33643W        W37604  10.195   1.213  14.051
33644W        W37605  10.908   2.869  12.185
33645W        W37606   9.535   2.161  13.669
33646W        W37607   7.301   1.712  11.875
33647W        W37608   8.412   2.127  13.448
33648W        W37609   9.616   1.391  11.826
33649W        W37610   9.493   1.881  11.930
33650W        W37611   7.836   1.301  13.404
33651W        W37612   7.821   1.177  14.326
33652W        W37613   7.711   0.094  12.485
33653W        W37614   9.479   0.441  13.046
33654W        W37615   9.127   0.626  14.209
33655W        W37616   9.482   0.775  11.387
33656W        W37617  10.665   3.168  14.141
33657W        W37618   9.632   0.249  14.180
33658W        W37619  10.651   2.550  14.302
33659W        W37620  10.081   0.717  13.898
33660W        W37621   9.881   0.655  12.168
33661W        W37622  10.274   1.789  14.572
33662W        W37623   8.014   3.365  12.558
33663W        W37624   8.672   1.082  11.544
33664W        W37625   8.241   0.366  14.208
33665W        W37626  10.293   0.850  11.889
33666W        W37627  10.660   1.332  11.834
33667W        W37628   8.403   3.549  14.305
33668W        W37629   8.329   0.085  11.540
33669W        W37630  10.650   0.619  12.575
33670W        W37631  10.800   2.868  11.020
33671W        W37632   7.707   2.071  12.722
33672W        W37633   9.624   0.658  10.952
33673W        W37634  10.758   2.990  12.672
33674W        W37635  10.797   0.184  13.422
33675W        W37636   9.242   1.396  13.976
33676W        W37637   9.335   2.735  11.679
33677W        W37638   9.735   2.029  14.419
33678W        W37639   9.409   0.006  12.728
33679W        W37640   8.021   0.909  12.791
33680W        W37641   7.575   2.109  13.565
33681W        W37642   9.434   3.302  12.271
33682W        W37643  10.628   0.899  13.143
33683W        W37644   9.265   3.246  13.910
33684W        W37645  10.608   2.305  11.115
33685W        W37646   9.043   1.788  12.176
33686W        W37647  10.895   0.299  13.917
33687W        W37648   9.044   2.134  13.511
33688W        W37649   9.261   1.020  12.956
33689W        W37650  10.113   1.318  11.794
33690W        W37651  10.400   1.051  11.436
33691W        W37652  10.209   3.091  11.825
33692W        W37653  10.043   2.694  12.621
33693W        W37654   9.939   1.773  11.599
33694W        W37655   9.372   1.983  12.585
33695W        W37656  10.253   1.771  12.652
33696W        W37657   7.628   0.786  13.076
33697W        W37658  10.406   1.838  13.903
33698W        W37659  10.757   3.456  13.049
33699W        W37660   8.687   2.900  12.451
33700W        W37661   9.694   3.433  13.775
33701W        W37662   9.688   0.763  13.539
33702W        W37663   8.895   3.471  13.600
33703W        W37664  10.592   0.425  12.066
33704W        W37665  10.383   1.744  13.367
33705W        W37666   7.366   1.065  13.405
33706W        W37667  10.226   0.860  12.423
33707W        W37668  10.637   1.011  14.200
33708W        W37669   9.522   2.710  12.418
33709W        W37670   8.778   3.301  12.031
33710W        W37671   7.893   0.481  11.289
33711W        W37672   8.997   0.135  13.099
33712W        W37673   8.025   3.255  10.947
33713W        W37674   8.399   1.721  11.698
33714W        W37675   9.053   2.350  14.011
33715W        W37676   8.883   0.708  12.001
33716W        W37677  10.239   0.305  12.429
33717W        W37678   9.959   3.587  12.757
33718W        W37679   9.371   3.235  13.097
33719W        W37680   8.767   2.272  13.058
33720W        W37681  10.537   2.995  13.184
33721W        W37682   8.231   0.498  11.953
33722W        W37683   8.753   2.795  12.913
33723W        W37684   8.236   0.726  10.978
33724W        W37685   9.037   1.335  13.372
33725W        W37686   9.885   0.201  13.242
33726W        W37687   9.009   1.862  11.285
33727W        W37688   8.277   0.177  11.055
33728W        W37689   9.015   1.258  12.106
33729W        W37690   9.985   0.234  13.805
33730W        W37691   8.573   2.246  13.914
33731W        W37692   9.377   2.028  14.131
33732W        W37693   9.994   2.058  14.024
33733W        W37694   9.278   0.198  14.529
33734W        W37695   8.500   0.814  12.922
33735W        W37696   7.926   0.770  12.320
33736W        W37697   7.712   3.482  11.996
33737W        W37698   9.044   2.812  14.121
33738W        W37699   8.079   2.297  11.480
33739W        W37700   9.759   1.682  12.701
33740W        W37701  10.039   1.481  13.100
33741W        W37702   9.244   2.155  13.034
33742W        W37703   9.714   2.529  11.166
33743W        W37704   9.386   0.550  12.494
33744W        W37705  10.865   0.828  11.762
33745W        W37706   7.359   3.417  13.793
33746W        W37707   7.343   3.489  11.557
33747W        W37708   9.242   0.759  13.363
33748W        W37709   8.605   2.782  11.212
33749W        W37710  10.510   3.164  11.398
33750W        W37711   9.485   1.817  11.412
33751W        W37712   8.328   1.008  11.929
33752W        W37713   9.160   0.918  10.981
33753W        W37714   9.744   2.483  14.159
33754W        W37715  10.097   0.389  11.776
33755W        W37716   7.427   0.237  11.224
33756W        W37717   8.713   2.556  13.514
33757W        W37718   8.512   2.472  12.606
33758W        W37719   8.254   2.424  11.004
33759W        W37720   7.495   2.665  11.772
33760W        W37721   7.999   1.735  14.214
33761W        W37722   8.703   0.295  14.400
33762W        W37723   9.412   0.437  13.756
33763W        W37724   8.607   0.205  12.037
33764W        W37725   9.666   0.282  11.542
33765W        W37726   7.611   0.214  13.119
33766W        W37727   7.659   1.177  12.489
33767W        W37728  10.348   0.285  12.895
33768W        W37729   7.770   0.783  11.709
33769W        W37730  10.341   0.471  13.325
33770W        W37731  10.737   1.674  11.010
33771W        W37732   8.029   0.432  12.829
33772W        W37733   9.143   1.004  13.769
33773W        W37734   7.291   0.694  11.247
33774W        W37735   8.077   2.083  13.808
33775W        W37736   9.435   1.481  12.987
33776W        W37737   9.302   3.560  11.283
33777W        W37738   7.448   2.067  10.980
33778W        W37739   8.183   2.478  14.106
33779W        W37740   7.704   1.645  13.737
33780W        W37741   8.695   1.750  13.531
33781W        W37742  10.463   0.109  13.793
33782W        W37743  10.861   1.719  13.784
33783W        W37744  10.849   1.919  11.470
33784W        W37745   9.712   2.251  11.569
33785W        W37746  10.186   3.551  11.264
33786W        W37747   9.363   1.541  14.406
33787W        W37748   7.693   2.508  14.446
33788W        W37749  10.899   0.430  14.398
33789W        W37750  10.617   1.358  13.019
33790W        W37751   8.925   3.488  14.496
33791W        W37752   8.780   0.117  11.223
33792W        W37753  10.319   2.716  11.166
33793W        W37754   8.088   0.809  14.052
33794W        W37755   8.522   2.803  13.914
33795W        W37756  10.648   0.794  13.712
33796W        W37757   9.859   3.453  11.680
33797W        W37758  10.098   2.072  13.047
33798W        W37759   8.348   0.488  13.714
33799W        W37760   8.817   1.557  14.471
33800W        W37761   8.320   2.736  11.665
33801W        W37762  10.075   2.234  11.929
33802W        W37763   7.843   0.860  13.653
33803W        W37764   9.172   2.922  12.117
33804W        W37765  10.922   1.482  12.298
33805W        W37766   9.144   0.115  14.017
33806W        W37767   9.924   2.820  13.096
33807W        W37768  10.227   3.164  12.804
33808W        W37769   9.446   2.966  11.232
33809W        W37770   7.456   2.858  14.074
33810W        W37771   8.199   0.850  13.312
33811W        W37772   8.169   0.198  12.422
33812W        W37773   9.790   1.040  13.114
33813W        W37774   8.588   2.211  11.314
33814W        W37775  10.586   2.153  12.813
33815W        W37776   7.913   2.911  14.236
33816W        W37777  10.300   3.593  12.033
33817W        W37778   8.399   0.613  12.478
33818W        W37779   8.168   2.106  12.568
33819W        W37780   8.481   3.517  13.318
33820W        W37781  10.548   3.613  14.350
33821W        W37782   9.707   1.801  13.283
33822W        W37783   7.556   1.599  11.198
33823W        W37784  10.690   3.257  11.895
33824W        W37785  10.527   0.581  11.514
33825W        W37786   8.666   0.100  13.917
33826W        W37787  10.372   2.902  12.375
33827W        W37788  10.401   1.458  12.280
33828W        W37789   8.518   1.131  12.496
33829W        W37790   8.763   1.393  13.820
33830W        W37791   9.874   2.546  13.683
33831W        W37792   8.524   1.000  13.795
33832W        W37793   8.503   3.466  12.411
33833W        W37794   7.820   3.425  14.045
33834W        W37795   7.932   2.786  11.175
33835W        W37796  10.449   2.544  11.985
33836W        W37797   8.053   1.336  13.871
33837W        W37798  10.826   1.266  11.352
33838W        W37799   8.571   2.323  11.823
33839W        W37800   9.670   1.705  13.904
33840W        W37801   9.561   1.333  13.448
33841W        W37802   8.121   1.705  13.477
33842W        W37803  10.331   3.593  13.306
33843W        W37804  10.122   0.227  14.300
33844W        W37805   7.786   0.377  13.887
33845W        W37806   8.125   1.400  12.940
33846W        W37807   8.494   1.214  11.062
33847W        W37808   7.297   2.973  13.607
33848W        W37809   8.882   1.682  13.050
33849W        W37810   8.705   0.707  11.155
33850W        W37811   7.840   1.523  11.936
33851W        W37812   7.611   3.375  13.373
33852W        W37813  10.406   1.601  11.481
33853W        W37814  10.501   0.517  14.167
33854W        W37815   9.937   2.726  12.130
33855W        W37816   7.535   1.650  14.307
33856W        W37817  10.501   0.114  11.603
33857W        W37818  10.021   2.589  11.614
33858W        W37819   8.923   1.647  11.699
33859W        W37820  10.110   0.451  11.222
33860W        W37821  10.175   1.058  13.408
33861W        W37822   7.884   1.651  12.615
33862W        W37823   8.178   2.590  12.264
33863W        W37824   9.941   1.210  12.229
33864W        W37825   8.964   0.589  12.925
33865W        W37826  10.926   2.500  13.436
33866W        W37827  10.844   0.487  12.997
33867W        W37828   7.383   3.317  12.373
33868W        W37829   7.892   2.504  11.909
33869W        W37830   7.807   0.121  14.462
33870W        W37831   8.926   2.974  14.564
33871W        W37832  10.681   1.942  12.354
33872W        W37833  10.035   2.119  11.234
33873W        W37834   9.330   3.640  13.446
33874W        W37835  10.187   2.362  14.483
33875W        W37836   9.002   0.072  11.763
33876W        W37837   9.715   0.941  12.622
33877W        W37838   8.654   0.490  11.595
33878W        W37839   8.458   1.974  14.444
33879W        W37840   9.452   0.955  12.158
33880W        W37841   9.657   2.365  13.280
33881W        W37842   7.811   2.970  13.715
33882W        W37843   8.402   2.953  14.438
33883W        W37844   8.253   0.750  11.452
33884W        W37845   9.770   0.892  11.777
33885W        W37846   9.728   3.000  14.014
33886W        W37847   8.413   1.592  12.613
33887W        W37848   8.068   3.290  13.478
33888W        W37849  10.813   3.407  11.079
33889W        W37850   7.676   2.079  14.075
33890W        W37851   9.671   2.341  12.763
33891W        W37852   8.107   1.990  12.005
33892W        W37853   8.478   2.997  13.400
33893W        W37854   8.856   0.416  12.441
33894W        W37855   7.467   2.400  11.371
33895W        W37856   8.986   1.351  11.241
33896W        W37857   7.632   1.900  12.260
33897W        W37858   8.922   0.542  13.724
33898W        W37859  10.594   0.251  11.151
33899W        W37860  10.687   1.997  14.250
33900W        W37861   9.341   3.254  14.402
33901W        W37862  10.899   2.348  13.924
33902W        W37863  10.307   3.146  14.535
33903W        W37864   8.046   3.602  13.013
33904W        W37865  10.905   2.224  11.887
33905W        W37866   9.435   1.491  12.400
33906W        W37867   9.202   0.103  12.290
33907W        W37868   8.261   3.087  12.127
33908W        W37869   8.760   0.828  13.352
33909W        W37870   8.460   0.197  12.821
33910W        W37871   7.523   3.019  11.369
33911W        W37872   9.339   2.383  12.087
33912W        W37873   8.214   3.178  13.966
33913W        W37874   7.691   2.001  11.662
33914W        W37875   7.576   0.544  12.661
33915W        W37876   9.124   2.509  12.718
33916W        W37877   7.376   0.363  11.738
33917W        W37878  10.040   1.569  13.665
33918W        W37879   9.917   0.955  11.237
33919W        W37880  10.434   2.627  12.885
33920W        W37881   9.095   3.111  12.716
33921W        W37882   8.507   3.215  11.627
33922W        W37883   9.789   0.118  11.057
33923W        W37884   7.589   3.378  12.798
33924W        W37885   9.786   1.136  14.433
33925W        W37886   7.769   0.666  14.432
33926W        W37887   7.500   1.266  11.765
33927W        W37888   8.191   1.255  11.490
33928W        W37889   9.954   1.582  14.307
33929W        W37890   8.297   1.863  13.016
33930W        W37891   9.771   0.149  12.136
33931W        W37892   8.902   3.580  12.639
33932W        W37893  10.116   3.042  13.576
33933W        W37894   9.700   3.191  12.687
33934W        W37895   9.719   2.171  12.281
33935W        W37896   9.181   0.396  11.352
33936W        W37897  10.862   0.024  12.074
33937W        W37898   8.550   1.659  11.237
33938W        W37899  10.716   0.996  12.227
33939W        W37900   9.408   2.166  11.104
33940W        W37901  10.344   2.366  13.852
33941W        W37902   9.998   3.067  11.319
33942W        W37903   8.613   0.742  14.225
33943W        W37904   8.433   1.326  13.466
33944W        W37905  10.525   2.821  13.743
33945W        W37906   9.625   0.771  14.120
33946W        W37907   7.469   1.242  13.897
33947W        W37908   9.229   1.719  13.623
33948W        W37909   7.586   2.477  12.280
33949W        W37910   7.733   1.774  13.170
33950W        W37911  10.050   2.060  13.520
33951W        W37912   9.822   3.440  14.331
33952W        W37913   9.718   1.179  13.884
33953W        W37914   9.995   3.233  12.289
33954W        W37915   8.997   2.953  13.612
33955W        W37916   8.482   3.308  12.881
33956W        W37917  10.287   2.479  13.300
33957W        W37918   9.337   2.551  14.437
33958W        W37919   7.942   2.504  12.776
33959W        W37920  10.288   2.263  12.421
33960W        W37921   9.929   3.329  13.172
33961W        W37922   7.907   3.058  13.042
33962W        W37923   8.928   1.110  14.252
33963W        W37924   9.379   3.276  11.763
33964W        W37925   8.687   2.531  14.401
33965W        W37926   8.813   2.769  11.778
33966W        W37927   8.034   1.509  11.037
33967W        W37928   7.373   3.595  17.936
33968W        W37929   7.749   2.488  17.459
33969W        W37930  10.454   2.218  15.229
33970W        W37931  10.584   3.303  17.256
33971W        W37932   8.502   3.294  14.782
33972W        W37933   8.585   1.446  15.765
33973W        W37934   8.100   1.294  15.929
33974W        W37935   9.091   2.109  15.363
33975W        W37936   8.766   3.201  17.718
33976W        W37937   7.415   0.762  17.681
33977W        W37938   8.177   0.042  17.483
33978W        W37939   9.871   0.430  16.370
33979W        W37940   9.520   1.301  14.940
33980W        W37941  10.090   0.735  18.031
33981W        W37942   7.456   0.527  17.156
33982W        W37943   7.555   3.146  18.177
33983W        W37944   9.077   2.536  14.909
33984W        W37945   7.509   1.319  16.602
33985W        W37946   8.402   1.210  17.839
33986W        W37947  10.861   1.069  16.338
33987W        W37948  10.625   2.112  17.197
33988W        W37949   8.933   1.445  16.224
33989W        W37950   9.479   2.784  16.593
33990W        W37951   7.979   2.218  16.825
33991W        W37952   7.338   1.746  16.396
33992W        W37953   8.374   1.718  17.588
33993W        W37954  10.645   1.501  17.842
33994W        W37955   8.261   2.945  16.287
33995W        W37956   9.382   2.634  17.421
33996W        W37957   8.602   1.274  16.646
33997W        W37958   8.894   2.058  16.289
33998W        W37959   9.891   2.831  18.137
33999W        W37960   8.970   2.151  18.147
34000W        W37961   8.951   1.867  17.625
34001W        W37962   7.360   1.258  18.147
34002W        W37963  10.192   2.793  17.746
34003W        W37964   7.773   0.375  15.744
34004W        W37965   8.300   2.633  16.743
34005W        W37966  10.763   2.416  16.033
34006W        W37967  10.176   0.816  16.600
34007W        W37968  10.461   0.769  14.695
34008W        W37969  10.926   1.570  17.001
34009W        W37970   8.893   3.277  16.754
34010W        W37971  10.667   2.743  15.192
34011W        W37972   7.796   3.529  14.946
34012W        W37973   8.189   3.575  15.622
34013W        W37974   7.986   0.329  17.048
34014W        W37975  10.609   1.347  17.323
34015W        W37976  10.014   1.769  15.782
34016W        W37977   9.980   1.457  14.809
34017W        W37978   9.188   2.601  16.949
34018W        W37979   8.994   0.931  16.148
34019W        W37980   9.594   3.018  17.142
34020W        W37981  10.465   1.809  15.564
34021W        W37982   9.367   0.467  15.580
34022W        W37983   8.024   3.161  15.263
34023W        W37984   7.395   0.660  15.862
34024W        W37985  10.181   1.267  16.336
34025W        W37986   7.639   2.884  16.251
34026W        W37987   8.980   3.234  15.121
34027W        W37988  10.372   1.260  14.585
34028W        W37989   7.395   3.018  16.749
34029W        W37990   8.186   2.590  17.229
34030W        W37991   8.559   1.950  15.848
34031W        W37992   8.581   0.355  16.941
34032W        W37993  10.810   0.117  16.238
34033W        W37994   8.029   1.989  14.706
34034W        W37995   7.684   1.022  14.885
34035W        W37996   7.746   2.978  15.679
34036W        W37997   8.877   2.461  15.927
34037W        W37998  10.209   3.320  17.641
34038W        W37999   9.135   0.962  15.325
34039W        W38000  10.518   3.360  16.097
34040W        W38001  10.195   1.213  17.695
34041W        W38002  10.908   2.869  15.829
34042W        W38003   9.535   2.161  17.313
34043W        W38004   7.301   1.712  15.519
34044W        W38005   8.412   2.127  17.092
34045W        W38006   9.616   1.391  15.470
34046W        W38007   9.493   1.881  15.574
34047W        W38008   7.836   1.301  17.048
34048W        W38009   7.821   1.177  17.970
34049W        W38010   7.711   0.094  16.129
34050W        W38011   9.479   0.441  16.690
34051W        W38012   9.127   0.626  17.853
34052W        W38013   9.482   0.775  15.031
34053W        W38014  10.665   3.168  17.785
34054W        W38015   9.632   0.249  17.824
34055W        W38016  10.651   2.550  17.946
34056W        W38017  10.081   0.717  17.542
34057W        W38018   9.881   0.655  15.812
34058W        W38019  10.274   1.789  18.216
34059W        W38020   8.014   3.365  16.202
34060W        W38021   8.672   1.082  15.188
34061W        W38022   8.241   0.366  17.852
34062W        W38023  10.293   0.850  15.533
34063W        W38024  10.660   1.332  15.478
34064W        W38025   8.403   3.549  17.949
34065W        W38026   8.329   0.085  15.184
34066W        W38027  10.650   0.619  16.219
34067W        W38028  10.800   2.868  14.664
34068W        W38029   7.707   2.071  16.366
34069W        W38030   9.624   0.658  14.596
34070W        W38031  10.758   2.990  16.316
34071W        W38032  10.797   0.184  17.066
34072W        W38033   9.242   1.396  17.620
34073W        W38034   9.335   2.735  15.323
34074W        W38035   9.735   2.029  18.063
34075W        W38036   9.409   0.006  16.372
34076W        W38037   8.021   0.909  16.435
34077W        W38038   7.575   2.109  17.209
34078W        W38039   9.434   3.302  15.915
34079W        W38040  10.628   0.899  16.787
34080W        W38041   9.265   3.246  17.554
34081W        W38042  10.608   2.305  14.759
34082W        W38043   9.043   1.788  15.820
34083W        W38044  10.895   0.299  17.561
34084W        W38045   9.044   2.134  17.155
34085W        W38046   9.261   1.020  16.600
34086W        W38047  10.113   1.318  15.438
34087W        W38048  10.400   1.051  15.080
34088W        W38049  10.209   3.091  15.469
34089W        W38050  10.043   2.694  16.265
34090W        W38051   9.939   1.773  15.243
34091W        W38052   9.372   1.983  16.229
34092W        W38053  10.253   1.771  16.296
34093W        W38054   7.628   0.786  16.720
34094W        W38055  10.406   1.838  17.547
34095W        W38056  10.757   3.456  16.693
34096W        W38057   8.687   2.900  16.095
34097W        W38058   9.694   3.433  17.419
34098W        W38059   9.688   0.763  17.183
34099W        W38060   8.895   3.471  17.244
34100W        W38061  10.592   0.425  15.710
34101W        W38062  10.383   1.744  17.011
34102W        W38063   7.366   1.065  17.049
34103W        W38064  10.226   0.860  16.067
34104W        W38065  10.637   1.011  17.844
34105W        W38066   9.522   2.710  16.062
34106W        W38067   8.778   3.301  15.675
34107W        W38068   7.893   0.481  14.933
34108W        W38069   8.997   0.135  16.743
34109W        W38070   8.025   3.255  14.591
34110W        W38071   8.399   1.721  15.342
34111W        W38072   9.053   2.350  17.655
34112W        W38073   8.883   0.708  15.645
34113W        W38074  10.239   0.305  16.073
34114W        W38075   9.959   3.587  16.401
34115W        W38076   9.371   3.235  16.741
34116W        W38077   8.767   2.272  16.702
34117W        W38078  10.537   2.995  16.828
34118W        W38079   8.231   0.498  15.597
34119W        W38080   8.753   2.795  16.557
34120W        W38081   8.236   0.726  14.622
34121W        W38082   9.037   1.335  17.016
34122W        W38083   9.885   0.201  16.886
34123W        W38084   7.305   2.044  16.771
34124W        W38085   9.009   1.862  14.929
34125W        W38086   8.277   0.177  14.699
34126W        W38087   9.015   1.258  15.750
34127W        W38088   9.985   0.234  17.449
34128W        W38089   8.573   2.246  17.558
34129W        W38090   9.377   2.028  17.775
34130W        W38091   9.994   2.058  17.668
34131W        W38092   9.278   0.198  18.173
34132W        W38093   8.500   0.814  16.566
34133W        W38094   7.926   0.770  15.964
34134W        W38095   7.712   3.482  15.640
34135W        W38096   9.044   2.812  17.765
34136W        W38097   8.079   2.297  15.124
34137W        W38098   9.759   1.682  16.345
34138W        W38099  10.039   1.481  16.744
34139W        W38100   9.244   2.155  16.678
34140W        W38101   9.714   2.529  14.810
34141W        W38102   9.386   0.550  16.138
34142W        W38103  10.865   0.828  15.406
34143W        W38104   7.359   3.417  17.437
34144W        W38105   7.776   2.643  16.969
34145W        W38106   7.343   3.489  15.201
34146W        W38107   9.242   0.759  17.007
34147W        W38108   8.605   2.782  14.856
34148W        W38109  10.510   3.164  15.042
34149W        W38110   9.485   1.817  15.056
34150W        W38111   8.328   1.008  15.573
34151W        W38112   9.160   0.918  14.625
34152W        W38113   9.744   2.483  17.803
34153W        W38114  10.097   0.389  15.420
34154W        W38115   7.427   0.237  14.868
34155W        W38116   8.713   2.556  17.158
34156W        W38117   8.512   2.472  16.250
34157W        W38118   8.254   2.424  14.648
34158W        W38119   7.495   2.665  15.416
34159W        W38120   7.999   1.735  17.858
34160W        W38121   8.703   0.295  18.044
34161W        W38122   9.412   0.437  17.400
34162W        W38123   8.607   0.205  15.681
34163W        W38124   9.666   0.282  15.186
34164W        W38125   7.611   0.214  16.763
34165W        W38126   7.659   1.177  16.133
34166W        W38127  10.348   0.285  16.539
34167W        W38128   7.770   0.783  15.353
34168W        W38129  10.341   0.471  16.969
34169W        W38130  10.737   1.674  14.654
34170W        W38131   8.029   0.432  16.473
34171W        W38132   9.143   1.004  17.413
34172W        W38133   7.291   0.694  14.891
34173W        W38134   8.077   2.083  17.452
34174W        W38135   9.435   1.481  16.631
34175W        W38136   9.302   3.560  14.927
34176W        W38137   7.448   2.067  14.624
34177W        W38138   8.183   2.478  17.750
34178W        W38139   7.704   1.645  17.381
34179W        W38140   8.695   1.750  17.175
34180W        W38141  10.463   0.109  17.437
34181W        W38142  10.861   1.719  17.428
34182W        W38143  10.849   1.919  15.114
34183W        W38144   9.712   2.251  15.213
34184W        W38145  10.186   3.551  14.908
34185W        W38146   9.363   1.541  18.050
34186W        W38147   7.693   2.508  18.090
34187W        W38148  10.899   0.430  18.042
34188W        W38149  10.617   1.358  16.663
34189W        W38150   8.925   3.488  18.140
34190W        W38151   8.780   0.117  14.867
34191W        W38152  10.319   2.716  14.810
34192W        W38153   8.088   0.809  17.696
34193W        W38154   8.522   2.803  17.558
34194W        W38155  10.648   0.794  17.356
34195W        W38156   9.859   3.453  15.324
34196W        W38157  10.098   2.072  16.691
34197W        W38158   8.348   0.488  17.358
34198W        W38159   8.817   1.557  18.115
34199W        W38160   8.320   2.736  15.309
34200W        W38161  10.075   2.234  15.573
34201W        W38162   7.843   0.860  17.297
34202W        W38163   9.172   2.922  15.761
34203W        W38164  10.922   1.482  15.942
34204W        W38165   9.144   0.115  17.661
34205W        W38166   9.924   2.820  16.740
34206W        W38167  10.227   3.164  16.448
34207W        W38168   9.446   2.966  14.876
34208W        W38169   7.456   2.858  17.718
34209W        W38170   8.199   0.850  16.956
34210W        W38171   8.169   0.198  16.066
34211W        W38172   9.790   1.040  16.758
34212W        W38173   8.588   2.211  14.958
34213W        W38174  10.586   2.153  16.457
34214W        W38175   7.913   2.911  17.880
34215W        W38176  10.300   3.593  15.677
34216W        W38177   8.399   0.613  16.122
34217W        W38178   8.168   2.106  16.212
34218W        W38179   8.481   3.517  16.962
34219W        W38180  10.548   3.613  17.994
34220W        W38181   9.707   1.801  16.927
34221W        W38182   7.556   1.599  14.842
34222W        W38183  10.690   3.257  15.539
34223W        W38184  10.527   0.581  15.158
34224W        W38185   8.666   0.100  17.561
34225W        W38186  10.372   2.902  16.019
34226W        W38187  10.401   1.458  15.924
34227W        W38188   8.518   1.131  16.140
34228W        W38189   8.763   1.393  17.464
34229W        W38190   9.874   2.546  17.327
34230W        W38191   8.524   1.000  17.439
34231W        W38192   8.503   3.466  16.055
34232W        W38193   7.820   3.425  17.689
34233W        W38194   7.932   2.786  14.819
34234W        W38195  10.449   2.544  15.629
34235W        W38196   8.053   1.336  17.515
34236W        W38197  10.826   1.266  14.996
34237W        W38198   8.571   2.323  15.467
34238W        W38199   9.670   1.705  17.548
34239W        W38200   9.561   1.333  17.092
34240W        W38201   8.121   1.705  17.121
34241W        W38202  10.331   3.593  16.950
34242W        W38203  10.122   0.227  17.944
34243W        W38204   7.786   0.377  17.531
34244W        W38205   8.125   1.400  16.584
34245W        W38206   8.494   1.214  14.706
34246W        W38207   7.297   2.973  17.251
34247W        W38208   8.882   1.682  16.694
34248W        W38209   8.705   0.707  14.799
34249W        W38210   7.840   1.523  15.580
34250W        W38211   7.611   3.375  17.017
34251W        W38212  10.406   1.601  15.125
34252W        W38213  10.501   0.517  17.811
34253W        W38214   9.937   2.726  15.774
34254W        W38215   7.535   1.650  17.951
34255W        W38216  10.501   0.114  15.247
34256W        W38217  10.021   2.589  15.258
34257W        W38218   8.923   1.647  15.343
34258W        W38219  10.110   0.451  14.866
34259W        W38220  10.175   1.058  17.052
34260W        W38221   7.884   1.651  16.259
34261W        W38222   8.178   2.590  15.908
34262W        W38223   9.941   1.210  15.873
34263W        W38224   8.964   0.589  16.569
34264W        W38225  10.926   2.500  17.080
34265W        W38226  10.844   0.487  16.641
34266W        W38227   7.383   3.317  16.017
34267W        W38228   7.892   2.504  15.553
34268W        W38229   7.807   0.121  18.106
34269W        W38230   8.926   2.974  18.208
34270W        W38231  10.681   1.942  15.998
34271W        W38232  10.035   2.119  14.878
34272W        W38233   9.330   3.640  17.090
34273W        W38234  10.187   2.362  18.127
34274W        W38235   9.002   0.072  15.407
34275W        W38236   9.715   0.941  16.266
34276W        W38237   7.401   2.528  16.598
34277W        W38238   8.654   0.490  15.239
34278W        W38239   8.458   1.974  18.088
34279W        W38240   9.452   0.955  15.802
34280W        W38241   9.657   2.365  16.924
34281W        W38242   7.811   2.970  17.359
34282W        W38243   8.402   2.953  18.082
34283W        W38244   8.253   0.750  15.096
34284W        W38245   9.770   0.892  15.421
34285W        W38246   9.728   3.000  17.658
34286W        W38247   8.413   1.592  16.257
34287W        W38248   8.068   3.290  17.122
34288W        W38249  10.813   3.407  14.723
34289W        W38250   7.676   2.079  17.719
34290W        W38251   9.671   2.341  16.407
34291W        W38252   8.107   1.990  15.649
34292W        W38253   8.478   2.997  17.044
34293W        W38254   8.856   0.416  16.085
34294W        W38255   7.467   2.400  15.015
34295W        W38256   8.986   1.351  14.885
34296W        W38257   7.632   1.900  15.904
34297W        W38258   8.922   0.542  17.368
34298W        W38259  10.594   0.251  14.795
34299W        W38260  10.687   1.997  17.894
34300W        W38261   9.341   3.254  18.046
34301W        W38262  10.899   2.348  17.568
34302W        W38263  10.307   3.146  18.179
34303W        W38264   8.046   3.602  16.657
34304W        W38265  10.905   2.224  15.531
34305W        W38266   9.435   1.491  16.044
34306W        W38267   9.202   0.103  15.934
34307W        W38268   8.261   3.087  15.771
34308W        W38269   8.760   0.828  16.996
34309W        W38270   8.460   0.197  16.465
34310W        W38271   7.523   3.019  15.013
34311W        W38272   9.339   2.383  15.731
34312W        W38273   8.214   3.178  17.610
34313W        W38274   7.691   2.001  15.306
34314W        W38275   7.576   0.544  16.305
34315W        W38276   9.124   2.509  16.362
34316W        W38277   7.376   0.363  15.382
34317W        W38278  10.040   1.569  17.309
34318W        W38279   9.917   0.955  14.881
34319W        W38280  10.434   2.627  16.529
34320W        W38281   9.095   3.111  16.360
34321W        W38282   8.507   3.215  15.271
34322W        W38283   9.789   0.118  14.701
34323W        W38284   7.589   3.378  16.442
34324W        W38285   9.786   1.136  18.077
34325W        W38286   7.769   0.666  18.076
34326W        W38287   7.500   1.266  15.409
34327W        W38288   8.191   1.255  15.134
34328W        W38289   9.954   1.582  17.951
34329W        W38290   8.297   1.863  16.660
34330W        W38291   9.771   0.149  15.780
34331W        W38292   8.902   3.580  16.283
34332W        W38293  10.116   3.042  17.220
34333W        W38294   9.700   3.191  16.331
34334W        W38295   9.719   2.171  15.925
34335W        W38296   9.181   0.396  14.996
34336W        W38297  10.862   0.024  15.718
34337W        W38298   8.550   1.659  14.881
34338W        W38299  10.716   0.996  15.871
34339W        W38300   9.408   2.166  14.748
34340W        W38301  10.344   2.366  17.496
34341W        W38302   9.998   3.067  14.963
34342W        W38303   8.613   0.742  17.869
34343W        W38304   8.433   1.326  17.110
34344W        W38305  10.525   2.821  17.387
34345W        W38306   9.625   0.771  17.764
34346W        W38307   7.469   1.242  17.541
34347W        W38308   9.229   1.719  17.267
34348W        W38309   7.586   2.477  15.924
34349W        W38310   7.733   1.774  16.814
34350W        W38311  10.050   2.060  17.164
34351W        W38312   9.822   3.440  17.975
34352W        W38313   9.718   1.179  17.528
34353W        W38314   9.995   3.233  15.933
34354W        W38315   8.997   2.953  17.256
34355W        W38316   8.482   3.308  16.525
34356W        W38317  10.287   2.479  16.944
34357W        W38318   9.337   2.551  18.081
34358W        W38319   7.942   2.504  16.420
34359W        W38320  10.288   2.263  16.065
34360W        W38321   9.929   3.329  16.816
34361W        W38322   7.907   3.058  16.686
34362W        W38323   8.928   1.110  17.896
34363W        W38324   9.379   3.276  15.407
34364W        W38325   8.687   2.531  18.045
34365W        W38326   8.813   2.769  15.422
34366W        W38327   8.034   1.509  14.681
34367W        W38328   7.373   3.595  21.580
34368W        W38329   7.749   2.488  21.103
34369W        W38330  10.454   2.218  18.873
34370W        W38331  10.584   3.303  20.900
34371W        W38332   8.502   3.294  18.426
34372W        W38333   8.585   1.446  19.409
34373W        W38334   8.100   1.294  19.573
34374W        W38335   9.091   2.109  19.007
34375W        W38336   8.766   3.201  21.362
34376W        W38337   7.415   0.762  21.325
34377W        W38338   8.177   0.042  21.127
34378W        W38339   9.871   0.430  20.014
34379W        W38340   9.520   1.301  18.584
34380W        W38341  10.090   0.735  21.675
34381W        W38342   7.456   0.527  20.800
34382W        W38343   7.555   3.146  21.821
34383W        W38344   9.077   2.536  18.553
34384W        W38345   7.509   1.319  20.246
34385W        W38346   8.402   1.210  21.483
34386W        W38347  10.861   1.069  19.982
34387W        W38348  10.625   2.112  20.841
34388W        W38349   8.933   1.445  19.868
34389W        W38350   9.479   2.784  20.237
34390W        W38351   7.979   2.218  20.469
34391W        W38352   7.338   1.746  20.040
34392W        W38353   8.374   1.718  21.232
34393W        W38354  10.645   1.501  21.486
34394W        W38355   8.261   2.945  19.931
34395W        W38356   9.382   2.634  21.065
34396W        W38357   8.602   1.274  20.290
34397W        W38358   8.894   2.058  19.933
34398W        W38359   9.891   2.831  21.781
34399W        W38360   8.970   2.151  21.791
34400W        W38361   8.951   1.867  21.269
34401W        W38362   7.360   1.258  21.791
34402W        W38363  10.192   2.793  21.390
34403W        W38364   7.773   0.375  19.388
34404W        W38365   8.300   2.633  20.387
34405W        W38366  10.763   2.416  19.677
34406W        W38367  10.176   0.816  20.244
34407W        W38368  10.461   0.769  18.339
34408W        W38369  10.926   1.570  20.645
34409W        W38370   8.893   3.277  20.398
34410W        W38371  10.667   2.743  18.836
34411W        W38372   7.796   3.529  18.590
34412W        W38373   8.189   3.575  19.266
34413W        W38374   7.986   0.329  20.692
34414W        W38375  10.609   1.347  20.967
34415W        W38376  10.014   1.769  19.426
34416W        W38377   9.980   1.457  18.453
34417W        W38378   9.188   2.601  20.593
34418W        W38379   8.994   0.931  19.792
34419W        W38380   9.594   3.018  20.786
34420W        W38381  10.465   1.809  19.208
34421W        W38382   9.367   0.467  19.224
34422W        W38383   8.024   3.161  18.907
34423W        W38384   7.395   0.660  19.506
34424W        W38385  10.181   1.267  19.980
34425W        W38386   7.639   2.884  19.895
34426W        W38387   8.980   3.234  18.765
34427W        W38388  10.372   1.260  18.229
34428W        W38389   7.395   3.018  20.393
34429W        W38390   8.186   2.590  20.873
34430W        W38391   8.559   1.950  19.492
34431W        W38392   8.581   0.355  20.585
34432W        W38393  10.810   0.117  19.882
34433W        W38394   8.029   1.989  18.350
34434W        W38395   7.684   1.022  18.529
34435W        W38396   7.746   2.978  19.323
34436W        W38397   8.877   2.461  19.571
34437W        W38398  10.209   3.320  21.285
34438W        W38399   9.135   0.962  18.969
34439W        W38400  10.518   3.360  19.741
34440W        W38401  10.195   1.213  21.339
34441W        W38402  10.908   2.869  19.473
34442W        W38403   9.535   2.161  20.957
34443W        W38404   7.301   1.712  19.163
34444W        W38405   8.412   2.127  20.736
34445W        W38406   9.616   1.391  19.114
34446W        W38407   9.493   1.881  19.218
34447W        W38408   7.836   1.301  20.692
34448W        W38409   7.821   1.177  21.614
34449W        W38410   7.711   0.094  19.773
34450W        W38411   9.479   0.441  20.334
34451W        W38412   9.127   0.626  21.497
34452W        W38413   9.482   0.775  18.675
34453W        W38414  10.665   3.168  21.429
34454W        W38415   9.632   0.249  21.468
34455W        W38416  10.651   2.550  21.590
34456W        W38417  10.081   0.717  21.186
34457W        W38418   9.881   0.655  19.456
34458W        W38419  10.274   1.789  21.860
34459W        W38420   8.014   3.365  19.846
34460W        W38421   8.672   1.082  18.832
34461W        W38422   8.241   0.366  21.496
34462W        W38423  10.293   0.850  19.177
34463W        W38424  10.660   1.332  19.122
34464W        W38425   8.403   3.549  21.593
34465W        W38426   8.329   0.085  18.828
34466W        W38427  10.650   0.619  19.863
34467W        W38428  10.800   2.868  18.308
34468W        W38429   7.707   2.071  20.010
34469W        W38430   9.624   0.658  18.240
34470W        W38431  10.758   2.990  19.960
34471W        W38432  10.797   0.184  20.710
34472W        W38433   9.242   1.396  21.264
34473W        W38434   9.335   2.735  18.967
34474W        W38435   9.735   2.029  21.707
34475W        W38436   9.409   0.006  20.016
34476W        W38437   8.021   0.909  20.079
34477W        W38438   7.575   2.109  20.853
34478W        W38439   9.434   3.302  19.559
34479W        W38440  10.628   0.899  20.431
34480W        W38441   9.265   3.246  21.198
34481W        W38442  10.608   2.305  18.403
34482W        W38443   9.043   1.788  19.464
34483W        W38444  10.895   0.299  21.205
34484W        W38445   9.044   2.134  20.799
34485W        W38446   9.261   1.020  20.244
34486W        W38447  10.113   1.318  19.082
34487W        W38448  10.400   1.051  18.724
34488W        W38449  10.209   3.091  19.113
34489W        W38450  10.043   2.694  19.909
34490W        W38451   9.939   1.773  18.887
34491W        W38452   9.372   1.983  19.873
34492W        W38453  10.253   1.771  19.940
34493W        W38454   7.628   0.786  20.364
34494W        W38455  10.406   1.838  21.191
34495W        W38456  10.757   3.456  20.337
34496W        W38457   8.687   2.900  19.739
34497W        W38458   9.694   3.433  21.063
34498W        W38459   9.688   0.763  20.827
34499W        W38460   8.895   3.471  20.888
34500W        W38461  10.592   0.425  19.354
34501W        W38462  10.383   1.744  20.655
34502W        W38463   7.366   1.065  20.693
34503W        W38464  10.226   0.860  19.711
34504W        W38465  10.637   1.011  21.488
34505W        W38466   9.522   2.710  19.706
34506W        W38467   8.778   3.301  19.319
34507W        W38468   8.997   0.135  20.387
34508W        W38469   8.025   3.255  18.235
34509W        W38470   8.399   1.721  18.986
34510W        W38471   9.053   2.350  21.299
34511W        W38472   8.883   0.708  19.289
34512W        W38473  10.239   0.305  19.717
34513W        W38474   9.959   3.587  20.045
34514W        W38475   9.371   3.235  20.385
34515W        W38476   8.767   2.272  20.346
34516W        W38477  10.537   2.995  20.472
34517W        W38478   8.231   0.498  19.241
34518W        W38479   8.753   2.795  20.201
34519W        W38480   8.236   0.726  18.266
34520W        W38481   9.037   1.335  20.660
34521W        W38482   9.885   0.201  20.530
34522W        W38483   7.305   2.044  20.415
34523W        W38484   9.009   1.862  18.573
34524W        W38485   8.277   0.177  18.343
34525W        W38486   9.015   1.258  19.394
34526W        W38487   9.985   0.234  21.093
34527W        W38488   8.573   2.246  21.202
34528W        W38489   9.377   2.028  21.419
34529W        W38490   9.994   2.058  21.312
34530W        W38491   9.278   0.198  21.817
34531W        W38492   8.500   0.814  20.210
34532W        W38493   7.926   0.770  19.608
34533W        W38494   7.712   3.482  19.284
34534W        W38495   9.044   2.812  21.409
34535W        W38496   8.079   2.297  18.768
34536W        W38497   9.759   1.682  19.989
34537W        W38498  10.039   1.481  20.388
34538W        W38499   9.244   2.155  20.322
34539W        W38500   9.714   2.529  18.454
34540W        W38501   9.386   0.550  19.782
34541W        W38502  10.865   0.828  19.050
34542W        W38503   7.359   3.417  21.081
34543W        W38504   7.776   2.643  20.613
34544W        W38505   7.343   3.489  18.845
34545W        W38506   9.242   0.759  20.651
34546W        W38507   8.605   2.782  18.500
34547W        W38508  10.510   3.164  18.686
34548W        W38509   9.485   1.817  18.700
34549W        W38510   8.328   1.008  19.217
34550W        W38511   9.160   0.918  18.269
34551W        W38512   9.744   2.483  21.447
34552W        W38513  10.097   0.389  19.064
34553W        W38514   7.427   0.237  18.512
34554W        W38515   8.713   2.556  20.802
34555W        W38516   8.512   2.472  19.894
34556W        W38517   8.254   2.424  18.292
34557W        W38518   7.495   2.665  19.060
34558W        W38519   7.999   1.735  21.502
34559W        W38520   8.703   0.295  21.688
34560W        W38521   9.412   0.437  21.044
34561W        W38522   8.607   0.205  19.325
34562W        W38523   9.666   0.282  18.830
34563W        W38524   7.611   0.214  20.407
34564W        W38525   7.659   1.177  19.777
34565W        W38526  10.348   0.285  20.183
34566W        W38527   7.770   0.783  18.997
34567W        W38528  10.341   0.471  20.613
34568W        W38529  10.737   1.674  18.298
34569W        W38530   8.029   0.432  20.117
34570W        W38531   9.143   1.004  21.057
34571W        W38532   7.291   0.694  18.535
34572W        W38533   8.077   2.083  21.096
34573W        W38534   9.435   1.481  20.275
34574W        W38535   9.302   3.560  18.571
34575W        W38536   7.448   2.067  18.268
34576W        W38537   8.183   2.478  21.394
34577W        W38538   7.704   1.645  21.025
34578W        W38539   8.695   1.750  20.819
34579W        W38540  10.463   0.109  21.081
34580W        W38541  10.861   1.719  21.072
34581W        W38542  10.849   1.919  18.758
34582W        W38543   9.712   2.251  18.857
34583W        W38544  10.186   3.551  18.552
34584W        W38545   9.363   1.541  21.694
34585W        W38546   7.693   2.508  21.734
34586W        W38547  10.899   0.430  21.686
34587W        W38548  10.617   1.358  20.307
34588W        W38549   8.925   3.488  21.784
34589W        W38550   8.780   0.117  18.511
34590W        W38551  10.319   2.716  18.454
34591W        W38552   8.088   0.809  21.340
34592W        W38553   8.522   2.803  21.202
34593W        W38554  10.648   0.794  21.000
34594W        W38555   9.859   3.453  18.968
34595W        W38556  10.098   2.072  20.335
34596W        W38557   8.348   0.488  21.002
34597W        W38558   8.817   1.557  21.759
34598W        W38559   8.320   2.736  18.953
34599W        W38560  10.075   2.234  19.217
34600W        W38561   7.843   0.860  20.941
34601W        W38562   9.172   2.922  19.405
34602W        W38563  10.922   1.482  19.586
34603W        W38564   9.144   0.115  21.305
34604W        W38565   9.924   2.820  20.384
34605W        W38566  10.227   3.164  20.092
34606W        W38567   9.446   2.966  18.520
34607W        W38568   7.456   2.858  21.362
34608W        W38569   8.199   0.850  20.600
34609W        W38570   8.169   0.198  19.710
34610W        W38571   9.790   1.040  20.402
34611W        W38572   8.588   2.211  18.602
34612W        W38573  10.586   2.153  20.101
34613W        W38574   7.913   2.911  21.524
34614W        W38575  10.300   3.593  19.321
34615W        W38576   8.399   0.613  19.766
34616W        W38577   8.168   2.106  19.856
34617W        W38578   8.481   3.517  20.606
34618W        W38579  10.548   3.613  21.638
34619W        W38580   9.707   1.801  20.571
34620W        W38581   7.556   1.599  18.486
34621W        W38582  10.690   3.257  19.183
34622W        W38583  10.527   0.581  18.802
34623W        W38584   8.666   0.100  21.205
34624W        W38585  10.372   2.902  19.663
34625W        W38586  10.401   1.458  19.568
34626W        W38587   8.518   1.131  19.784
34627W        W38588   8.763   1.393  21.108
34628W        W38589   9.874   2.546  20.971
34629W        W38590   8.524   1.000  21.083
34630W        W38591   8.503   3.466  19.699
34631W        W38592   7.820   3.425  21.333
34632W        W38593   7.932   2.786  18.463
34633W        W38594  10.449   2.544  19.273
34634W        W38595   8.053   1.336  21.159
34635W        W38596  10.826   1.266  18.640
34636W        W38597   8.571   2.323  19.111
34637W        W38598   9.670   1.705  21.192
34638W        W38599   9.561   1.333  20.736
34639W        W38600   8.121   1.705  20.765
34640W        W38601  10.331   3.593  20.594
34641W        W38602  10.122   0.227  21.588
34642W        W38603   7.786   0.377  21.175
34643W        W38604   8.125   1.400  20.228
34644W        W38605   8.494   1.214  18.350
34645W        W38606   7.297   2.973  20.895
34646W        W38607   8.882   1.682  20.338
34647W        W38608   8.705   0.707  18.443
34648W        W38609   7.840   1.523  19.224
34649W        W38610   7.611   3.375  20.661
34650W        W38611  10.406   1.601  18.769
34651W        W38612  10.501   0.517  21.455
34652W        W38613   9.937   2.726  19.418
34653W        W38614   7.535   1.650  21.595
34654W        W38615  10.501   0.114  18.891
34655W        W38616  10.021   2.589  18.902
34656W        W38617   8.923   1.647  18.987
34657W        W38618  10.110   0.451  18.510
34658W        W38619  10.175   1.058  20.696
34659W        W38620   7.884   1.651  19.903
34660W        W38621   8.178   2.590  19.552
34661W        W38622   9.941   1.210  19.517
34662W        W38623   8.964   0.589  20.213
34663W        W38624  10.926   2.500  20.724
34664W        W38625  10.844   0.487  20.285
34665W        W38626   7.383   3.317  19.661
34666W        W38627   7.892   2.504  19.197
34667W        W38628   7.807   0.121  21.750
34668W        W38629   8.926   2.974  21.852
34669W        W38630  10.681   1.942  19.642
34670W        W38631  10.035   2.119  18.522
34671W        W38632   9.330   3.640  20.734
34672W        W38633  10.187   2.362  21.771
34673W        W38634   9.002   0.072  19.051
34674W        W38635   9.715   0.941  19.910
34675W        W38636   7.401   2.528  20.242
34676W        W38637   8.654   0.490  18.883
34677W        W38638   8.458   1.974  21.732
34678W        W38639   9.452   0.955  19.446
34679W        W38640   9.657   2.365  20.568
34680W        W38641   7.811   2.970  21.003
34681W        W38642   8.402   2.953  21.726
34682W        W38643   8.253   0.750  18.740
34683W        W38644   9.770   0.892  19.065
34684W        W38645   9.728   3.000  21.302
34685W        W38646   8.413   1.592  19.901
34686W        W38647   8.068   3.290  20.766
34687W        W38648  10.813   3.407  18.367
34688W        W38649   7.676   2.079  21.363
34689W        W38650   9.671   2.341  20.051
34690W        W38651   8.107   1.990  19.293
34691W        W38652   8.478   2.997  20.688
34692W        W38653   8.856   0.416  19.729
34693W        W38654   7.467   2.400  18.659
34694W        W38655   8.986   1.351  18.529
34695W        W38656   7.632   1.900  19.548
34696W        W38657   8.922   0.542  21.012
34697W        W38658  10.594   0.251  18.439
34698W        W38659  10.687   1.997  21.538
34699W        W38660   9.341   3.254  21.690
34700W        W38661  10.899   2.348  21.212
34701W        W38662  10.307   3.146  21.823
34702W        W38663   8.046   3.602  20.301
34703W        W38664  10.905   2.224  19.175
34704W        W38665   9.435   1.491  19.688
34705W        W38666   9.202   0.103  19.578
34706W        W38667   8.261   3.087  19.415
34707W        W38668   8.760   0.828  20.640
34708W        W38669   8.460   0.197  20.109
34709W        W38670   7.523   3.019  18.657
34710W        W38671   9.339   2.383  19.375
34711W        W38672   8.214   3.178  21.254
34712W        W38673   7.691   2.001  18.950
34713W        W38674   7.576   0.544  19.949
34714W        W38675   9.124   2.509  20.006
34715W        W38676   7.376   0.363  19.026
34716W        W38677  10.040   1.569  20.953
34717W        W38678   9.917   0.955  18.525
34718W        W38679  10.434   2.627  20.173
34719W        W38680   9.095   3.111  20.004
34720W        W38681   8.507   3.215  18.915
34721W        W38682   9.789   0.118  18.345
34722W        W38683   7.589   3.378  20.086
34723W        W38684   9.786   1.136  21.721
34724W        W38685   7.769   0.666  21.720
34725W        W38686   7.500   1.266  19.053
34726W        W38687   8.191   1.255  18.778
34727W        W38688   9.954   1.582  21.595
34728W        W38689   8.297   1.863  20.304
34729W        W38690   9.771   0.149  19.424
34730W        W38691   8.902   3.580  19.927
34731W        W38692  10.116   3.042  20.864
34732W        W38693   9.700   3.191  19.975
34733W        W38694   9.719   2.171  19.569
34734W        W38695   9.181   0.396  18.640
34735W        W38696  10.862   0.024  19.362
34736W        W38697   8.550   1.659  18.525
34737W        W38698  10.716   0.996  19.515
34738W        W38699   9.408   2.166  18.392
34739W        W38700  10.344   2.366  21.140
34740W        W38701   9.998   3.067  18.607
34741W        W38702   8.613   0.742  21.513
34742W        W38703   8.433   1.326  20.754
34743W        W38704  10.525   2.821  21.031
34744W        W38705   9.625   0.771  21.408
34745W        W38706   7.469   1.242  21.185
34746W        W38707   9.229   1.719  20.911
34747W        W38708   7.586   2.477  19.568
34748W        W38709   7.733   1.774  20.458
34749W        W38710  10.050   2.060  20.808
34750W        W38711   9.822   3.440  21.619
34751W        W38712   9.718   1.179  21.172
34752W        W38713   9.995   3.233  19.577
34753W        W38714   8.997   2.953  20.900
34754W        W38715   8.482   3.308  20.169
34755W        W38716  10.287   2.479  20.588
34756W        W38717   9.337   2.551  21.725
34757W        W38718   7.942   2.504  20.064
34758W        W38719  10.288   2.263  19.709
34759W        W38720   9.929   3.329  20.460
34760W        W38721   7.907   3.058  20.330
34761W        W38722   8.928   1.110  21.540
34762W        W38723   9.379   3.276  19.051
34763W        W38724   8.687   2.531  21.689
34764W        W38725   8.813   2.769  19.066
34765W        W38726   8.034   1.509  18.325
34766W        W38727  10.454   2.218  22.518
34767W        W38728   8.502   3.294  22.071
34768W        W38729   8.585   1.446  23.054
34769W        W38730   8.100   1.294  23.218
34770W        W38731   9.091   2.109  22.652
34771W        W38732   9.520   1.301  22.229
34772W        W38733   9.077   2.536  22.198
34773W        W38734   7.773   0.375  23.033
34774W        W38735  10.461   0.769  21.984
34775W        W38736  10.667   2.743  22.481
34776W        W38737   7.796   3.529  22.235
34777W        W38738   8.189   3.575  22.911
34778W        W38739  10.014   1.769  23.071
34779W        W38740   9.980   1.457  22.098
34780W        W38741  10.465   1.809  22.853
34781W        W38742   9.367   0.467  22.869
34782W        W38743   8.024   3.161  22.552
34783W        W38744   8.980   3.234  22.410
34784W        W38745  10.372   1.260  21.874
34785W        W38746   8.559   1.950  23.137
34786W        W38747   8.029   1.989  21.995
34787W        W38748   7.684   1.022  22.174
34788W        W38749   7.746   2.978  22.968
34789W        W38750   8.877   2.461  23.216
34790W        W38751   9.135   0.962  22.614
34791W        W38752   7.301   1.712  22.808
34792W        W38753   9.616   1.391  22.759
34793W        W38754   9.493   1.881  22.863
34794W        W38755   9.482   0.775  22.320
34795W        W38756   9.881   0.655  23.101
34796W        W38757   8.672   1.082  22.477
34797W        W38758  10.293   0.850  22.822
34798W        W38759  10.660   1.332  22.767
34799W        W38760   8.329   0.085  22.473
34800W        W38761  10.800   2.868  21.953
34801W        W38762   9.624   0.658  21.885
34802W        W38763   9.335   2.735  22.612
34803W        W38764   9.434   3.302  23.204
34804W        W38765  10.608   2.305  22.048
34805W        W38766   9.043   1.788  23.109
34806W        W38767  10.113   1.318  22.727
34807W        W38768  10.400   1.051  22.369
34808W        W38769  10.209   3.091  22.758
34809W        W38770   9.939   1.773  22.532
34810W        W38771  10.592   0.425  22.999
34811W        W38772   8.778   3.301  22.964
34812W        W38773   7.893   0.481  22.222
34813W        W38774   8.025   3.255  21.880
34814W        W38775   8.399   1.721  22.631
34815W        W38776   8.883   0.708  22.934
34816W        W38777   8.231   0.498  22.886
34817W        W38778   8.236   0.726  21.911
34818W        W38779   9.009   1.862  22.218
34819W        W38780   8.277   0.177  21.988
34820W        W38781   9.015   1.258  23.039
34821W        W38782   7.926   0.770  23.253
34822W        W38783   7.712   3.482  22.929
34823W        W38784   8.079   2.297  22.413
34824W        W38785   9.714   2.529  22.099
34825W        W38786  10.865   0.828  22.695
34826W        W38787   7.343   3.489  22.490
34827W        W38788   8.605   2.782  22.145
34828W        W38789  10.510   3.164  22.331
34829W        W38790   9.485   1.817  22.345
34830W        W38791   8.328   1.008  22.862
34831W        W38792   9.160   0.918  21.914
34832W        W38793  10.097   0.389  22.709
34833W        W38794   7.427   0.237  22.157
34834W        W38795   8.254   2.424  21.937
34835W        W38796   7.495   2.665  22.705
34836W        W38797   8.607   0.205  22.970
34837W        W38798   9.666   0.282  22.475
34838W        W38799   7.770   0.783  22.642
34839W        W38800  10.737   1.674  21.943
34840W        W38801   7.291   0.694  22.180
34841W        W38802   9.302   3.560  22.216
34842W        W38803   7.448   2.067  21.913
34843W        W38804  10.849   1.919  22.403
34844W        W38805   9.712   2.251  22.502
34845W        W38806  10.186   3.551  22.197
34846W        W38807   8.780   0.117  22.156
34847W        W38808  10.319   2.716  22.099
34848W        W38809   9.859   3.453  22.613
34849W        W38810   8.320   2.736  22.598
34850W        W38811  10.075   2.234  22.862
34851W        W38812   9.172   2.922  23.050
34852W        W38813  10.922   1.482  23.231
34853W        W38814   9.446   2.966  22.165
34854W        W38815   8.588   2.211  22.247
34855W        W38816  10.300   3.593  22.966
34856W        W38817   7.556   1.599  22.131
34857W        W38818  10.690   3.257  22.828
34858W        W38819  10.527   0.581  22.447
34859W        W38820  10.401   1.458  23.213
34860W        W38821   7.932   2.786  22.108
34861W        W38822  10.449   2.544  22.918
34862W        W38823  10.826   1.266  22.285
34863W        W38824   8.571   2.323  22.756
34864W        W38825   8.494   1.214  21.995
34865W        W38826   8.705   0.707  22.088
34866W        W38827   7.840   1.523  22.869
34867W        W38828  10.406   1.601  22.414
34868W        W38829   9.937   2.726  23.063
34869W        W38830  10.501   0.114  22.536
34870W        W38831  10.021   2.589  22.547
34871W        W38832   8.923   1.647  22.632
34872W        W38833  10.110   0.451  22.155
34873W        W38834   8.178   2.590  23.197
34874W        W38835   9.941   1.210  23.162
34875W        W38836   7.383   3.317  23.306
34876W        W38837   7.892   2.504  22.842
34877W        W38838  10.681   1.942  23.287
34878W        W38839  10.035   2.119  22.167
34879W        W38840   9.002   0.072  22.696
34880W        W38841   8.654   0.490  22.528
34881W        W38842   9.452   0.955  23.091
34882W        W38843   8.253   0.750  22.385
34883W        W38844   9.770   0.892  22.710
34884W        W38845  10.813   3.407  22.012
34885W        W38846   7.467   2.400  22.304
34886W        W38847   8.986   1.351  22.174
34887W        W38848   7.632   1.900  23.193
34888W        W38849  10.594   0.251  22.084
34889W        W38850  10.905   2.224  22.820
34890W        W38851   9.202   0.103  23.223
34891W        W38852   8.261   3.087  23.060
34892W        W38853   7.523   3.019  22.302
34893W        W38854   9.339   2.383  23.020
34894W        W38855   7.691   2.001  22.595
34895W        W38856   7.376   0.363  22.671
34896W        W38857   9.917   0.955  22.170
34897W        W38858   8.507   3.215  22.560
34898W        W38859   9.789   0.118  21.990
34899W        W38860   7.500   1.266  22.698
34900W        W38861   8.191   1.255  22.423
34901W        W38862   9.719   2.171  23.214
34902W        W38863   9.181   0.396  22.285
34903W        W38864  10.862   0.024  23.007
34904W        W38865   8.550   1.659  22.170
34905W        W38866  10.716   0.996  23.160
34906W        W38867   9.408   2.166  22.037
34907W        W38868   9.998   3.067  22.252
34908W        W38869   7.586   2.477  23.213
34909W        W38870   9.995   3.233  23.222
34910W        W38871   9.379   3.276  22.696
34911W        W38872   8.813   2.769  22.711
34912W        W38873   8.034   1.509  21.970
34913W        W38874   7.373   7.239   3.359
34914W        W38875   7.749   6.132   2.882
34915W        W38876  10.454   5.862   0.652
34916W        W38877  10.584   6.947   2.679
34917W        W38878   8.502   6.938   0.205
34918W        W38879   8.585   5.090   1.188
34919W        W38880   8.100   4.938   1.352
34920W        W38881   9.091   5.753   0.786
34921W        W38882   8.766   6.845   3.141
34922W        W38883   7.415   4.406   3.104
34923W        W38884   8.177   3.686   2.906
34924W        W38885   9.871   4.074   1.793
34925W        W38886   9.520   4.945   0.363
34926W        W38887  10.090   4.379   3.454
34927W        W38888   7.456   4.171   2.579
34928W        W38889   7.555   6.790   3.600
34929W        W38890   9.077   6.180   0.332
34930W        W38891   7.509   4.963   2.025
34931W        W38892   8.402   4.854   3.262
34932W        W38893  10.861   4.713   1.761
34933W        W38894  10.625   5.756   2.620
34934W        W38895   8.933   5.089   1.647
34935W        W38896   9.479   6.428   2.016
34936W        W38897   7.979   5.862   2.248
34937W        W38898   7.338   5.390   1.819
34938W        W38899   8.374   5.362   3.011
34939W        W38900  10.645   5.145   3.265
34940W        W38901   8.261   6.589   1.710
34941W        W38902   9.382   6.278   2.844
34942W        W38903   8.602   4.918   2.069
34943W        W38904   8.894   5.702   1.712
34944W        W38905   9.891   6.475   3.560
34945W        W38906   8.970   5.795   3.570
34946W        W38907   8.951   5.511   3.048
34947W        W38908   7.360   4.902   3.570
34948W        W38909  10.192   6.437   3.169
34949W        W38910   7.773   4.019   1.167
34950W        W38911   8.300   6.277   2.166
34951W        W38912  10.763   6.060   1.456
34952W        W38913  10.176   4.460   2.023
34953W        W38914  10.461   4.413   0.118
34954W        W38915  10.926   5.214   2.424
34955W        W38916   8.893   6.921   2.177
34956W        W38917  10.667   6.387   0.615
34957W        W38918   7.796   7.173   0.369
34958W        W38919   8.189   7.219   1.045
34959W        W38920   7.986   3.973   2.471
34960W        W38921  10.609   4.991   2.746
34961W        W38922   9.980   5.101   0.232
34962W        W38923   9.188   6.245   2.372
34963W        W38924   8.994   4.575   1.571
34964W        W38925   9.594   6.662   2.565
34965W        W38926  10.465   5.453   0.987
34966W        W38927   9.367   4.111   1.003
34967W        W38928   8.024   6.805   0.686
34968W        W38929   7.395   4.304   1.285
34969W        W38930  10.181   4.911   1.759
34970W        W38931   7.639   6.528   1.674
34971W        W38932   8.980   6.878   0.544
34972W        W38933  10.372   4.904   0.008
34973W        W38934   7.395   6.662   2.172
34974W        W38935   8.186   6.234   2.652
34975W        W38936   8.559   5.594   1.271
34976W        W38937   8.581   3.999   2.364
34977W        W38938  10.810   3.761   1.661
34978W        W38939   8.029   5.633   0.129
34979W        W38940   7.684   4.666   0.308
34980W        W38941   7.746   6.622   1.102
34981W        W38942   8.877   6.105   1.350
34982W        W38943  10.209   6.964   3.064
34983W        W38944   9.135   4.606   0.748
34984W        W38945  10.518   7.004   1.520
34985W        W38946  10.195   4.857   3.118
34986W        W38947  10.908   6.513   1.252
34987W        W38948   9.535   5.805   2.736
34988W        W38949   7.301   5.356   0.942
34989W        W38950   8.412   5.771   2.515
34990W        W38951   9.616   5.035   0.893
34991W        W38952   9.493   5.525   0.997
34992W        W38953   7.836   4.945   2.471
34993W        W38954   7.821   4.821   3.393
34994W        W38955   7.711   3.738   1.552
34995W        W38956   9.479   4.085   2.113
34996W        W38957   9.127   4.270   3.276
34997W        W38958   9.482   4.419   0.454
34998W        W38959  10.665   6.812   3.208
34999W        W38960   9.632   3.893   3.247
35000W        W38961  10.651   6.194   3.369
35001W        W38962  10.081   4.361   2.965
35002W        W38963   9.881   4.299   1.235
35003W        W38964  10.274   5.433   3.639
35004W        W38965   8.014   7.009   1.625
35005W        W38966   8.672   4.726   0.611
35006W        W38967   8.241   4.010   3.275
35007W        W38968  10.293   4.494   0.956
35008W        W38969  10.660   4.976   0.901
35009W        W38970   8.403   7.193   3.372
35010W        W38971   8.329   3.729   0.607
35011W        W38972  10.650   4.263   1.642
35012W        W38973  10.800   6.512   0.087
35013W        W38974   7.707   5.715   1.789
35014W        W38975   9.624   4.302   0.019
35015W        W38976  10.758   6.634   1.739
35016W        W38977  10.797   3.828   2.489
35017W        W38978   9.242   5.040   3.043
35018W        W38979   9.335   6.379   0.746
35019W        W38980   9.735   5.673   3.486
35020W        W38981   9.409   3.650   1.795
35021W        W38982   8.021   4.553   1.858
35022W        W38983   7.575   5.753   2.632
35023W        W38984   9.434   6.946   1.338
35024W        W38985  10.628   4.543   2.210
35025W        W38986   9.265   6.890   2.977
35026W        W38987  10.608   5.949   0.182
35027W        W38988   9.043   5.432   1.243
35028W        W38989  10.895   3.943   2.984
35029W        W38990   9.044   5.778   2.578
35030W        W38991   9.261   4.664   2.023
35031W        W38992  10.113   4.962   0.861
35032W        W38993  10.400   4.695   0.503
35033W        W38994  10.209   6.735   0.892
35034W        W38995  10.043   6.338   1.688
35035W        W38996   9.939   5.417   0.666
35036W        W38997  10.253   5.415   1.719
35037W        W38998   7.628   4.430   2.143
35038W        W38999  10.406   5.482   2.970
35039W        W39000  10.757   7.100   2.116
35040W        W39001   8.687   6.544   1.518
35041W        W39002   9.694   7.077   2.842
35042W        W39003   9.688   4.407   2.606
35043W        W39004   8.895   7.115   2.667
35044W        W39005  10.592   4.069   1.133
35045W        W39006  10.383   5.388   2.434
35046W        W39007   7.366   4.709   2.472
35047W        W39008  10.226   4.504   1.490
35048W        W39009  10.637   4.655   3.267
35049W        W39010   9.522   6.354   1.485
35050W        W39011   8.778   6.945   1.098
35051W        W39012   7.893   4.125   0.356
35052W        W39013   8.997   3.779   2.166
35053W        W39014   8.025   6.899   0.014
35054W        W39015   8.399   5.365   0.765
35055W        W39016   9.053   5.994   3.078
35056W        W39017   8.883   4.352   1.068
35057W        W39018  10.239   3.949   1.496
35058W        W39019   9.959   7.231   1.824
35059W        W39020   9.371   6.879   2.164
35060W        W39021   8.767   5.916   2.125
35061W        W39022  10.537   6.639   2.251
35062W        W39023   8.231   4.142   1.020
35063W        W39024   8.753   6.439   1.980
35064W        W39025   8.236   4.370   0.045
35065W        W39026   9.037   4.979   2.439
35066W        W39027   9.885   3.845   2.309
35067W        W39028   7.305   5.688   2.194
35068W        W39029   9.009   5.506   0.352
35069W        W39030   8.277   3.821   0.122
35070W        W39031   9.015   4.902   1.173
35071W        W39032   9.985   3.878   2.872
35072W        W39033   8.573   5.890   2.981
35073W        W39034   9.377   5.672   3.198
35074W        W39035   9.994   5.702   3.091
35075W        W39036   9.278   3.842   3.596
35076W        W39037   8.500   4.458   1.989
35077W        W39038   7.926   4.414   1.387
35078W        W39039   7.712   7.126   1.063
35079W        W39040   9.044   6.456   3.188
35080W        W39041   8.079   5.941   0.547
35081W        W39042  10.039   5.125   2.167
35082W        W39043   9.244   5.799   2.101
35083W        W39044   9.714   6.173   0.233
35084W        W39045   9.386   4.194   1.561
35085W        W39046  10.865   4.472   0.829
35086W        W39047   7.359   7.061   2.860
35087W        W39048   7.776   6.287   2.392
35088W        W39049   7.343   7.133   0.624
35089W        W39050   9.242   4.403   2.430
35090W        W39051   8.605   6.426   0.279
35091W        W39052  10.510   6.808   0.465
35092W        W39053   9.485   5.461   0.479
35093W        W39054   8.328   4.652   0.996
35094W        W39055   9.160   4.562   0.048
35095W        W39056   9.744   6.127   3.226
35096W        W39057  10.097   4.033   0.843
35097W        W39058   7.427   3.881   0.291
35098W        W39059   8.713   6.200   2.581
35099W        W39060   8.512   6.116   1.673
35100W        W39061   8.254   6.068   0.071
35101W        W39062   7.495   6.309   0.839
35102W        W39063   7.999   5.379   3.281
35103W        W39064   8.703   3.939   3.467
35104W        W39065   9.412   4.081   2.823
35105W        W39066   8.607   3.849   1.104
35106W        W39067   9.666   3.926   0.609
35107W        W39068   7.611   3.858   2.186
35108W        W39069   7.659   4.821   1.556
35109W        W39070  10.348   3.929   1.962
35110W        W39071   7.770   4.427   0.776
35111W        W39072  10.341   4.115   2.392
35112W        W39073  10.737   5.318   0.077
35113W        W39074   8.029   4.076   1.896
35114W        W39075   9.143   4.648   2.836
35115W        W39076   7.291   4.338   0.314
35116W        W39077   8.077   5.727   2.875
35117W        W39078   9.435   5.125   2.054
35118W        W39079   9.302   7.204   0.350
35119W        W39080   7.448   5.711   0.047
35120W        W39081   8.183   6.122   3.173
35121W        W39082   7.704   5.289   2.804
35122W        W39083   8.695   5.394   2.598
35123W        W39084  10.463   3.753   2.860
35124W        W39085  10.861   5.363   2.851
35125W        W39086  10.849   5.563   0.537
35126W        W39087   9.712   5.895   0.636
35127W        W39088  10.186   7.195   0.331
35128W        W39089   9.363   5.185   3.473
35129W        W39090   7.693   6.152   3.513
35130W        W39091  10.899   4.074   3.465
35131W        W39092  10.617   5.002   2.086
35132W        W39093   8.925   7.132   3.563
35133W        W39094   8.780   3.761   0.290
35134W        W39095  10.319   6.360   0.233
35135W        W39096   8.088   4.453   3.119
35136W        W39097   8.522   6.447   2.981
35137W        W39098  10.648   4.438   2.779
35138W        W39099   9.859   7.097   0.747
35139W        W39100  10.098   5.716   2.114
35140W        W39101   8.348   4.132   2.781
35141W        W39102   8.817   5.201   3.538
35142W        W39103   8.320   6.380   0.732
35143W        W39104  10.075   5.878   0.996
35144W        W39105   7.843   4.504   2.720
35145W        W39106   9.172   6.566   1.184
35146W        W39107  10.922   5.126   1.365
35147W        W39108   9.144   3.759   3.084
35148W        W39109   9.924   6.464   2.163
35149W        W39110  10.227   6.808   1.871
35150W        W39111   9.446   6.610   0.299
35151W        W39112   7.456   6.502   3.141
35152W        W39113   8.199   4.494   2.379
35153W        W39114   8.169   3.842   1.489
35154W        W39115   9.790   4.684   2.181
35155W        W39116   8.588   5.855   0.381
35156W        W39117  10.586   5.797   1.880
35157W        W39118   7.913   6.555   3.303
35158W        W39119  10.300   7.237   1.100
35159W        W39120   8.399   4.257   1.545
35160W        W39121   8.168   5.750   1.635
35161W        W39122   8.481   7.161   2.385
35162W        W39123  10.548   7.257   3.417
35163W        W39124   9.707   5.445   2.350
35164W        W39125   7.556   5.243   0.265
35165W        W39126  10.690   6.901   0.962
35166W        W39127  10.527   4.225   0.581
35167W        W39128   8.666   3.744   2.984
35168W        W39129  10.372   6.546   1.442
35169W        W39130  10.401   5.102   1.347
35170W        W39131   8.518   4.775   1.563
35171W        W39132   8.763   5.037   2.887
35172W        W39133   9.874   6.190   2.750
35173W        W39134   8.524   4.644   2.862
35174W        W39135   8.503   7.110   1.478
35175W        W39136   7.820   7.069   3.112
35176W        W39137   7.932   6.430   0.242
35177W        W39138  10.449   6.188   1.052
35178W        W39139   8.053   4.980   2.938
35179W        W39140  10.826   4.910   0.419
35180W        W39141   8.571   5.967   0.890
35181W        W39142   9.670   5.349   2.971
35182W        W39143   9.561   4.977   2.515
35183W        W39144   8.121   5.349   2.544
35184W        W39145  10.331   7.237   2.373
35185W        W39146  10.122   3.871   3.367
35186W        W39147   7.786   4.021   2.954
35187W        W39148   8.125   5.044   2.007
35188W        W39149   8.494   4.858   0.129
35189W        W39150   7.297   6.617   2.674
35190W        W39151   8.882   5.326   2.117
35191W        W39152   8.705   4.351   0.222
35192W        W39153   7.840   5.167   1.003
35193W        W39154   7.611   7.019   2.440
35194W        W39155  10.406   5.245   0.548
35195W        W39156  10.501   4.161   3.234
35196W        W39157   9.937   6.370   1.197
35197W        W39158   7.535   5.294   3.374
35198W        W39159  10.501   3.758   0.670
35199W        W39160  10.021   6.233   0.681
35200W        W39161   8.923   5.291   0.766
35201W        W39162  10.110   4.095   0.289
35202W        W39163  10.175   4.702   2.475
35203W        W39164   7.884   5.295   1.682
35204W        W39165   8.178   6.234   1.331
35205W        W39166   9.941   4.854   1.296
35206W        W39167   8.964   4.233   1.992
35207W        W39168  10.926   6.144   2.503
35208W        W39169  10.844   4.131   2.064
35209W        W39170   7.383   6.961   1.440
35210W        W39171   7.892   6.148   0.976
35211W        W39172   7.807   3.765   3.529
35212W        W39173   8.926   6.618   3.631
35213W        W39174  10.681   5.586   1.421
35214W        W39175  10.035   5.763   0.301
35215W        W39176   9.330   7.284   2.513
35216W        W39177  10.187   6.006   3.550
35217W        W39178   9.002   3.716   0.830
35218W        W39179   9.715   4.585   1.689
35219W        W39180   7.401   6.172   2.021
35220W        W39181   8.654   4.134   0.662
35221W        W39182   8.458   5.618   3.511
35222W        W39183   9.657   6.009   2.347
35223W        W39184   7.811   6.614   2.782
35224W        W39185   8.402   6.597   3.505
35225W        W39186   8.253   4.394   0.519
35226W        W39187   9.770   4.536   0.844
35227W        W39188   9.728   6.644   3.081
35228W        W39189   8.413   5.236   1.680
35229W        W39190   8.068   6.934   2.545
35230W        W39191  10.813   7.051   0.146
35231W        W39192   7.676   5.723   3.142
35232W        W39193   9.671   5.985   1.830
35233W        W39194   8.107   5.634   1.072
35234W        W39195   8.478   6.641   2.467
35235W        W39196   8.856   4.060   1.508
35236W        W39197   7.467   6.044   0.438
35237W        W39198   8.986   4.995   0.308
35238W        W39199   7.632   5.544   1.327
35239W        W39200   8.922   4.186   2.791
35240W        W39201  10.594   3.895   0.218
35241W        W39202  10.687   5.641   3.317
35242W        W39203   9.341   6.898   3.469
35243W        W39204  10.899   5.992   2.991
35244W        W39205  10.307   6.790   3.602
35245W        W39206   8.046   7.246   2.080
35246W        W39207  10.905   5.868   0.954
35247W        W39208   9.435   5.135   1.467
35248W        W39209   9.202   3.747   1.357
35249W        W39210   8.261   6.731   1.194
35250W        W39211   8.760   4.472   2.419
35251W        W39212   8.460   3.841   1.888
35252W        W39213   7.523   6.663   0.436
35253W        W39214   9.339   6.027   1.154
35254W        W39215   8.214   6.822   3.033
35255W        W39216   7.691   5.645   0.729
35256W        W39217   7.576   4.188   1.728
35257W        W39218   9.124   6.153   1.785
35258W        W39219   7.376   4.007   0.805
35259W        W39220  10.040   5.213   2.732
35260W        W39221   9.917   4.599   0.304
35261W        W39222  10.434   6.271   1.952
35262W        W39223   9.095   6.755   1.783
35263W        W39224   8.507   6.859   0.694
35264W        W39225   9.789   3.762   0.124
35265W        W39226   7.589   7.022   1.865
35266W        W39227   9.786   4.780   3.500
35267W        W39228   7.769   4.310   3.499
35268W        W39229   7.500   4.910   0.832
35269W        W39230   8.191   4.899   0.557
35270W        W39231   9.954   5.226   3.374
35271W        W39232   8.297   5.507   2.083
35272W        W39233   9.771   3.793   1.203
35273W        W39234   8.902   7.224   1.706
35274W        W39235  10.116   6.686   2.643
35275W        W39236   9.700   6.835   1.754
35276W        W39237   9.719   5.815   1.348
35277W        W39238   9.181   4.040   0.419
35278W        W39239  10.862   3.668   1.141
35279W        W39240   8.550   5.303   0.304
35280W        W39241  10.716   4.640   1.294
35281W        W39242   9.408   5.810   0.171
35282W        W39243  10.344   6.010   2.919
35283W        W39244   9.998   6.711   0.386
35284W        W39245   8.613   4.386   3.292
35285W        W39246   8.433   4.970   2.533
35286W        W39247  10.525   6.465   2.810
35287W        W39248   9.625   4.415   3.187
35288W        W39249   7.469   4.886   2.964
35289W        W39250   9.229   5.363   2.690
35290W        W39251   7.586   6.121   1.347
35291W        W39252   7.733   5.418   2.237
35292W        W39253  10.050   5.704   2.587
35293W        W39254   9.822   7.084   3.398
35294W        W39255   9.718   4.823   2.951
35295W        W39256   9.995   6.877   1.356
35296W        W39257   8.997   6.597   2.679
35297W        W39258   8.482   6.952   1.948
35298W        W39259  10.287   6.123   2.367
35299W        W39260   9.337   6.195   3.504
35300W        W39261   7.942   6.148   1.843
35301W        W39262  10.288   5.907   1.488
35302W        W39263   9.929   6.973   2.239
35303W        W39264   7.907   6.702   2.109
35304W        W39265   8.928   4.754   3.319
35305W        W39266   9.379   6.920   0.830
35306W        W39267   8.687   6.175   3.468
35307W        W39268   8.813   6.413   0.845
35308W        W39269   8.034   5.153   0.104
35309W        W39270   7.373   7.239   7.003
35310W        W39271   7.749   6.132   6.526
35311W        W39272  10.454   5.862   4.296
35312W        W39273  10.584   6.947   6.323
35313W        W39274   8.502   6.938   3.849
35314W        W39275   8.585   5.090   4.832
35315W        W39276   8.100   4.938   4.996
35316W        W39277   9.091   5.753   4.430
35317W        W39278   8.766   6.845   6.785
35318W        W39279   7.415   4.406   6.748
35319W        W39280   8.177   3.686   6.550
35320W        W39281   9.871   4.074   5.437
35321W        W39282   9.520   4.945   4.007
35322W        W39283  10.090   4.379   7.098
35323W        W39284   7.456   4.171   6.223
35324W        W39285   7.555   6.790   7.244
35325W        W39286   9.077   6.180   3.976
35326W        W39287   7.509   4.963   5.669
35327W        W39288   8.402   4.854   6.906
35328W        W39289  10.861   4.713   5.405
35329W        W39290  10.625   5.756   6.264
35330W        W39291   8.933   5.089   5.291
35331W        W39292   9.479   6.428   5.660
35332W        W39293   7.979   5.862   5.892
35333W        W39294   7.338   5.390   5.463
35334W        W39295   8.374   5.362   6.655
35335W        W39296  10.645   5.145   6.909
35336W        W39297   8.261   6.589   5.354
35337W        W39298   9.382   6.278   6.488
35338W        W39299   8.602   4.918   5.713
35339W        W39300   8.894   5.702   5.356
35340W        W39301   9.891   6.475   7.204
35341W        W39302   8.970   5.795   7.214
35342W        W39303   8.951   5.511   6.692
35343W        W39304   7.360   4.902   7.214
35344W        W39305  10.192   6.437   6.813
35345W        W39306   7.773   4.019   4.811
35346W        W39307   8.300   6.277   5.810
35347W        W39308  10.763   6.060   5.100
35348W        W39309  10.176   4.460   5.667
35349W        W39310  10.461   4.413   3.762
35350W        W39311  10.926   5.214   6.068
35351W        W39312   8.893   6.921   5.821
35352W        W39313  10.667   6.387   4.259
35353W        W39314   7.796   7.173   4.013
35354W        W39315   8.189   7.219   4.689
35355W        W39316   7.986   3.973   6.115
35356W        W39317  10.609   4.991   6.390
35357W        W39318  10.014   5.413   4.849
35358W        W39319   9.980   5.101   3.876
35359W        W39320   9.188   6.245   6.016
35360W        W39321   8.994   4.575   5.215
35361W        W39322   9.594   6.662   6.209
35362W        W39323  10.465   5.453   4.631
35363W        W39324   9.367   4.111   4.647
35364W        W39325   8.024   6.805   4.330
35365W        W39326   7.395   4.304   4.929
35366W        W39327  10.181   4.911   5.403
35367W        W39328   7.639   6.528   5.318
35368W        W39329   8.980   6.878   4.188
35369W        W39330  10.372   4.904   3.652
35370W        W39331   7.395   6.662   5.816
35371W        W39332   8.186   6.234   6.296
35372W        W39333   8.559   5.594   4.915
35373W        W39334   8.581   3.999   6.008
35374W        W39335  10.810   3.761   5.305
35375W        W39336   8.029   5.633   3.773
35376W        W39337   7.684   4.666   3.952
35377W        W39338   7.746   6.622   4.746
35378W        W39339   8.877   6.105   4.994
35379W        W39340  10.209   6.964   6.708
35380W        W39341   9.135   4.606   4.392
35381W        W39342  10.518   7.004   5.164
35382W        W39343  10.195   4.857   6.762
35383W        W39344  10.908   6.513   4.896
35384W        W39345   9.535   5.805   6.380
35385W        W39346   7.301   5.356   4.586
35386W        W39347   8.412   5.771   6.159
35387W        W39348   9.616   5.035   4.537
35388W        W39349   9.493   5.525   4.641
35389W        W39350   7.836   4.945   6.115
35390W        W39351   7.821   4.821   7.037
35391W        W39352   7.711   3.738   5.196
35392W        W39353   9.479   4.085   5.757
35393W        W39354   9.127   4.270   6.920
35394W        W39355   9.482   4.419   4.098
35395W        W39356  10.665   6.812   6.852
35396W        W39357   9.632   3.893   6.891
35397W        W39358  10.651   6.194   7.013
35398W        W39359  10.081   4.361   6.609
35399W        W39360   9.881   4.299   4.879
35400W        W39361  10.274   5.433   7.283
35401W        W39362   8.014   7.009   5.269
35402W        W39363   8.672   4.726   4.255
35403W        W39364   8.241   4.010   6.919
35404W        W39365  10.293   4.494   4.600
35405W        W39366  10.660   4.976   4.545
35406W        W39367   8.403   7.193   7.016
35407W        W39368   8.329   3.729   4.251
35408W        W39369  10.650   4.263   5.286
35409W        W39370  10.800   6.512   3.731
35410W        W39371   7.707   5.715   5.433
35411W        W39372   9.624   4.302   3.663
35412W        W39373  10.758   6.634   5.383
35413W        W39374  10.797   3.828   6.133
35414W        W39375   9.242   5.040   6.687
35415W        W39376   9.335   6.379   4.390
35416W        W39377   9.735   5.673   7.130
35417W        W39378   9.409   3.650   5.439
35418W        W39379   8.021   4.553   5.502
35419W        W39380   7.575   5.753   6.276
35420W        W39381   9.434   6.946   4.982
35421W        W39382  10.628   4.543   5.854
35422W        W39383   9.265   6.890   6.621
35423W        W39384  10.608   5.949   3.826
35424W        W39385   9.043   5.432   4.887
35425W        W39386  10.895   3.943   6.628
35426W        W39387   9.044   5.778   6.222
35427W        W39388   9.261   4.664   5.667
35428W        W39389  10.113   4.962   4.505
35429W        W39390  10.400   4.695   4.147
35430W        W39391  10.209   6.735   4.536
35431W        W39392  10.043   6.338   5.332
35432W        W39393   9.939   5.417   4.310
35433W        W39394   9.372   5.627   5.296
35434W        W39395  10.253   5.415   5.363
35435W        W39396   7.628   4.430   5.787
35436W        W39397  10.406   5.482   6.614
35437W        W39398  10.757   7.100   5.760
35438W        W39399   8.687   6.544   5.162
35439W        W39400   9.694   7.077   6.486
35440W        W39401   9.688   4.407   6.250
35441W        W39402   8.895   7.115   6.311
35442W        W39403  10.592   4.069   4.777
35443W        W39404  10.383   5.388   6.078
35444W        W39405   7.366   4.709   6.116
35445W        W39406  10.226   4.504   5.134
35446W        W39407  10.637   4.655   6.911
35447W        W39408   9.522   6.354   5.129
35448W        W39409   8.778   6.945   4.742
35449W        W39410   7.893   4.125   4.000
35450W        W39411   8.997   3.779   5.810
35451W        W39412   8.025   6.899   3.658
35452W        W39413   8.399   5.365   4.409
35453W        W39414   9.053   5.994   6.722
35454W        W39415   8.883   4.352   4.712
35455W        W39416  10.239   3.949   5.140
35456W        W39417   9.959   7.231   5.468
35457W        W39418   9.371   6.879   5.808
35458W        W39419   8.767   5.916   5.769
35459W        W39420  10.537   6.639   5.895
35460W        W39421   8.231   4.142   4.664
35461W        W39422   8.753   6.439   5.624
35462W        W39423   8.236   4.370   3.689
35463W        W39424   9.037   4.979   6.083
35464W        W39425   9.885   3.845   5.953
35465W        W39426   7.305   5.688   5.838
35466W        W39427   9.009   5.506   3.996
35467W        W39428   8.277   3.821   3.766
35468W        W39429   9.015   4.902   4.817
35469W        W39430   9.985   3.878   6.516
35470W        W39431   8.573   5.890   6.625
35471W        W39432   9.377   5.672   6.842
35472W        W39433   9.994   5.702   6.735
35473W        W39434   9.278   3.842   7.240
35474W        W39435   8.500   4.458   5.633
35475W        W39436   7.926   4.414   5.031
35476W        W39437   7.712   7.126   4.707
35477W        W39438   9.044   6.456   6.832
35478W        W39439   8.079   5.941   4.191
35479W        W39440   9.759   5.326   5.412
35480W        W39441  10.039   5.125   5.811
35481W        W39442   9.244   5.799   5.745
35482W        W39443   9.714   6.173   3.877
35483W        W39444   9.386   4.194   5.205
35484W        W39445  10.865   4.472   4.473
35485W        W39446   7.359   7.061   6.504
35486W        W39447   7.776   6.287   6.036
35487W        W39448   7.343   7.133   4.268
35488W        W39449   9.242   4.403   6.074
35489W        W39450   8.605   6.426   3.923
35490W        W39451  10.510   6.808   4.109
35491W        W39452   9.485   5.461   4.123
35492W        W39453   8.328   4.652   4.640
35493W        W39454   9.160   4.562   3.692
35494W        W39455   9.744   6.127   6.870
35495W        W39456  10.097   4.033   4.487
35496W        W39457   7.427   3.881   3.935
35497W        W39458   8.713   6.200   6.225
35498W        W39459   8.512   6.116   5.317
35499W        W39460   8.254   6.068   3.715
35500W        W39461   7.495   6.309   4.483
35501W        W39462   7.999   5.379   6.925
35502W        W39463   8.703   3.939   7.111
35503W        W39464   9.412   4.081   6.467
35504W        W39465   8.607   3.849   4.748
35505W        W39466   9.666   3.926   4.253
35506W        W39467   7.611   3.858   5.830
35507W        W39468   7.659   4.821   5.200
35508W        W39469  10.348   3.929   5.606
35509W        W39470   7.770   4.427   4.420
35510W        W39471  10.341   4.115   6.036
35511W        W39472  10.737   5.318   3.721
35512W        W39473   8.029   4.076   5.540
35513W        W39474   9.143   4.648   6.480
35514W        W39475   7.291   4.338   3.958
35515W        W39476   8.077   5.727   6.519
35516W        W39477   9.435   5.125   5.698
35517W        W39478   9.302   7.204   3.994
35518W        W39479   7.448   5.711   3.691
35519W        W39480   8.183   6.122   6.817
35520W        W39481   7.704   5.289   6.448
35521W        W39482   8.695   5.394   6.242
35522W        W39483  10.463   3.753   6.504
35523W        W39484  10.861   5.363   6.495
35524W        W39485  10.849   5.563   4.181
35525W        W39486   9.712   5.895   4.280
35526W        W39487  10.186   7.195   3.975
35527W        W39488   9.363   5.185   7.117
35528W        W39489   7.693   6.152   7.157
35529W        W39490  10.899   4.074   7.109
35530W        W39491  10.617   5.002   5.730
35531W        W39492   8.925   7.132   7.207
35532W        W39493   8.780   3.761   3.934
35533W        W39494  10.319   6.360   3.877
35534W        W39495   8.088   4.453   6.763
35535W        W39496   8.522   6.447   6.625
35536W        W39497  10.648   4.438   6.423
35537W        W39498  10.098   5.716   5.758
35538W        W39499   8.348   4.132   6.425
35539W        W39500   8.817   5.201   7.182
35540W        W39501   8.320   6.380   4.376
35541W        W39502  10.075   5.878   4.640
35542W        W39503   7.843   4.504   6.364
35543W        W39504   9.172   6.566   4.828
35544W        W39505  10.922   5.126   5.009
35545W        W39506   9.144   3.759   6.728
35546W        W39507   9.924   6.464   5.807
35547W        W39508  10.227   6.808   5.515
35548W        W39509   9.446   6.610   3.943
35549W        W39510   7.456   6.502   6.785
35550W        W39511   8.199   4.494   6.023
35551W        W39512   8.169   3.842   5.133
35552W        W39513   9.790   4.684   5.825
35553W        W39514   8.588   5.855   4.025
35554W        W39515  10.586   5.797   5.524
35555W        W39516   7.913   6.555   6.947
35556W        W39517  10.300   7.237   4.744
35557W        W39518   8.399   4.257   5.189
35558W        W39519   8.168   5.750   5.279
35559W        W39520   8.481   7.161   6.029
35560W        W39521  10.548   7.257   7.061
35561W        W39522   9.707   5.445   5.994
35562W        W39523   7.556   5.243   3.909
35563W        W39524  10.690   6.901   4.606
35564W        W39525  10.527   4.225   4.225
35565W        W39526   8.666   3.744   6.628
35566W        W39527  10.372   6.546   5.086
35567W        W39528  10.401   5.102   4.991
35568W        W39529   8.518   4.775   5.207
35569W        W39530   8.763   5.037   6.531
35570W        W39531   9.874   6.190   6.394
35571W        W39532   8.524   4.644   6.506
35572W        W39533   8.503   7.110   5.122
35573W        W39534   7.820   7.069   6.756
35574W        W39535   7.932   6.430   3.886
35575W        W39536  10.449   6.188   4.696
35576W        W39537   8.053   4.980   6.582
35577W        W39538  10.826   4.910   4.063
35578W        W39539   8.571   5.967   4.534
35579W        W39540   9.670   5.349   6.615
35580W        W39541   9.561   4.977   6.159
35581W        W39542   8.121   5.349   6.188
35582W        W39543  10.331   7.237   6.017
35583W        W39544  10.122   3.871   7.011
35584W        W39545   7.786   4.021   6.598
35585W        W39546   8.125   5.044   5.651
35586W        W39547   8.494   4.858   3.773
35587W        W39548   7.297   6.617   6.318
35588W        W39549   8.882   5.326   5.761
35589W        W39550   8.705   4.351   3.866
35590W        W39551   7.840   5.167   4.647
35591W        W39552   7.611   7.019   6.084
35592W        W39553  10.406   5.245   4.192
35593W        W39554  10.501   4.161   6.878
35594W        W39555   9.937   6.370   4.841
35595W        W39556   7.535   5.294   7.018
35596W        W39557  10.501   3.758   4.314
35597W        W39558  10.021   6.233   4.325
35598W        W39559   8.923   5.291   4.410
35599W        W39560  10.110   4.095   3.933
35600W        W39561  10.175   4.702   6.119
35601W        W39562   7.884   5.295   5.326
35602W        W39563   8.178   6.234   4.975
35603W        W39564   9.941   4.854   4.940
35604W        W39565   8.964   4.233   5.636
35605W        W39566  10.926   6.144   6.147
35606W        W39567  10.844   4.131   5.708
35607W        W39568   7.383   6.961   5.084
35608W        W39569   7.892   6.148   4.620
35609W        W39570   7.807   3.765   7.173
35610W        W39571   8.926   6.618   7.275
35611W        W39572  10.681   5.586   5.065
35612W        W39573  10.035   5.763   3.945
35613W        W39574   9.330   7.284   6.157
35614W        W39575  10.187   6.006   7.194
35615W        W39576   9.002   3.716   4.474
35616W        W39577   9.715   4.585   5.333
35617W        W39578   7.401   6.172   5.665
35618W        W39579   8.654   4.134   4.306
35619W        W39580   8.458   5.618   7.155
35620W        W39581   9.452   4.599   4.869
35621W        W39582   9.657   6.009   5.991
35622W        W39583   7.811   6.614   6.426
35623W        W39584   8.402   6.597   7.149
35624W        W39585   8.253   4.394   4.163
35625W        W39586   9.770   4.536   4.488
35626W        W39587   9.728   6.644   6.725
35627W        W39588   8.413   5.236   5.324
35628W        W39589   8.068   6.934   6.189
35629W        W39590  10.813   7.051   3.790
35630W        W39591   7.676   5.723   6.786
35631W        W39592   9.671   5.985   5.474
35632W        W39593   8.107   5.634   4.716
35633W        W39594   8.478   6.641   6.111
35634W        W39595   8.856   4.060   5.152
35635W        W39596   7.467   6.044   4.082
35636W        W39597   8.986   4.995   3.952
35637W        W39598   7.632   5.544   4.971
35638W        W39599   8.922   4.186   6.435
35639W        W39600  10.594   3.895   3.862
35640W        W39601  10.687   5.641   6.961
35641W        W39602   9.341   6.898   7.113
35642W        W39603  10.899   5.992   6.635
35643W        W39604  10.307   6.790   7.246
35644W        W39605   8.046   7.246   5.724
35645W        W39606  10.905   5.868   4.598
35646W        W39607   9.435   5.135   5.111
35647W        W39608   9.202   3.747   5.001
35648W        W39609   8.261   6.731   4.838
35649W        W39610   8.760   4.472   6.063
35650W        W39611   8.460   3.841   5.532
35651W        W39612   7.523   6.663   4.080
35652W        W39613   9.339   6.027   4.798
35653W        W39614   8.214   6.822   6.677
35654W        W39615   7.691   5.645   4.373
35655W        W39616   7.576   4.188   5.372
35656W        W39617   9.124   6.153   5.429
35657W        W39618   7.376   4.007   4.449
35658W        W39619  10.040   5.213   6.376
35659W        W39620   9.917   4.599   3.948
35660W        W39621  10.434   6.271   5.596
35661W        W39622   9.095   6.755   5.427
35662W        W39623   8.507   6.859   4.338
35663W        W39624   9.789   3.762   3.768
35664W        W39625   7.589   7.022   5.509
35665W        W39626   9.786   4.780   7.144
35666W        W39627   7.769   4.310   7.143
35667W        W39628   7.500   4.910   4.476
35668W        W39629   8.191   4.899   4.201
35669W        W39630   9.954   5.226   7.018
35670W        W39631   8.297   5.507   5.727
35671W        W39632   9.771   3.793   4.847
35672W        W39633   8.902   7.224   5.350
35673W        W39634  10.116   6.686   6.287
35674W        W39635   9.700   6.835   5.398
35675W        W39636   9.719   5.815   4.992
35676W        W39637  10.862   3.668   4.785
35677W        W39638   8.550   5.303   3.948
35678W        W39639  10.716   4.640   4.938
35679W        W39640   9.408   5.810   3.815
35680W        W39641  10.344   6.010   6.563
35681W        W39642   9.998   6.711   4.030
35682W        W39643   8.613   4.386   6.936
35683W        W39644   8.433   4.970   6.177
35684W        W39645  10.525   6.465   6.454
35685W        W39646   9.625   4.415   6.831
35686W        W39647   7.469   4.886   6.608
35687W        W39648   9.229   5.363   6.334
35688W        W39649   7.586   6.121   4.991
35689W        W39650   7.733   5.418   5.881
35690W        W39651  10.050   5.704   6.231
35691W        W39652   9.822   7.084   7.042
35692W        W39653   9.718   4.823   6.595
35693W        W39654   9.995   6.877   5.000
35694W        W39655   8.997   6.597   6.323
35695W        W39656   8.482   6.952   5.592
35696W        W39657  10.287   6.123   6.011
35697W        W39658   9.337   6.195   7.148
35698W        W39659   7.942   6.148   5.487
35699W        W39660  10.288   5.907   5.132
35700W        W39661   9.929   6.973   5.883
35701W        W39662   7.907   6.702   5.753
35702W        W39663   8.928   4.754   6.963
35703W        W39664   9.379   6.920   4.474
35704W        W39665   8.687   6.175   7.112
35705W        W39666   8.813   6.413   4.489
35706W        W39667   8.034   5.153   3.748
35707W        W39668   7.373   7.239  10.648
35708W        W39669   7.749   6.132  10.171
35709W        W39670  10.454   5.862   7.941
35710W        W39671  10.584   6.947   9.968
35711W        W39672   8.502   6.938   7.494
35712W        W39673   8.585   5.090   8.477
35713W        W39674   8.100   4.938   8.641
35714W        W39675   9.091   5.753   8.075
35715W        W39676   8.766   6.845  10.430
35716W        W39677   7.415   4.406  10.393
35717W        W39678   8.177   3.686  10.195
35718W        W39679   9.871   4.074   9.082
35719W        W39680   9.520   4.945   7.652
35720W        W39681  10.090   4.379  10.743
35721W        W39682   7.456   4.171   9.868
35722W        W39683   7.555   6.790  10.889
35723W        W39684   9.077   6.180   7.621
35724W        W39685   7.509   4.963   9.314
35725W        W39686   8.402   4.854  10.551
35726W        W39687  10.861   4.713   9.050
35727W        W39688  10.625   5.756   9.909
35728W        W39689   8.933   5.089   8.936
35729W        W39690   9.479   6.428   9.305
35730W        W39691   7.979   5.862   9.537
35731W        W39692   7.338   5.390   9.108
35732W        W39693   8.374   5.362  10.300
35733W        W39694  10.645   5.145  10.554
35734W        W39695   8.261   6.589   8.999
35735W        W39696   9.382   6.278  10.133
35736W        W39697   8.602   4.918   9.358
35737W        W39698   8.894   5.702   9.001
35738W        W39699   9.891   6.475  10.849
35739W        W39700   8.970   5.795  10.859
35740W        W39701   8.951   5.511  10.337
35741W        W39702   7.360   4.902  10.859
35742W        W39703  10.192   6.437  10.458
35743W        W39704   7.773   4.019   8.456
35744W        W39705   8.300   6.277   9.455
35745W        W39706  10.763   6.060   8.745
35746W        W39707  10.176   4.460   9.312
35747W        W39708  10.461   4.413   7.407
35748W        W39709  10.926   5.214   9.713
35749W        W39710   8.893   6.921   9.466
35750W        W39711  10.667   6.387   7.904
35751W        W39712   7.796   7.173   7.658
35752W        W39713   8.189   7.219   8.334
35753W        W39714   7.986   3.973   9.760
35754W        W39715  10.609   4.991  10.035
35755W        W39716  10.014   5.413   8.494
35756W        W39717   9.980   5.101   7.521
35757W        W39718   9.188   6.245   9.661
35758W        W39719   8.994   4.575   8.860
35759W        W39720   9.594   6.662   9.854
35760W        W39721  10.465   5.453   8.276
35761W        W39722   9.367   4.111   8.292
35762W        W39723   8.024   6.805   7.975
35763W        W39724   7.395   4.304   8.574
35764W        W39725  10.181   4.911   9.048
35765W        W39726   7.639   6.528   8.963
35766W        W39727   8.980   6.878   7.833
35767W        W39728  10.372   4.904   7.297
35768W        W39729   7.395   6.662   9.461
35769W        W39730   8.186   6.234   9.941
35770W        W39731   8.559   5.594   8.560
35771W        W39732   8.581   3.999   9.653
35772W        W39733  10.810   3.761   8.950
35773W        W39734   8.029   5.633   7.418
35774W        W39735   7.684   4.666   7.597
35775W        W39736   7.746   6.622   8.391
35776W        W39737   8.877   6.105   8.639
35777W        W39738  10.209   6.964  10.353
35778W        W39739   9.135   4.606   8.037
35779W        W39740  10.518   7.004   8.809
35780W        W39741  10.195   4.857  10.407
35781W        W39742  10.908   6.513   8.541
35782W        W39743   9.535   5.805  10.025
35783W        W39744   7.301   5.356   8.231
35784W        W39745   8.412   5.771   9.804
35785W        W39746   9.616   5.035   8.182
35786W        W39747   9.493   5.525   8.286
35787W        W39748   7.836   4.945   9.760
35788W        W39749   7.821   4.821  10.682
35789W        W39750   7.711   3.738   8.841
35790W        W39751   9.479   4.085   9.402
35791W        W39752   9.127   4.270  10.565
35792W        W39753   9.482   4.419   7.743
35793W        W39754  10.665   6.812  10.497
35794W        W39755   9.632   3.893  10.536
35795W        W39756  10.651   6.194  10.658
35796W        W39757  10.081   4.361  10.254
35797W        W39758   9.881   4.299   8.524
35798W        W39759  10.274   5.433  10.928
35799W        W39760   8.014   7.009   8.914
35800W        W39761   8.672   4.726   7.900
35801W        W39762   8.241   4.010  10.564
35802W        W39763  10.293   4.494   8.245
35803W        W39764  10.660   4.976   8.190
35804W        W39765   8.403   7.193  10.661
35805W        W39766   8.329   3.729   7.896
35806W        W39767  10.650   4.263   8.931
35807W        W39768  10.800   6.512   7.376
35808W        W39769   7.707   5.715   9.078
35809W        W39770   9.624   4.302   7.308
35810W        W39771  10.758   6.634   9.028
35811W        W39772  10.797   3.828   9.778
35812W        W39773   9.242   5.040  10.332
35813W        W39774   9.335   6.379   8.035
35814W        W39775   9.735   5.673  10.775
35815W        W39776   9.409   3.650   9.084
35816W        W39777   8.021   4.553   9.147
35817W        W39778   7.575   5.753   9.921
35818W        W39779   9.434   6.946   8.627
35819W        W39780  10.628   4.543   9.499
35820W        W39781   9.265   6.890  10.266
35821W        W39782  10.608   5.949   7.471
35822W        W39783   9.043   5.432   8.532
35823W        W39784  10.895   3.943  10.273
35824W        W39785   9.044   5.778   9.867
35825W        W39786   9.261   4.664   9.312
35826W        W39787  10.113   4.962   8.150
35827W        W39788  10.400   4.695   7.792
35828W        W39789  10.209   6.735   8.181
35829W        W39790  10.043   6.338   8.977
35830W        W39791   9.939   5.417   7.955
35831W        W39792   9.372   5.627   8.941
35832W        W39793  10.253   5.415   9.008
35833W        W39794   7.628   4.430   9.432
35834W        W39795  10.406   5.482  10.259
35835W        W39796  10.757   7.100   9.405
35836W        W39797   8.687   6.544   8.807
35837W        W39798   9.694   7.077  10.131
35838W        W39799   9.688   4.407   9.895
35839W        W39800   8.895   7.115   9.956
35840W        W39801  10.592   4.069   8.422
35841W        W39802  10.383   5.388   9.723
35842W        W39803   7.366   4.709   9.761
35843W        W39804  10.226   4.504   8.779
35844W        W39805  10.637   4.655  10.556
35845W        W39806   9.522   6.354   8.774
35846W        W39807   8.778   6.945   8.387
35847W        W39808   7.893   4.125   7.645
35848W        W39809   8.997   3.779   9.455
35849W        W39810   8.025   6.899   7.303
35850W        W39811   8.399   5.365   8.054
35851W        W39812   9.053   5.994  10.367
35852W        W39813   8.883   4.352   8.357
35853W        W39814  10.239   3.949   8.785
35854W        W39815   9.959   7.231   9.113
35855W        W39816   9.371   6.879   9.453
35856W        W39817   8.767   5.916   9.414
35857W        W39818  10.537   6.639   9.540
35858W        W39819   8.231   4.142   8.309
35859W        W39820   8.753   6.439   9.269
35860W        W39821   8.236   4.370   7.334
35861W        W39822   9.037   4.979   9.728
35862W        W39823   9.885   3.845   9.598
35863W        W39824   7.305   5.688   9.483
35864W        W39825   9.009   5.506   7.641
35865W        W39826   8.277   3.821   7.411
35866W        W39827   9.015   4.902   8.462
35867W        W39828   9.985   3.878  10.161
35868W        W39829   8.573   5.890  10.270
35869W        W39830   9.377   5.672  10.487
35870W        W39831   9.994   5.702  10.380
35871W        W39832   9.278   3.842  10.885
35872W        W39833   8.500   4.458   9.278
35873W        W39834   7.926   4.414   8.676
35874W        W39835   7.712   7.126   8.352
35875W        W39836   9.044   6.456  10.477
35876W        W39837   8.079   5.941   7.836
35877W        W39838   9.759   5.326   9.057
35878W        W39839  10.039   5.125   9.456
35879W        W39840   9.244   5.799   9.390
35880W        W39841   9.714   6.173   7.522
35881W        W39842   9.386   4.194   8.850
35882W        W39843  10.865   4.472   8.118
35883W        W39844   7.359   7.061  10.149
35884W        W39845   7.776   6.287   9.681
35885W        W39846   7.343   7.133   7.913
35886W        W39847   9.242   4.403   9.719
35887W        W39848   8.605   6.426   7.568
35888W        W39849  10.510   6.808   7.754
35889W        W39850   9.485   5.461   7.768
35890W        W39851   8.328   4.652   8.285
35891W        W39852   9.160   4.562   7.337
35892W        W39853   9.744   6.127  10.515
35893W        W39854  10.097   4.033   8.132
35894W        W39855   7.427   3.881   7.580
35895W        W39856   8.713   6.200   9.870
35896W        W39857   8.512   6.116   8.962
35897W        W39858   8.254   6.068   7.360
35898W        W39859   7.495   6.309   8.128
35899W        W39860   7.999   5.379  10.570
35900W        W39861   8.703   3.939  10.756
35901W        W39862   9.412   4.081  10.112
35902W        W39863   8.607   3.849   8.393
35903W        W39864   9.666   3.926   7.898
35904W        W39865   7.611   3.858   9.475
35905W        W39866   7.659   4.821   8.845
35906W        W39867  10.348   3.929   9.251
35907W        W39868   7.770   4.427   8.065
35908W        W39869  10.341   4.115   9.681
35909W        W39870  10.737   5.318   7.366
35910W        W39871   8.029   4.076   9.185
35911W        W39872   9.143   4.648  10.125
35912W        W39873   7.291   4.338   7.603
35913W        W39874   8.077   5.727  10.164
35914W        W39875   9.435   5.125   9.343
35915W        W39876   9.302   7.204   7.639
35916W        W39877   7.448   5.711   7.336
35917W        W39878   8.183   6.122  10.462
35918W        W39879   7.704   5.289  10.093
35919W        W39880   8.695   5.394   9.887
35920W        W39881  10.463   3.753  10.149
35921W        W39882  10.861   5.363  10.140
35922W        W39883  10.849   5.563   7.826
35923W        W39884   9.712   5.895   7.925
35924W        W39885  10.186   7.195   7.620
35925W        W39886   9.363   5.185  10.762
35926W        W39887   7.693   6.152  10.802
35927W        W39888  10.899   4.074  10.754
35928W        W39889  10.617   5.002   9.375
35929W        W39890   8.925   7.132  10.852
35930W        W39891   8.780   3.761   7.579
35931W        W39892  10.319   6.360   7.522
35932W        W39893   8.088   4.453  10.408
35933W        W39894   8.522   6.447  10.270
35934W        W39895  10.648   4.438  10.068
35935W        W39896   9.859   7.097   8.036
35936W        W39897  10.098   5.716   9.403
35937W        W39898   8.348   4.132  10.070
35938W        W39899   8.817   5.201  10.827
35939W        W39900   8.320   6.380   8.021
35940W        W39901  10.075   5.878   8.285
35941W        W39902   7.843   4.504  10.009
35942W        W39903   9.172   6.566   8.473
35943W        W39904  10.922   5.126   8.654
35944W        W39905   9.144   3.759  10.373
35945W        W39906   9.924   6.464   9.452
35946W        W39907  10.227   6.808   9.160
35947W        W39908   9.446   6.610   7.588
35948W        W39909   7.456   6.502  10.430
35949W        W39910   8.199   4.494   9.668
35950W        W39911   8.169   3.842   8.778
35951W        W39912   9.790   4.684   9.470
35952W        W39913   8.588   5.855   7.670
35953W        W39914  10.586   5.797   9.169
35954W        W39915   7.913   6.555  10.592
35955W        W39916  10.300   7.237   8.389
35956W        W39917   8.399   4.257   8.834
35957W        W39918   8.168   5.750   8.924
35958W        W39919   8.481   7.161   9.674
35959W        W39920  10.548   7.257  10.706
35960W        W39921   9.707   5.445   9.639
35961W        W39922   7.556   5.243   7.554
35962W        W39923  10.690   6.901   8.251
35963W        W39924  10.527   4.225   7.870
35964W        W39925   8.666   3.744  10.273
35965W        W39926  10.372   6.546   8.731
35966W        W39927  10.401   5.102   8.636
35967W        W39928   8.518   4.775   8.852
35968W        W39929   8.763   5.037  10.176
35969W        W39930   9.874   6.190  10.039
35970W        W39931   8.524   4.644  10.151
35971W        W39932   8.503   7.110   8.767
35972W        W39933   7.820   7.069  10.401
35973W        W39934   7.932   6.430   7.531
35974W        W39935  10.449   6.188   8.341
35975W        W39936   8.053   4.980  10.227
35976W        W39937  10.826   4.910   7.708
35977W        W39938   8.571   5.967   8.179
35978W        W39939   9.670   5.349  10.260
35979W        W39940   9.561   4.977   9.804
35980W        W39941   8.121   5.349   9.833
35981W        W39942  10.331   7.237   9.662
35982W        W39943  10.122   3.871  10.656
35983W        W39944   7.786   4.021  10.243
35984W        W39945   8.125   5.044   9.296
35985W        W39946   8.494   4.858   7.418
35986W        W39947   7.297   6.617   9.963
35987W        W39948   8.882   5.326   9.406
35988W        W39949   8.705   4.351   7.511
35989W        W39950   7.840   5.167   8.292
35990W        W39951   7.611   7.019   9.729
35991W        W39952  10.406   5.245   7.837
35992W        W39953  10.501   4.161  10.523
35993W        W39954   9.937   6.370   8.486
35994W        W39955   7.535   5.294  10.663
35995W        W39956  10.501   3.758   7.959
35996W        W39957  10.021   6.233   7.970
35997W        W39958   8.923   5.291   8.055
35998W        W39959  10.110   4.095   7.578
35999W        W39960  10.175   4.702   9.764
36000W        W39961   7.884   5.295   8.971
36001W        W39962   8.178   6.234   8.620
36002W        W39963   9.941   4.854   8.585
36003W        W39964   8.964   4.233   9.281
36004W        W39965  10.926   6.144   9.792
36005W        W39966  10.844   4.131   9.353
36006W        W39967   7.383   6.961   8.729
36007W        W39968   7.892   6.148   8.265
36008W        W39969   7.807   3.765  10.818
36009W        W39970   8.926   6.618  10.920
36010W        W39971  10.681   5.586   8.710
36011W        W39972  10.035   5.763   7.590
36012W        W39973   9.330   7.284   9.802
36013W        W39974  10.187   6.006  10.839
36014W        W39975   9.002   3.716   8.119
36015W        W39976   9.715   4.585   8.978
36016W        W39977   7.401   6.172   9.310
36017W        W39978   8.654   4.134   7.951
36018W        W39979   8.458   5.618  10.800
36019W        W39980   9.452   4.599   8.514
36020W        W39981   9.657   6.009   9.636
36021W        W39982   7.811   6.614  10.071
36022W        W39983   8.402   6.597  10.794
36023W        W39984   8.253   4.394   7.808
36024W        W39985   9.770   4.536   8.133
36025W        W39986   9.728   6.644  10.370
36026W        W39987   8.413   5.236   8.969
36027W        W39988   8.068   6.934   9.834
36028W        W39989  10.813   7.051   7.435
36029W        W39990   7.676   5.723  10.431
36030W        W39991   9.671   5.985   9.119
36031W        W39992   8.107   5.634   8.361
36032W        W39993   8.478   6.641   9.756
36033W        W39994   8.856   4.060   8.797
36034W        W39995   7.467   6.044   7.727
36035W        W39996   8.986   4.995   7.597
36036W        W39997   7.632   5.544   8.616
36037W        W39998   8.922   4.186  10.080
36038W        W39999  10.594   3.895   7.507
36039W        W40000  10.687   5.641  10.606
36040W        W40001   9.341   6.898  10.758
36041W        W40002  10.899   5.992  10.280
36042W        W40003  10.307   6.790  10.891
36043W        W40004   8.046   7.246   9.369
36044W        W40005  10.905   5.868   8.243
36045W        W40006   9.435   5.135   8.756
36046W        W40007   9.202   3.747   8.646
36047W        W40008   8.261   6.731   8.483
36048W        W40009   8.760   4.472   9.708
36049W        W40010   8.460   3.841   9.177
36050W        W40011   7.523   6.663   7.725
36051W        W40012   9.339   6.027   8.443
36052W        W40013   8.214   6.822  10.322
36053W        W40014   7.691   5.645   8.018
36054W        W40015   7.576   4.188   9.017
36055W        W40016   9.124   6.153   9.074
36056W        W40017   7.376   4.007   8.094
36057W        W40018  10.040   5.213  10.021
36058W        W40019   9.917   4.599   7.593
36059W        W40020  10.434   6.271   9.241
36060W        W40021   9.095   6.755   9.072
36061W        W40022   8.507   6.859   7.983
36062W        W40023   9.789   3.762   7.413
36063W        W40024   7.589   7.022   9.154
36064W        W40025   9.786   4.780  10.789
36065W        W40026   7.769   4.310  10.788
36066W        W40027   7.500   4.910   8.121
36067W        W40028   8.191   4.899   7.846
36068W        W40029   9.954   5.226  10.663
36069W        W40030   8.297   5.507   9.372
36070W        W40031   9.771   3.793   8.492
36071W        W40032   8.902   7.224   8.995
36072W        W40033  10.116   6.686   9.932
36073W        W40034   9.700   6.835   9.043
36074W        W40035   9.719   5.815   8.637
36075W        W40036   9.181   4.040   7.708
36076W        W40037  10.862   3.668   8.430
36077W        W40038   8.550   5.303   7.593
36078W        W40039  10.716   4.640   8.583
36079W        W40040   9.408   5.810   7.460
36080W        W40041  10.344   6.010  10.208
36081W        W40042   9.998   6.711   7.675
36082W        W40043   8.613   4.386  10.581
36083W        W40044   8.433   4.970   9.822
36084W        W40045  10.525   6.465  10.099
36085W        W40046   9.625   4.415  10.476
36086W        W40047   7.469   4.886  10.253
36087W        W40048   9.229   5.363   9.979
36088W        W40049   7.586   6.121   8.636
36089W        W40050   7.733   5.418   9.526
36090W        W40051  10.050   5.704   9.876
36091W        W40052   9.822   7.084  10.687
36092W        W40053   9.718   4.823  10.240
36093W        W40054   9.995   6.877   8.645
36094W        W40055   8.997   6.597   9.968
36095W        W40056   8.482   6.952   9.237
36096W        W40057  10.287   6.123   9.656
36097W        W40058   9.337   6.195  10.793
36098W        W40059   7.942   6.148   9.132
36099W        W40060  10.288   5.907   8.777
36100W        W40061   9.929   6.973   9.528
36101W        W40062   7.907   6.702   9.398
36102W        W40063   8.928   4.754  10.608
36103W        W40064   9.379   6.920   8.119
36104W        W40065   8.687   6.175  10.757
36105W        W40066   8.813   6.413   8.134
36106W        W40067   8.034   5.153   7.393
36107W        W40068   7.373   7.239  14.292
36108W        W40069   7.749   6.132  13.815
36109W        W40070  10.454   5.862  11.585
36110W        W40071  10.584   6.947  13.612
36111W        W40072   8.502   6.938  11.138
36112W        W40073   8.585   5.090  12.121
36113W        W40074   8.100   4.938  12.285
36114W        W40075   9.091   5.753  11.719
36115W        W40076   8.766   6.845  14.074
36116W        W40077   7.415   4.406  14.037
36117W        W40078   8.177   3.686  13.839
36118W        W40079   9.871   4.074  12.726
36119W        W40080   9.520   4.945  11.296
36120W        W40081  10.090   4.379  14.387
36121W        W40082   7.456   4.171  13.512
36122W        W40083   7.555   6.790  14.533
36123W        W40084   9.077   6.180  11.265
36124W        W40085   7.509   4.963  12.958
36125W        W40086   8.402   4.854  14.195
36126W        W40087  10.861   4.713  12.694
36127W        W40088  10.625   5.756  13.553
36128W        W40089   8.933   5.089  12.580
36129W        W40090   9.479   6.428  12.949
36130W        W40091   7.979   5.862  13.181
36131W        W40092   7.338   5.390  12.752
36132W        W40093   8.374   5.362  13.944
36133W        W40094  10.645   5.145  14.198
36134W        W40095   8.261   6.589  12.643
36135W        W40096   9.382   6.278  13.777
36136W        W40097   8.602   4.918  13.002
36137W        W40098   8.894   5.702  12.645
36138W        W40099   9.891   6.475  14.493
36139W        W40100   8.970   5.795  14.503
36140W        W40101   8.951   5.511  13.981
36141W        W40102   7.360   4.902  14.503
36142W        W40103  10.192   6.437  14.102
36143W        W40104   7.773   4.019  12.100
36144W        W40105   8.300   6.277  13.099
36145W        W40106  10.763   6.060  12.389
36146W        W40107  10.176   4.460  12.956
36147W        W40108  10.461   4.413  11.051
36148W        W40109  10.926   5.214  13.357
36149W        W40110   8.893   6.921  13.110
36150W        W40111  10.667   6.387  11.548
36151W        W40112   7.796   7.173  11.302
36152W        W40113   8.189   7.219  11.978
36153W        W40114   7.986   3.973  13.404
36154W        W40115  10.609   4.991  13.679
36155W        W40116  10.014   5.413  12.138
36156W        W40117   9.980   5.101  11.165
36157W        W40118   9.188   6.245  13.305
36158W        W40119   8.994   4.575  12.504
36159W        W40120   9.594   6.662  13.498
36160W        W40121  10.465   5.453  11.920
36161W        W40122   9.367   4.111  11.936
36162W        W40123   8.024   6.805  11.619
36163W        W40124   7.395   4.304  12.218
36164W        W40125  10.181   4.911  12.692
36165W        W40126   7.639   6.528  12.607
36166W        W40127   8.980   6.878  11.477
36167W        W40128  10.372   4.904  10.941
36168W        W40129   7.395   6.662  13.105
36169W        W40130   8.186   6.234  13.585
36170W        W40131   8.559   5.594  12.204
36171W        W40132   8.581   3.999  13.297
36172W        W40133  10.810   3.761  12.594
36173W        W40134   8.029   5.633  11.062
36174W        W40135   7.684   4.666  11.241
36175W        W40136   7.746   6.622  12.035
36176W        W40137   8.877   6.105  12.283
36177W        W40138  10.209   6.964  13.997
36178W        W40139   9.135   4.606  11.681
36179W        W40140  10.518   7.004  12.453
36180W        W40141  10.195   4.857  14.051
36181W        W40142  10.908   6.513  12.185
36182W        W40143   9.535   5.805  13.669
36183W        W40144   7.301   5.356  11.875
36184W        W40145   8.412   5.771  13.448
36185W        W40146   9.616   5.035  11.826
36186W        W40147   9.493   5.525  11.930
36187W        W40148   7.836   4.945  13.404
36188W        W40149   7.821   4.821  14.326
36189W        W40150   7.711   3.738  12.485
36190W        W40151   9.479   4.085  13.046
36191W        W40152   9.127   4.270  14.209
36192W        W40153   9.482   4.419  11.387
36193W        W40154  10.665   6.812  14.141
36194W        W40155   9.632   3.893  14.180
36195W        W40156  10.651   6.194  14.302
36196W        W40157  10.081   4.361  13.898
36197W        W40158   9.881   4.299  12.168
36198W        W40159  10.274   5.433  14.572
36199W        W40160   8.014   7.009  12.558
36200W        W40161   8.672   4.726  11.544
36201W        W40162   8.241   4.010  14.208
36202W        W40163  10.293   4.494  11.889
36203W        W40164  10.660   4.976  11.834
36204W        W40165   8.403   7.193  14.305
36205W        W40166   8.329   3.729  11.540
36206W        W40167  10.650   4.263  12.575
36207W        W40168  10.800   6.512  11.020
36208W        W40169   7.707   5.715  12.722
36209W        W40170   9.624   4.302  10.952
36210W        W40171  10.758   6.634  12.672
36211W        W40172  10.797   3.828  13.422
36212W        W40173   9.242   5.040  13.976
36213W        W40174   9.335   6.379  11.679
36214W        W40175   9.735   5.673  14.419
36215W        W40176   9.409   3.650  12.728
36216W        W40177   8.021   4.553  12.791
36217W        W40178   7.575   5.753  13.565
36218W        W40179   9.434   6.946  12.271
36219W        W40180  10.628   4.543  13.143
36220W        W40181   9.265   6.890  13.910
36221W        W40182  10.608   5.949  11.115
36222W        W40183   9.043   5.432  12.176
36223W        W40184  10.895   3.943  13.917
36224W        W40185   9.044   5.778  13.511
36225W        W40186   9.261   4.664  12.956
36226W        W40187  10.113   4.962  11.794
36227W        W40188  10.400   4.695  11.436
36228W        W40189  10.209   6.735  11.825
36229W        W40190  10.043   6.338  12.621
36230W        W40191   9.939   5.417  11.599
36231W        W40192   9.372   5.627  12.585
36232W        W40193  10.253   5.415  12.652
36233W        W40194   7.628   4.430  13.076
36234W        W40195  10.406   5.482  13.903
36235W        W40196  10.757   7.100  13.049
36236W        W40197   8.687   6.544  12.451
36237W        W40198   9.694   7.077  13.775
36238W        W40199   9.688   4.407  13.539
36239W        W40200   8.895   7.115  13.600
36240W        W40201  10.592   4.069  12.066
36241W        W40202  10.383   5.388  13.367
36242W        W40203   7.366   4.709  13.405
36243W        W40204  10.226   4.504  12.423
36244W        W40205  10.637   4.655  14.200
36245W        W40206   9.522   6.354  12.418
36246W        W40207   8.778   6.945  12.031
36247W        W40208   7.893   4.125  11.289
36248W        W40209   8.997   3.779  13.099
36249W        W40210   8.025   6.899  10.947
36250W        W40211   8.399   5.365  11.698
36251W        W40212   9.053   5.994  14.011
36252W        W40213   8.883   4.352  12.001
36253W        W40214  10.239   3.949  12.429
36254W        W40215   9.959   7.231  12.757
36255W        W40216   9.371   6.879  13.097
36256W        W40217   8.767   5.916  13.058
36257W        W40218  10.537   6.639  13.184
36258W        W40219   8.231   4.142  11.953
36259W        W40220   8.753   6.439  12.913
36260W        W40221   8.236   4.370  10.978
36261W        W40222   9.037   4.979  13.372
36262W        W40223   9.885   3.845  13.242
36263W        W40224   7.305   5.688  13.127
36264W        W40225   9.009   5.506  11.285
36265W        W40226   8.277   3.821  11.055
36266W        W40227   9.015   4.902  12.106
36267W        W40228   9.985   3.878  13.805
36268W        W40229   8.573   5.890  13.914
36269W        W40230   9.377   5.672  14.131
36270W        W40231   9.994   5.702  14.024
36271W        W40232   9.278   3.842  14.529
36272W        W40233   8.500   4.458  12.922
36273W        W40234   7.926   4.414  12.320
36274W        W40235   7.712   7.126  11.996
36275W        W40236   9.044   6.456  14.121
36276W        W40237   8.079   5.941  11.480
36277W        W40238   9.759   5.326  12.701
36278W        W40239  10.039   5.125  13.100
36279W        W40240   9.244   5.799  13.034
36280W        W40241   9.714   6.173  11.166
36281W        W40242   9.386   4.194  12.494
36282W        W40243  10.865   4.472  11.762
36283W        W40244   7.359   7.061  13.793
36284W        W40245   7.776   6.287  13.325
36285W        W40246   7.343   7.133  11.557
36286W        W40247   9.242   4.403  13.363
36287W        W40248   8.605   6.426  11.212
36288W        W40249  10.510   6.808  11.398
36289W        W40250   9.485   5.461  11.412
36290W        W40251   8.328   4.652  11.929
36291W        W40252   9.160   4.562  10.981
36292W        W40253   9.744   6.127  14.159
36293W        W40254  10.097   4.033  11.776
36294W        W40255   7.427   3.881  11.224
36295W        W40256   8.713   6.200  13.514
36296W        W40257   8.512   6.116  12.606
36297W        W40258   8.254   6.068  11.004
36298W        W40259   7.495   6.309  11.772
36299W        W40260   7.999   5.379  14.214
36300W        W40261   8.703   3.939  14.400
36301W        W40262   9.412   4.081  13.756
36302W        W40263   8.607   3.849  12.037
36303W        W40264   9.666   3.926  11.542
36304W        W40265   7.611   3.858  13.119
36305W        W40266   7.659   4.821  12.489
36306W        W40267  10.348   3.929  12.895
36307W        W40268   7.770   4.427  11.709
36308W        W40269  10.341   4.115  13.325
36309W        W40270  10.737   5.318  11.010
36310W        W40271   8.029   4.076  12.829
36311W        W40272   9.143   4.648  13.769
36312W        W40273   7.291   4.338  11.247
36313W        W40274   8.077   5.727  13.808
36314W        W40275   9.435   5.125  12.987
36315W        W40276   9.302   7.204  11.283
36316W        W40277   7.448   5.711  10.980
36317W        W40278   8.183   6.122  14.106
36318W        W40279   7.704   5.289  13.737
36319W        W40280   8.695   5.394  13.531
36320W        W40281  10.463   3.753  13.793
36321W        W40282  10.861   5.363  13.784
36322W        W40283  10.849   5.563  11.470
36323W        W40284   9.712   5.895  11.569
36324W        W40285  10.186   7.195  11.264
36325W        W40286   9.363   5.185  14.406
36326W        W40287   7.693   6.152  14.446
36327W        W40288  10.899   4.074  14.398
36328W        W40289  10.617   5.002  13.019
36329W        W40290   8.925   7.132  14.496
36330W        W40291   8.780   3.761  11.223
36331W        W40292  10.319   6.360  11.166
36332W        W40293   8.088   4.453  14.052
36333W        W40294   8.522   6.447  13.914
36334W        W40295  10.648   4.438  13.712
36335W        W40296   9.859   7.097  11.680
36336W        W40297  10.098   5.716  13.047
36337W        W40298   8.348   4.132  13.714
36338W        W40299   8.817   5.201  14.471
36339W        W40300   8.320   6.380  11.665
36340W        W40301  10.075   5.878  11.929
36341W        W40302   7.843   4.504  13.653
36342W        W40303   9.172   6.566  12.117
36343W        W40304  10.922   5.126  12.298
36344W        W40305   9.144   3.759  14.017
36345W        W40306   9.924   6.464  13.096
36346W        W40307  10.227   6.808  12.804
36347W        W40308   9.446   6.610  11.232
36348W        W40309   7.456   6.502  14.074
36349W        W40310   8.199   4.494  13.312
36350W        W40311   8.169   3.842  12.422
36351W        W40312   9.790   4.684  13.114
36352W        W40313   8.588   5.855  11.314
36353W        W40314  10.586   5.797  12.813
36354W        W40315   7.913   6.555  14.236
36355W        W40316  10.300   7.237  12.033
36356W        W40317   8.399   4.257  12.478
36357W        W40318   8.168   5.750  12.568
36358W        W40319   8.481   7.161  13.318
36359W        W40320  10.548   7.257  14.350
36360W        W40321   9.707   5.445  13.283
36361W        W40322   7.556   5.243  11.198
36362W        W40323  10.690   6.901  11.895
36363W        W40324  10.527   4.225  11.514
36364W        W40325   8.666   3.744  13.917
36365W        W40326  10.372   6.546  12.375
36366W        W40327  10.401   5.102  12.280
36367W        W40328   8.518   4.775  12.496
36368W        W40329   8.763   5.037  13.820
36369W        W40330   9.874   6.190  13.683
36370W        W40331   8.524   4.644  13.795
36371W        W40332   8.503   7.110  12.411
36372W        W40333   7.820   7.069  14.045
36373W        W40334   7.932   6.430  11.175
36374W        W40335  10.449   6.188  11.985
36375W        W40336   8.053   4.980  13.871
36376W        W40337  10.826   4.910  11.352
36377W        W40338   8.571   5.967  11.823
36378W        W40339   9.670   5.349  13.904
36379W        W40340   9.561   4.977  13.448
36380W        W40341   8.121   5.349  13.477
36381W        W40342  10.331   7.237  13.306
36382W        W40343  10.122   3.871  14.300
36383W        W40344   7.786   4.021  13.887
36384W        W40345   8.125   5.044  12.940
36385W        W40346   8.494   4.858  11.062
36386W        W40347   7.297   6.617  13.607
36387W        W40348   8.882   5.326  13.050
36388W        W40349   8.705   4.351  11.155
36389W        W40350   7.840   5.167  11.936
36390W        W40351   7.611   7.019  13.373
36391W        W40352  10.406   5.245  11.481
36392W        W40353  10.501   4.161  14.167
36393W        W40354   9.937   6.370  12.130
36394W        W40355   7.535   5.294  14.307
36395W        W40356  10.501   3.758  11.603
36396W        W40357  10.021   6.233  11.614
36397W        W40358   8.923   5.291  11.699
36398W        W40359  10.110   4.095  11.222
36399W        W40360  10.175   4.702  13.408
36400W        W40361   7.884   5.295  12.615
36401W        W40362   8.178   6.234  12.264
36402W        W40363   9.941   4.854  12.229
36403W        W40364   8.964   4.233  12.925
36404W        W40365  10.926   6.144  13.436
36405W        W40366  10.844   4.131  12.997
36406W        W40367   7.383   6.961  12.373
36407W        W40368   7.892   6.148  11.909
36408W        W40369   7.807   3.765  14.462
36409W        W40370   8.926   6.618  14.564
36410W        W40371  10.681   5.586  12.354
36411W        W40372  10.035   5.763  11.234
36412W        W40373   9.330   7.284  13.446
36413W        W40374  10.187   6.006  14.483
36414W        W40375   9.002   3.716  11.763
36415W        W40376   9.715   4.585  12.622
36416W        W40377   7.401   6.172  12.954
36417W        W40378   8.654   4.134  11.595
36418W        W40379   8.458   5.618  14.444
36419W        W40380   9.452   4.599  12.158
36420W        W40381   9.657   6.009  13.280
36421W        W40382   7.811   6.614  13.715
36422W        W40383   8.402   6.597  14.438
36423W        W40384   8.253   4.394  11.452
36424W        W40385   9.770   4.536  11.777
36425W        W40386   9.728   6.644  14.014
36426W        W40387   8.413   5.236  12.613
36427W        W40388   8.068   6.934  13.478
36428W        W40389  10.813   7.051  11.079
36429W        W40390   7.676   5.723  14.075
36430W        W40391   9.671   5.985  12.763
36431W        W40392   8.107   5.634  12.005
36432W        W40393   8.478   6.641  13.400
36433W        W40394   8.856   4.060  12.441
36434W        W40395   7.467   6.044  11.371
36435W        W40396   8.986   4.995  11.241
36436W        W40397   7.632   5.544  12.260
36437W        W40398   8.922   4.186  13.724
36438W        W40399  10.594   3.895  11.151
36439W        W40400  10.687   5.641  14.250
36440W        W40401   9.341   6.898  14.402
36441W        W40402  10.899   5.992  13.924
36442W        W40403  10.307   6.790  14.535
36443W        W40404   8.046   7.246  13.013
36444W        W40405  10.905   5.868  11.887
36445W        W40406   9.435   5.135  12.400
36446W        W40407   9.202   3.747  12.290
36447W        W40408   8.261   6.731  12.127
36448W        W40409   8.760   4.472  13.352
36449W        W40410   8.460   3.841  12.821
36450W        W40411   7.523   6.663  11.369
36451W        W40412   9.339   6.027  12.087
36452W        W40413   8.214   6.822  13.966
36453W        W40414   7.691   5.645  11.662
36454W        W40415   7.576   4.188  12.661
36455W        W40416   9.124   6.153  12.718
36456W        W40417   7.376   4.007  11.738
36457W        W40418  10.040   5.213  13.665
36458W        W40419   9.917   4.599  11.237
36459W        W40420  10.434   6.271  12.885
36460W        W40421   9.095   6.755  12.716
36461W        W40422   8.507   6.859  11.627
36462W        W40423   9.789   3.762  11.057
36463W        W40424   7.589   7.022  12.798
36464W        W40425   9.786   4.780  14.433
36465W        W40426   7.769   4.310  14.432
36466W        W40427   7.500   4.910  11.765
36467W        W40428   8.191   4.899  11.490
36468W        W40429   9.954   5.226  14.307
36469W        W40430   8.297   5.507  13.016
36470W        W40431   9.771   3.793  12.136
36471W        W40432   8.902   7.224  12.639
36472W        W40433  10.116   6.686  13.576
36473W        W40434   9.700   6.835  12.687
36474W        W40435   9.719   5.815  12.281
36475W        W40436   9.181   4.040  11.352
36476W        W40437  10.862   3.668  12.074
36477W        W40438   8.550   5.303  11.237
36478W        W40439  10.716   4.640  12.227
36479W        W40440   9.408   5.810  11.104
36480W        W40441  10.344   6.010  13.852
36481W        W40442   9.998   6.711  11.319
36482W        W40443   8.613   4.386  14.225
36483W        W40444   8.433   4.970  13.466
36484W        W40445  10.525   6.465  13.743
36485W        W40446   9.625   4.415  14.120
36486W        W40447   7.469   4.886  13.897
36487W        W40448   9.229   5.363  13.623
36488W        W40449   7.586   6.121  12.280
36489W        W40450   7.733   5.418  13.170
36490W        W40451  10.050   5.704  13.520
36491W        W40452   9.822   7.084  14.331
36492W        W40453   9.718   4.823  13.884
36493W        W40454   9.995   6.877  12.289
36494W        W40455   8.997   6.597  13.612
36495W        W40456   8.482   6.952  12.881
36496W        W40457  10.287   6.123  13.300
36497W        W40458   9.337   6.195  14.437
36498W        W40459   7.942   6.148  12.776
36499W        W40460  10.288   5.907  12.421
36500W        W40461   9.929   6.973  13.172
36501W        W40462   7.907   6.702  13.042
36502W        W40463   8.928   4.754  14.252
36503W        W40464   9.379   6.920  11.763
36504W        W40465   8.687   6.175  14.401
36505W        W40466   8.813   6.413  11.778
36506W        W40467   8.034   5.153  11.037
36507W        W40468   7.373   7.239  17.936
36508W        W40469   7.749   6.132  17.459
36509W        W40470  10.454   5.862  15.229
36510W        W40471  10.584   6.947  17.256
36511W        W40472   8.502   6.938  14.782
36512W        W40473   8.585   5.090  15.765
36513W        W40474   8.100   4.938  15.929
36514W        W40475   9.091   5.753  15.363
36515W        W40476   8.766   6.845  17.718
36516W        W40477   7.415   4.406  17.681
36517W        W40478   8.177   3.686  17.483
36518W        W40479   9.871   4.074  16.370
36519W        W40480   9.520   4.945  14.940
36520W        W40481  10.090   4.379  18.031
36521W        W40482   7.456   4.171  17.156
36522W        W40483   7.555   6.790  18.177
36523W        W40484   9.077   6.180  14.909
36524W        W40485   7.509   4.963  16.602
36525W        W40486   8.402   4.854  17.839
36526W        W40487  10.861   4.713  16.338
36527W        W40488  10.625   5.756  17.197
36528W        W40489   8.933   5.089  16.224
36529W        W40490   9.479   6.428  16.593
36530W        W40491   7.979   5.862  16.825
36531W        W40492   7.338   5.390  16.396
36532W        W40493   8.374   5.362  17.588
36533W        W40494  10.645   5.145  17.842
36534W        W40495   8.261   6.589  16.287
36535W        W40496   9.382   6.278  17.421
36536W        W40497   8.602   4.918  16.646
36537W        W40498   8.894   5.702  16.289
36538W        W40499   9.891   6.475  18.137
36539W        W40500   8.970   5.795  18.147
36540W        W40501   8.951   5.511  17.625
36541W        W40502   7.360   4.902  18.147
36542W        W40503  10.192   6.437  17.746
36543W        W40504   7.773   4.019  15.744
36544W        W40505   8.300   6.277  16.743
36545W        W40506  10.763   6.060  16.033
36546W        W40507  10.176   4.460  16.600
36547W        W40508  10.461   4.413  14.695
36548W        W40509  10.926   5.214  17.001
36549W        W40510   8.893   6.921  16.754
36550W        W40511  10.667   6.387  15.192
36551W        W40512   7.796   7.173  14.946
36552W        W40513   8.189   7.219  15.622
36553W        W40514   7.986   3.973  17.048
36554W        W40515  10.609   4.991  17.323
36555W        W40516  10.014   5.413  15.782
36556W        W40517   9.980   5.101  14.809
36557W        W40518   9.188   6.245  16.949
36558W        W40519   8.994   4.575  16.148
36559W        W40520   9.594   6.662  17.142
36560W        W40521  10.465   5.453  15.564
36561W        W40522   9.367   4.111  15.580
36562W        W40523   8.024   6.805  15.263
36563W        W40524   7.395   4.304  15.862
36564W        W40525  10.181   4.911  16.336
36565W        W40526   7.639   6.528  16.251
36566W        W40527   8.980   6.878  15.121
36567W        W40528  10.372   4.904  14.585
36568W        W40529   7.395   6.662  16.749
36569W        W40530   8.186   6.234  17.229
36570W        W40531   8.559   5.594  15.848
36571W        W40532   8.581   3.999  16.941
36572W        W40533  10.810   3.761  16.238
36573W        W40534   8.029   5.633  14.706
36574W        W40535   7.684   4.666  14.885
36575W        W40536   7.746   6.622  15.679
36576W        W40537   8.877   6.105  15.927
36577W        W40538  10.209   6.964  17.641
36578W        W40539   9.135   4.606  15.325
36579W        W40540  10.518   7.004  16.097
36580W        W40541  10.195   4.857  17.695
36581W        W40542  10.908   6.513  15.829
36582W        W40543   9.535   5.805  17.313
36583W        W40544   7.301   5.356  15.519
36584W        W40545   8.412   5.771  17.092
36585W        W40546   9.616   5.035  15.470
36586W        W40547   9.493   5.525  15.574
36587W        W40548   7.836   4.945  17.048
36588W        W40549   7.821   4.821  17.970
36589W        W40550   7.711   3.738  16.129
36590W        W40551   9.479   4.085  16.690
36591W        W40552   9.127   4.270  17.853
36592W        W40553   9.482   4.419  15.031
36593W        W40554  10.665   6.812  17.785
36594W        W40555   9.632   3.893  17.824
36595W        W40556  10.651   6.194  17.946
36596W        W40557  10.081   4.361  17.542
36597W        W40558   9.881   4.299  15.812
36598W        W40559  10.274   5.433  18.216
36599W        W40560   8.014   7.009  16.202
36600W        W40561   8.672   4.726  15.188
36601W        W40562   8.241   4.010  17.852
36602W        W40563  10.293   4.494  15.533
36603W        W40564  10.660   4.976  15.478
36604W        W40565   8.403   7.193  17.949
36605W        W40566   8.329   3.729  15.184
36606W        W40567  10.650   4.263  16.219
36607W        W40568  10.800   6.512  14.664
36608W        W40569   7.707   5.715  16.366
36609W        W40570   9.624   4.302  14.596
36610W        W40571  10.758   6.634  16.316
36611W        W40572  10.797   3.828  17.066
36612W        W40573   9.242   5.040  17.620
36613W        W40574   9.335   6.379  15.323
36614W        W40575   9.735   5.673  18.063
36615W        W40576   9.409   3.650  16.372
36616W        W40577   8.021   4.553  16.435
36617W        W40578   7.575   5.753  17.209
36618W        W40579   9.434   6.946  15.915
36619W        W40580  10.628   4.543  16.787
36620W        W40581   9.265   6.890  17.554
36621W        W40582  10.608   5.949  14.759
36622W        W40583   9.043   5.432  15.820
36623W        W40584  10.895   3.943  17.561
36624W        W40585   9.044   5.778  17.155
36625W        W40586   9.261   4.664  16.600
36626W        W40587  10.113   4.962  15.438
36627W        W40588  10.400   4.695  15.080
36628W        W40589  10.209   6.735  15.469
36629W        W40590  10.043   6.338  16.265
36630W        W40591   9.939   5.417  15.243
36631W        W40592   9.372   5.627  16.229
36632W        W40593  10.253   5.415  16.296
36633W        W40594   7.628   4.430  16.720
36634W        W40595  10.406   5.482  17.547
36635W        W40596  10.757   7.100  16.693
36636W        W40597   8.687   6.544  16.095
36637W        W40598   9.694   7.077  17.419
36638W        W40599   9.688   4.407  17.183
36639W        W40600   8.895   7.115  17.244
36640W        W40601  10.592   4.069  15.710
36641W        W40602  10.383   5.388  17.011
36642W        W40603   7.366   4.709  17.049
36643W        W40604  10.226   4.504  16.067
36644W        W40605  10.637   4.655  17.844
36645W        W40606   9.522   6.354  16.062
36646W        W40607   8.778   6.945  15.675
36647W        W40608   7.893   4.125  14.933
36648W        W40609   8.997   3.779  16.743
36649W        W40610   8.025   6.899  14.591
36650W        W40611   8.399   5.365  15.342
36651W        W40612   9.053   5.994  17.655
36652W        W40613   8.883   4.352  15.645
36653W        W40614  10.239   3.949  16.073
36654W        W40615   9.959   7.231  16.401
36655W        W40616   9.371   6.879  16.741
36656W        W40617   8.767   5.916  16.702
36657W        W40618  10.537   6.639  16.828
36658W        W40619   8.231   4.142  15.597
36659W        W40620   8.753   6.439  16.557
36660W        W40621   8.236   4.370  14.622
36661W        W40622   9.037   4.979  17.016
36662W        W40623   9.885   3.845  16.886
36663W        W40624   7.305   5.688  16.771
36664W        W40625   9.009   5.506  14.929
36665W        W40626   8.277   3.821  14.699
36666W        W40627   9.015   4.902  15.750
36667W        W40628   9.985   3.878  17.449
36668W        W40629   8.573   5.890  17.558
36669W        W40630   9.377   5.672  17.775
36670W        W40631   9.994   5.702  17.668
36671W        W40632   9.278   3.842  18.173
36672W        W40633   8.500   4.458  16.566
36673W        W40634   7.926   4.414  15.964
36674W        W40635   7.712   7.126  15.640
36675W        W40636   9.044   6.456  17.765
36676W        W40637   8.079   5.941  15.124
36677W        W40638   9.759   5.326  16.345
36678W        W40639  10.039   5.125  16.744
36679W        W40640   9.244   5.799  16.678
36680W        W40641   9.714   6.173  14.810
36681W        W40642   9.386   4.194  16.138
36682W        W40643  10.865   4.472  15.406
36683W        W40644   7.359   7.061  17.437
36684W        W40645   7.776   6.287  16.969
36685W        W40646   7.343   7.133  15.201
36686W        W40647   9.242   4.403  17.007
36687W        W40648   8.605   6.426  14.856
36688W        W40649  10.510   6.808  15.042
36689W        W40650   9.485   5.461  15.056
36690W        W40651   8.328   4.652  15.573
36691W        W40652   9.160   4.562  14.625
36692W        W40653   9.744   6.127  17.803
36693W        W40654  10.097   4.033  15.420
36694W        W40655   7.427   3.881  14.868
36695W        W40656   8.713   6.200  17.158
36696W        W40657   8.512   6.116  16.250
36697W        W40658   8.254   6.068  14.648
36698W        W40659   7.495   6.309  15.416
36699W        W40660   7.999   5.379  17.858
36700W        W40661   8.703   3.939  18.044
36701W        W40662   9.412   4.081  17.400
36702W        W40663   8.607   3.849  15.681
36703W        W40664   9.666   3.926  15.186
36704W        W40665   7.611   3.858  16.763
36705W        W40666   7.659   4.821  16.133
36706W        W40667  10.348   3.929  16.539
36707W        W40668   7.770   4.427  15.353
36708W        W40669  10.341   4.115  16.969
36709W        W40670  10.737   5.318  14.654
36710W        W40671   8.029   4.076  16.473
36711W        W40672   9.143   4.648  17.413
36712W        W40673   7.291   4.338  14.891
36713W        W40674   8.077   5.727  17.452
36714W        W40675   9.435   5.125  16.631
36715W        W40676   9.302   7.204  14.927
36716W        W40677   7.448   5.711  14.624
36717W        W40678   8.183   6.122  17.750
36718W        W40679   7.704   5.289  17.381
36719W        W40680   8.695   5.394  17.175
36720W        W40681  10.463   3.753  17.437
36721W        W40682  10.861   5.363  17.428
36722W        W40683  10.849   5.563  15.114
36723W        W40684   9.712   5.895  15.213
36724W        W40685  10.186   7.195  14.908
36725W        W40686   9.363   5.185  18.050
36726W        W40687   7.693   6.152  18.090
36727W        W40688  10.899   4.074  18.042
36728W        W40689  10.617   5.002  16.663
36729W        W40690   8.925   7.132  18.140
36730W        W40691   8.780   3.761  14.867
36731W        W40692  10.319   6.360  14.810
36732W        W40693   8.088   4.453  17.696
36733W        W40694   8.522   6.447  17.558
36734W        W40695  10.648   4.438  17.356
36735W        W40696   9.859   7.097  15.324
36736W        W40697  10.098   5.716  16.691
36737W        W40698   8.348   4.132  17.358
36738W        W40699   8.817   5.201  18.115
36739W        W40700   8.320   6.380  15.309
36740W        W40701  10.075   5.878  15.573
36741W        W40702   7.843   4.504  17.297
36742W        W40703   9.172   6.566  15.761
36743W        W40704  10.922   5.126  15.942
36744W        W40705   9.144   3.759  17.661
36745W        W40706   9.924   6.464  16.740
36746W        W40707  10.227   6.808  16.448
36747W        W40708   9.446   6.610  14.876
36748W        W40709   7.456   6.502  17.718
36749W        W40710   8.199   4.494  16.956
36750W        W40711   8.169   3.842  16.066
36751W        W40712   9.790   4.684  16.758
36752W        W40713   8.588   5.855  14.958
36753W        W40714  10.586   5.797  16.457
36754W        W40715   7.913   6.555  17.880
36755W        W40716  10.300   7.237  15.677
36756W        W40717   8.399   4.257  16.122
36757W        W40718   8.168   5.750  16.212
36758W        W40719   8.481   7.161  16.962
36759W        W40720  10.548   7.257  17.994
36760W        W40721   9.707   5.445  16.927
36761W        W40722   7.556   5.243  14.842
36762W        W40723  10.690   6.901  15.539
36763W        W40724  10.527   4.225  15.158
36764W        W40725   8.666   3.744  17.561
36765W        W40726  10.372   6.546  16.019
36766W        W40727  10.401   5.102  15.924
36767W        W40728   8.518   4.775  16.140
36768W        W40729   8.763   5.037  17.464
36769W        W40730   9.874   6.190  17.327
36770W        W40731   8.524   4.644  17.439
36771W        W40732   8.503   7.110  16.055
36772W        W40733   7.820   7.069  17.689
36773W        W40734   7.932   6.430  14.819
36774W        W40735  10.449   6.188  15.629
36775W        W40736   8.053   4.980  17.515
36776W        W40737  10.826   4.910  14.996
36777W        W40738   8.571   5.967  15.467
36778W        W40739   9.670   5.349  17.548
36779W        W40740   9.561   4.977  17.092
36780W        W40741   8.121   5.349  17.121
36781W        W40742  10.331   7.237  16.950
36782W        W40743  10.122   3.871  17.944
36783W        W40744   7.786   4.021  17.531
36784W        W40745   8.125   5.044  16.584
36785W        W40746   8.494   4.858  14.706
36786W        W40747   7.297   6.617  17.251
36787W        W40748   8.882   5.326  16.694
36788W        W40749   8.705   4.351  14.799
36789W        W40750   7.840   5.167  15.580
36790W        W40751   7.611   7.019  17.017
36791W        W40752  10.406   5.245  15.125
36792W        W40753  10.501   4.161  17.811
36793W        W40754   9.937   6.370  15.774
36794W        W40755   7.535   5.294  17.951
36795W        W40756  10.501   3.758  15.247
36796W        W40757  10.021   6.233  15.258
36797W        W40758   8.923   5.291  15.343
36798W        W40759  10.110   4.095  14.866
36799W        W40760  10.175   4.702  17.052
36800W        W40761   7.884   5.295  16.259
36801W        W40762   8.178   6.234  15.908
36802W        W40763   9.941   4.854  15.873
36803W        W40764   8.964   4.233  16.569
36804W        W40765  10.926   6.144  17.080
36805W        W40766  10.844   4.131  16.641
36806W        W40767   7.383   6.961  16.017
36807W        W40768   7.892   6.148  15.553
36808W        W40769   7.807   3.765  18.106
36809W        W40770   8.926   6.618  18.208
36810W        W40771  10.681   5.586  15.998
36811W        W40772  10.035   5.763  14.878
36812W        W40773   9.330   7.284  17.090
36813W        W40774  10.187   6.006  18.127
36814W        W40775   9.002   3.716  15.407
36815W        W40776   9.715   4.585  16.266
36816W        W40777   7.401   6.172  16.598
36817W        W40778   8.654   4.134  15.239
36818W        W40779   8.458   5.618  18.088
36819W        W40780   9.452   4.599  15.802
36820W        W40781   9.657   6.009  16.924
36821W        W40782   7.811   6.614  17.359
36822W        W40783   8.402   6.597  18.082
36823W        W40784   8.253   4.394  15.096
36824W        W40785   9.770   4.536  15.421
36825W        W40786   9.728   6.644  17.658
36826W        W40787   8.413   5.236  16.257
36827W        W40788   8.068   6.934  17.122
36828W        W40789  10.813   7.051  14.723
36829W        W40790   7.676   5.723  17.719
36830W        W40791   9.671   5.985  16.407
36831W        W40792   8.107   5.634  15.649
36832W        W40793   8.478   6.641  17.044
36833W        W40794   8.856   4.060  16.085
36834W        W40795   7.467   6.044  15.015
36835W        W40796   8.986   4.995  14.885
36836W        W40797   7.632   5.544  15.904
36837W        W40798   8.922   4.186  17.368
36838W        W40799  10.594   3.895  14.795
36839W        W40800  10.687   5.641  17.894
36840W        W40801   9.341   6.898  18.046
36841W        W40802  10.899   5.992  17.568
36842W        W40803  10.307   6.790  18.179
36843W        W40804   8.046   7.246  16.657
36844W        W40805  10.905   5.868  15.531
36845W        W40806   9.435   5.135  16.044
36846W        W40807   9.202   3.747  15.934
36847W        W40808   8.261   6.731  15.771
36848W        W40809   8.760   4.472  16.996
36849W        W40810   8.460   3.841  16.465
36850W        W40811   7.523   6.663  15.013
36851W        W40812   9.339   6.027  15.731
36852W        W40813   8.214   6.822  17.610
36853W        W40814   7.691   5.645  15.306
36854W        W40815   7.576   4.188  16.305
36855W        W40816   9.124   6.153  16.362
36856W        W40817   7.376   4.007  15.382
36857W        W40818  10.040   5.213  17.309
36858W        W40819   9.917   4.599  14.881
36859W        W40820  10.434   6.271  16.529
36860W        W40821   9.095   6.755  16.360
36861W        W40822   8.507   6.859  15.271
36862W        W40823   9.789   3.762  14.701
36863W        W40824   7.589   7.022  16.442
36864W        W40825   9.786   4.780  18.077
36865W        W40826   7.769   4.310  18.076
36866W        W40827   7.500   4.910  15.409
36867W        W40828   8.191   4.899  15.134
36868W        W40829   9.954   5.226  17.951
36869W        W40830   8.297   5.507  16.660
36870W        W40831   9.771   3.793  15.780
36871W        W40832   8.902   7.224  16.283
36872W        W40833  10.116   6.686  17.220
36873W        W40834   9.700   6.835  16.331
36874W        W40835   9.719   5.815  15.925
36875W        W40836   9.181   4.040  14.996
36876W        W40837  10.862   3.668  15.718
36877W        W40838   8.550   5.303  14.881
36878W        W40839  10.716   4.640  15.871
36879W        W40840   9.408   5.810  14.748
36880W        W40841  10.344   6.010  17.496
36881W        W40842   9.998   6.711  14.963
36882W        W40843   8.613   4.386  17.869
36883W        W40844   8.433   4.970  17.110
36884W        W40845  10.525   6.465  17.387
36885W        W40846   9.625   4.415  17.764
36886W        W40847   7.469   4.886  17.541
36887W        W40848   9.229   5.363  17.267
36888W        W40849   7.586   6.121  15.924
36889W        W40850   7.733   5.418  16.814
36890W        W40851  10.050   5.704  17.164
36891W        W40852   9.822   7.084  17.975
36892W        W40853   9.718   4.823  17.528
36893W        W40854   9.995   6.877  15.933
36894W        W40855   8.997   6.597  17.256
36895W        W40856   8.482   6.952  16.525
36896W        W40857  10.287   6.123  16.944
36897W        W40858   9.337   6.195  18.081
36898W        W40859   7.942   6.148  16.420
36899W        W40860  10.288   5.907  16.065
36900W        W40861   9.929   6.973  16.816
36901W        W40862   7.907   6.702  16.686
36902W        W40863   8.928   4.754  17.896
36903W        W40864   9.379   6.920  15.407
36904W        W40865   8.687   6.175  18.045
36905W        W40866   8.813   6.413  15.422
36906W        W40867   8.034   5.153  14.681
36907W        W40868   7.373   7.239  21.580
36908W        W40869   7.749   6.132  21.103
36909W        W40870  10.454   5.862  18.873
36910W        W40871  10.584   6.947  20.900
36911W        W40872   8.502   6.938  18.426
36912W        W40873   8.585   5.090  19.409
36913W        W40874   8.100   4.938  19.573
36914W        W40875   9.091   5.753  19.007
36915W        W40876   8.766   6.845  21.362
36916W        W40877   7.415   4.406  21.325
36917W        W40878   8.177   3.686  21.127
36918W        W40879   9.871   4.074  20.014
36919W        W40880   9.520   4.945  18.584
36920W        W40881  10.090   4.379  21.675
36921W        W40882   7.456   4.171  20.800
36922W        W40883   7.555   6.790  21.821
36923W        W40884   9.077   6.180  18.553
36924W        W40885   7.509   4.963  20.246
36925W        W40886   8.402   4.854  21.483
36926W        W40887  10.861   4.713  19.982
36927W        W40888  10.625   5.756  20.841
36928W        W40889   8.933   5.089  19.868
36929W        W40890   9.479   6.428  20.237
36930W        W40891   7.979   5.862  20.469
36931W        W40892   7.338   5.390  20.040
36932W        W40893   8.374   5.362  21.232
36933W        W40894  10.645   5.145  21.486
36934W        W40895   8.261   6.589  19.931
36935W        W40896   9.382   6.278  21.065
36936W        W40897   8.602   4.918  20.290
36937W        W40898   8.894   5.702  19.933
36938W        W40899   9.891   6.475  21.781
36939W        W40900   8.970   5.795  21.791
36940W        W40901   8.951   5.511  21.269
36941W        W40902   7.360   4.902  21.791
36942W        W40903  10.192   6.437  21.390
36943W        W40904   7.773   4.019  19.388
36944W        W40905   8.300   6.277  20.387
36945W        W40906  10.763   6.060  19.677
36946W        W40907  10.176   4.460  20.244
36947W        W40908  10.461   4.413  18.339
36948W        W40909  10.926   5.214  20.645
36949W        W40910   8.893   6.921  20.398
36950W        W40911  10.667   6.387  18.836
36951W        W40912   7.796   7.173  18.590
36952W        W40913   8.189   7.219  19.266
36953W        W40914   7.986   3.973  20.692
36954W        W40915  10.609   4.991  20.967
36955W        W40916  10.014   5.413  19.426
36956W        W40917   9.980   5.101  18.453
36957W        W40918   9.188   6.245  20.593
36958W        W40919   8.994   4.575  19.792
36959W        W40920   9.594   6.662  20.786
36960W        W40921  10.465   5.453  19.208
36961W        W40922   9.367   4.111  19.224
36962W        W40923   8.024   6.805  18.907
36963W        W40924   7.395   4.304  19.506
36964W        W40925  10.181   4.911  19.980
36965W        W40926   7.639   6.528  19.895
36966W        W40927   8.980   6.878  18.765
36967W        W40928  10.372   4.904  18.229
36968W        W40929   7.395   6.662  20.393
36969W        W40930   8.186   6.234  20.873
36970W        W40931   8.559   5.594  19.492
36971W        W40932   8.581   3.999  20.585
36972W        W40933  10.810   3.761  19.882
36973W        W40934   8.029   5.633  18.350
36974W        W40935   7.684   4.666  18.529
36975W        W40936   7.746   6.622  19.323
36976W        W40937   8.877   6.105  19.571
36977W        W40938  10.209   6.964  21.285
36978W        W40939   9.135   4.606  18.969
36979W        W40940  10.518   7.004  19.741
36980W        W40941  10.195   4.857  21.339
36981W        W40942  10.908   6.513  19.473
36982W        W40943   9.535   5.805  20.957
36983W        W40944   7.301   5.356  19.163
36984W        W40945   8.412   5.771  20.736
36985W        W40946   9.616   5.035  19.114
36986W        W40947   9.493   5.525  19.218
36987W        W40948   7.836   4.945  20.692
36988W        W40949   7.821   4.821  21.614
36989W        W40950   7.711   3.738  19.773
36990W        W40951   9.479   4.085  20.334
36991W        W40952   9.127   4.270  21.497
36992W        W40953   9.482   4.419  18.675
36993W        W40954  10.665   6.812  21.429
36994W        W40955   9.632   3.893  21.468
36995W        W40956  10.651   6.194  21.590
36996W        W40957  10.081   4.361  21.186
36997W        W40958   9.881   4.299  19.456
36998W        W40959  10.274   5.433  21.860
36999W        W40960   8.014   7.009  19.846
37000W        W40961   8.672   4.726  18.832
37001W        W40962   8.241   4.010  21.496
37002W        W40963  10.293   4.494  19.177
37003W        W40964  10.660   4.976  19.122
37004W        W40965   8.403   7.193  21.593
37005W        W40966   8.329   3.729  18.828
37006W        W40967  10.650   4.263  19.863
37007W        W40968  10.800   6.512  18.308
37008W        W40969   7.707   5.715  20.010
37009W        W40970   9.624   4.302  18.240
37010W        W40971  10.758   6.634  19.960
37011W        W40972  10.797   3.828  20.710
37012W        W40973   9.242   5.040  21.264
37013W        W40974   9.335   6.379  18.967
37014W        W40975   9.735   5.673  21.707
37015W        W40976   9.409   3.650  20.016
37016W        W40977   8.021   4.553  20.079
37017W        W40978   7.575   5.753  20.853
37018W        W40979   9.434   6.946  19.559
37019W        W40980  10.628   4.543  20.431
37020W        W40981   9.265   6.890  21.198
37021W        W40982  10.608   5.949  18.403
37022W        W40983   9.043   5.432  19.464
37023W        W40984  10.895   3.943  21.205
37024W        W40985   9.044   5.778  20.799
37025W        W40986   9.261   4.664  20.244
37026W        W40987  10.113   4.962  19.082
37027W        W40988  10.400   4.695  18.724
37028W        W40989  10.209   6.735  19.113
37029W        W40990  10.043   6.338  19.909
37030W        W40991   9.939   5.417  18.887
37031W        W40992   9.372   5.627  19.873
37032W        W40993  10.253   5.415  19.940
37033W        W40994   7.628   4.430  20.364
37034W        W40995  10.406   5.482  21.191
37035W        W40996  10.757   7.100  20.337
37036W        W40997   8.687   6.544  19.739
37037W        W40998   9.694   7.077  21.063
37038W        W40999   9.688   4.407  20.827
37039W        W41000   8.895   7.115  20.888
37040W        W41001  10.592   4.069  19.354
37041W        W41002  10.383   5.388  20.655
37042W        W41003   7.366   4.709  20.693
37043W        W41004  10.226   4.504  19.711
37044W        W41005  10.637   4.655  21.488
37045W        W41006   9.522   6.354  19.706
37046W        W41007   8.778   6.945  19.319
37047W        W41008   7.893   4.125  18.577
37048W        W41009   8.997   3.779  20.387
37049W        W41010   8.025   6.899  18.235
37050W        W41011   8.399   5.365  18.986
37051W        W41012   9.053   5.994  21.299
37052W        W41013   8.883   4.352  19.289
37053W        W41014  10.239   3.949  19.717
37054W        W41015   9.959   7.231  20.045
37055W        W41016   9.371   6.879  20.385
37056W        W41017   8.767   5.916  20.346
37057W        W41018  10.537   6.639  20.472
37058W        W41019   8.231   4.142  19.241
37059W        W41020   8.753   6.439  20.201
37060W        W41021   8.236   4.370  18.266
37061W        W41022   9.037   4.979  20.660
37062W        W41023   9.885   3.845  20.530
37063W        W41024   7.305   5.688  20.415
37064W        W41025   9.009   5.506  18.573
37065W        W41026   8.277   3.821  18.343
37066W        W41027   9.015   4.902  19.394
37067W        W41028   9.985   3.878  21.093
37068W        W41029   8.573   5.890  21.202
37069W        W41030   9.377   5.672  21.419
37070W        W41031   9.994   5.702  21.312
37071W        W41032   9.278   3.842  21.817
37072W        W41033   8.500   4.458  20.210
37073W        W41034   7.926   4.414  19.608
37074W        W41035   7.712   7.126  19.284
37075W        W41036   9.044   6.456  21.409
37076W        W41037   8.079   5.941  18.768
37077W        W41038   9.759   5.326  19.989
37078W        W41039  10.039   5.125  20.388
37079W        W41040   9.244   5.799  20.322
37080W        W41041   9.714   6.173  18.454
37081W        W41042   9.386   4.194  19.782
37082W        W41043  10.865   4.472  19.050
37083W        W41044   7.359   7.061  21.081
37084W        W41045   7.776   6.287  20.613
37085W        W41046   7.343   7.133  18.845
37086W        W41047   9.242   4.403  20.651
37087W        W41048   8.605   6.426  18.500
37088W        W41049  10.510   6.808  18.686
37089W        W41050   9.485   5.461  18.700
37090W        W41051   8.328   4.652  19.217
37091W        W41052   9.160   4.562  18.269
37092W        W41053   9.744   6.127  21.447
37093W        W41054  10.097   4.033  19.064
37094W        W41055   7.427   3.881  18.512
37095W        W41056   8.713   6.200  20.802
37096W        W41057   8.512   6.116  19.894
37097W        W41058   8.254   6.068  18.292
37098W        W41059   7.495   6.309  19.060
37099W        W41060   7.999   5.379  21.502
37100W        W41061   8.703   3.939  21.688
37101W        W41062   9.412   4.081  21.044
37102W        W41063   8.607   3.849  19.325
37103W        W41064   9.666   3.926  18.830
37104W        W41065   7.611   3.858  20.407
37105W        W41066   7.659   4.821  19.777
37106W        W41067  10.348   3.929  20.183
37107W        W41068   7.770   4.427  18.997
37108W        W41069  10.341   4.115  20.613
37109W        W41070  10.737   5.318  18.298
37110W        W41071   8.029   4.076  20.117
37111W        W41072   9.143   4.648  21.057
37112W        W41073   7.291   4.338  18.535
37113W        W41074   8.077   5.727  21.096
37114W        W41075   9.435   5.125  20.275
37115W        W41076   9.302   7.204  18.571
37116W        W41077   7.448   5.711  18.268
37117W        W41078   8.183   6.122  21.394
37118W        W41079   7.704   5.289  21.025
37119W        W41080   8.695   5.394  20.819
37120W        W41081  10.463   3.753  21.081
37121W        W41082  10.861   5.363  21.072
37122W        W41083  10.849   5.563  18.758
37123W        W41084   9.712   5.895  18.857
37124W        W41085  10.186   7.195  18.552
37125W        W41086   9.363   5.185  21.694
37126W        W41087   7.693   6.152  21.734
37127W        W41088  10.899   4.074  21.686
37128W        W41089  10.617   5.002  20.307
37129W        W41090   8.925   7.132  21.784
37130W        W41091   8.780   3.761  18.511
37131W        W41092  10.319   6.360  18.454
37132W        W41093   8.088   4.453  21.340
37133W        W41094   8.522   6.447  21.202
37134W        W41095  10.648   4.438  21.000
37135W        W41096   9.859   7.097  18.968
37136W        W41097  10.098   5.716  20.335
37137W        W41098   8.348   4.132  21.002
37138W        W41099   8.817   5.201  21.759
37139W        W41100   8.320   6.380  18.953
37140W        W41101  10.075   5.878  19.217
37141W        W41102   7.843   4.504  20.941
37142W        W41103   9.172   6.566  19.405
37143W        W41104  10.922   5.126  19.586
37144W        W41105   9.144   3.759  21.305
37145W        W41106   9.924   6.464  20.384
37146W        W41107  10.227   6.808  20.092
37147W        W41108   9.446   6.610  18.520
37148W        W41109   7.456   6.502  21.362
37149W        W41110   8.199   4.494  20.600
37150W        W41111   8.169   3.842  19.710
37151W        W41112   9.790   4.684  20.402
37152W        W41113   8.588   5.855  18.602
37153W        W41114  10.586   5.797  20.101
37154W        W41115   7.913   6.555  21.524
37155W        W41116  10.300   7.237  19.321
37156W        W41117   8.399   4.257  19.766
37157W        W41118   8.168   5.750  19.856
37158W        W41119   8.481   7.161  20.606
37159W        W41120  10.548   7.257  21.638
37160W        W41121   9.707   5.445  20.571
37161W        W41122   7.556   5.243  18.486
37162W        W41123  10.690   6.901  19.183
37163W        W41124  10.527   4.225  18.802
37164W        W41125   8.666   3.744  21.205
37165W        W41126  10.372   6.546  19.663
37166W        W41127  10.401   5.102  19.568
37167W        W41128   8.518   4.775  19.784
37168W        W41129   8.763   5.037  21.108
37169W        W41130   9.874   6.190  20.971
37170W        W41131   8.524   4.644  21.083
37171W        W41132   8.503   7.110  19.699
37172W        W41133   7.820   7.069  21.333
37173W        W41134   7.932   6.430  18.463
37174W        W41135  10.449   6.188  19.273
37175W        W41136   8.053   4.980  21.159
37176W        W41137  10.826   4.910  18.640
37177W        W41138   8.571   5.967  19.111
37178W        W41139   9.670   5.349  21.192
37179W        W41140   9.561   4.977  20.736
37180W        W41141   8.121   5.349  20.765
37181W        W41142  10.331   7.237  20.594
37182W        W41143  10.122   3.871  21.588
37183W        W41144   7.786   4.021  21.175
37184W        W41145   8.125   5.044  20.228
37185W        W41146   8.494   4.858  18.350
37186W        W41147   7.297   6.617  20.895
37187W        W41148   8.882   5.326  20.338
37188W        W41149   8.705   4.351  18.443
37189W        W41150   7.840   5.167  19.224
37190W        W41151   7.611   7.019  20.661
37191W        W41152  10.406   5.245  18.769
37192W        W41153  10.501   4.161  21.455
37193W        W41154   9.937   6.370  19.418
37194W        W41155   7.535   5.294  21.595
37195W        W41156  10.501   3.758  18.891
37196W        W41157  10.021   6.233  18.902
37197W        W41158   8.923   5.291  18.987
37198W        W41159  10.110   4.095  18.510
37199W        W41160  10.175   4.702  20.696
37200W        W41161   7.884   5.295  19.903
37201W        W41162   8.178   6.234  19.552
37202W        W41163   9.941   4.854  19.517
37203W        W41164   8.964   4.233  20.213
37204W        W41165  10.926   6.144  20.724
37205W        W41166  10.844   4.131  20.285
37206W        W41167   7.383   6.961  19.661
37207W        W41168   7.892   6.148  19.197
37208W        W41169   7.807   3.765  21.750
37209W        W41170   8.926   6.618  21.852
37210W        W41171  10.681   5.586  19.642
37211W        W41172  10.035   5.763  18.522
37212W        W41173   9.330   7.284  20.734
37213W        W41174  10.187   6.006  21.771
37214W        W41175   9.002   3.716  19.051
37215W        W41176   9.715   4.585  19.910
37216W        W41177   7.401   6.172  20.242
37217W        W41178   8.654   4.134  18.883
37218W        W41179   8.458   5.618  21.732
37219W        W41180   9.452   4.599  19.446
37220W        W41181   9.657   6.009  20.568
37221W        W41182   7.811   6.614  21.003
37222W        W41183   8.402   6.597  21.726
37223W        W41184   8.253   4.394  18.740
37224W        W41185   9.770   4.536  19.065
37225W        W41186   9.728   6.644  21.302
37226W        W41187   8.413   5.236  19.901
37227W        W41188   8.068   6.934  20.766
37228W        W41189  10.813   7.051  18.367
37229W        W41190   7.676   5.723  21.363
37230W        W41191   9.671   5.985  20.051
37231W        W41192   8.107   5.634  19.293
37232W        W41193   8.478   6.641  20.688
37233W        W41194   8.856   4.060  19.729
37234W        W41195   7.467   6.044  18.659
37235W        W41196   8.986   4.995  18.529
37236W        W41197   7.632   5.544  19.548
37237W        W41198   8.922   4.186  21.012
37238W        W41199  10.594   3.895  18.439
37239W        W41200  10.687   5.641  21.538
37240W        W41201   9.341   6.898  21.690
37241W        W41202  10.899   5.992  21.212
37242W        W41203  10.307   6.790  21.823
37243W        W41204   8.046   7.246  20.301
37244W        W41205  10.905   5.868  19.175
37245W        W41206   9.435   5.135  19.688
37246W        W41207   9.202   3.747  19.578
37247W        W41208   8.261   6.731  19.415
37248W        W41209   8.760   4.472  20.640
37249W        W41210   8.460   3.841  20.109
37250W        W41211   7.523   6.663  18.657
37251W        W41212   9.339   6.027  19.375
37252W        W41213   8.214   6.822  21.254
37253W        W41214   7.691   5.645  18.950
37254W        W41215   7.576   4.188  19.949
37255W        W41216   9.124   6.153  20.006
37256W        W41217   7.376   4.007  19.026
37257W        W41218  10.040   5.213  20.953
37258W        W41219   9.917   4.599  18.525
37259W        W41220  10.434   6.271  20.173
37260W        W41221   9.095   6.755  20.004
37261W        W41222   8.507   6.859  18.915
37262W        W41223   9.789   3.762  18.345
37263W        W41224   7.589   7.022  20.086
37264W        W41225   9.786   4.780  21.721
37265W        W41226   7.769   4.310  21.720
37266W        W41227   7.500   4.910  19.053
37267W        W41228   8.191   4.899  18.778
37268W        W41229   9.954   5.226  21.595
37269W        W41230   8.297   5.507  20.304
37270W        W41231   9.771   3.793  19.424
37271W        W41232   8.902   7.224  19.927
37272W        W41233  10.116   6.686  20.864
37273W        W41234   9.700   6.835  19.975
37274W        W41235   9.719   5.815  19.569
37275W        W41236   9.181   4.040  18.640
37276W        W41237  10.862   3.668  19.362
37277W        W41238   8.550   5.303  18.525
37278W        W41239  10.716   4.640  19.515
37279W        W41240   9.408   5.810  18.392
37280W        W41241  10.344   6.010  21.140
37281W        W41242   9.998   6.711  18.607
37282W        W41243   8.613   4.386  21.513
37283W        W41244   8.433   4.970  20.754
37284W        W41245  10.525   6.465  21.031
37285W        W41246   9.625   4.415  21.408
37286W        W41247   7.469   4.886  21.185
37287W        W41248   9.229   5.363  20.911
37288W        W41249   7.586   6.121  19.568
37289W        W41250   7.733   5.418  20.458
37290W        W41251  10.050   5.704  20.808
37291W        W41252   9.822   7.084  21.619
37292W        W41253   9.718   4.823  21.172
37293W        W41254   9.995   6.877  19.577
37294W        W41255   8.997   6.597  20.900
37295W        W41256   8.482   6.952  20.169
37296W        W41257  10.287   6.123  20.588
37297W        W41258   9.337   6.195  21.725
37298W        W41259   7.942   6.148  20.064
37299W        W41260  10.288   5.907  19.709
37300W        W41261   9.929   6.973  20.460
37301W        W41262   7.907   6.702  20.330
37302W        W41263   8.928   4.754  21.540
37303W        W41264   9.379   6.920  19.051
37304W        W41265   8.687   6.175  21.689
37305W        W41266   8.813   6.413  19.066
37306W        W41267   8.034   5.153  18.325
37307W        W41268  10.454   5.862  22.518
37308W        W41269   8.502   6.938  22.071
37309W        W41270   8.585   5.090  23.054
37310W        W41271   8.100   4.938  23.218
37311W        W41272   9.091   5.753  22.652
37312W        W41273   9.520   4.945  22.229
37313W        W41274   9.077   6.180  22.198
37314W        W41275   7.773   4.019  23.033
37315W        W41276  10.461   4.413  21.984
37316W        W41277  10.667   6.387  22.481
37317W        W41278   7.796   7.173  22.235
37318W        W41279   8.189   7.219  22.911
37319W        W41280  10.014   5.413  23.071
37320W        W41281   9.980   5.101  22.098
37321W        W41282  10.465   5.453  22.853
37322W        W41283   9.367   4.111  22.869
37323W        W41284   8.024   6.805  22.552
37324W        W41285   8.980   6.878  22.410
37325W        W41286  10.372   4.904  21.874
37326W        W41287   8.559   5.594  23.137
37327W        W41288   8.029   5.633  21.995
37328W        W41289   7.684   4.666  22.174
37329W        W41290   7.746   6.622  22.968
37330W        W41291   8.877   6.105  23.216
37331W        W41292   9.135   4.606  22.614
37332W        W41293   7.301   5.356  22.808
37333W        W41294   9.616   5.035  22.759
37334W        W41295   9.493   5.525  22.863
37335W        W41296   9.482   4.419  22.320
37336W        W41297   9.881   4.299  23.101
37337W        W41298   8.672   4.726  22.477
37338W        W41299  10.293   4.494  22.822
37339W        W41300  10.660   4.976  22.767
37340W        W41301   8.329   3.729  22.473
37341W        W41302  10.800   6.512  21.953
37342W        W41303   9.624   4.302  21.885
37343W        W41304   9.335   6.379  22.612
37344W        W41305   9.434   6.946  23.204
37345W        W41306  10.608   5.949  22.048
37346W        W41307   9.043   5.432  23.109
37347W        W41308  10.113   4.962  22.727
37348W        W41309  10.400   4.695  22.369
37349W        W41310  10.209   6.735  22.758
37350W        W41311   9.939   5.417  22.532
37351W        W41312  10.592   4.069  22.999
37352W        W41313   8.778   6.945  22.964
37353W        W41314   7.893   4.125  22.222
37354W        W41315   8.025   6.899  21.880
37355W        W41316   8.399   5.365  22.631
37356W        W41317   8.883   4.352  22.934
37357W        W41318   8.231   4.142  22.886
37358W        W41319   8.236   4.370  21.911
37359W        W41320   9.009   5.506  22.218
37360W        W41321   8.277   3.821  21.988
37361W        W41322   9.015   4.902  23.039
37362W        W41323   7.926   4.414  23.253
37363W        W41324   7.712   7.126  22.929
37364W        W41325   8.079   5.941  22.413
37365W        W41326   9.714   6.173  22.099
37366W        W41327  10.865   4.472  22.695
37367W        W41328   7.343   7.133  22.490
37368W        W41329   8.605   6.426  22.145
37369W        W41330  10.510   6.808  22.331
37370W        W41331   9.485   5.461  22.345
37371W        W41332   8.328   4.652  22.862
37372W        W41333   9.160   4.562  21.914
37373W        W41334  10.097   4.033  22.709
37374W        W41335   7.427   3.881  22.157
37375W        W41336   8.254   6.068  21.937
37376W        W41337   7.495   6.309  22.705
37377W        W41338   8.607   3.849  22.970
37378W        W41339   9.666   3.926  22.475
37379W        W41340   7.770   4.427  22.642
37380W        W41341  10.737   5.318  21.943
37381W        W41342   7.291   4.338  22.180
37382W        W41343   9.302   7.204  22.216
37383W        W41344   7.448   5.711  21.913
37384W        W41345  10.849   5.563  22.403
37385W        W41346   9.712   5.895  22.502
37386W        W41347  10.186   7.195  22.197
37387W        W41348   8.780   3.761  22.156
37388W        W41349  10.319   6.360  22.099
37389W        W41350   9.859   7.097  22.613
37390W        W41351   8.320   6.380  22.598
37391W        W41352  10.075   5.878  22.862
37392W        W41353   9.172   6.566  23.050
37393W        W41354  10.922   5.126  23.231
37394W        W41355   9.446   6.610  22.165
37395W        W41356   8.588   5.855  22.247
37396W        W41357  10.300   7.237  22.966
37397W        W41358   7.556   5.243  22.131
37398W        W41359  10.690   6.901  22.828
37399W        W41360  10.527   4.225  22.447
37400W        W41361  10.401   5.102  23.213
37401W        W41362   7.932   6.430  22.108
37402W        W41363  10.449   6.188  22.918
37403W        W41364  10.826   4.910  22.285
37404W        W41365   8.571   5.967  22.756
37405W        W41366   8.494   4.858  21.995
37406W        W41367   8.705   4.351  22.088
37407W        W41368   7.840   5.167  22.869
37408W        W41369  10.406   5.245  22.414
37409W        W41370   9.937   6.370  23.063
37410W        W41371  10.501   3.758  22.536
37411W        W41372  10.021   6.233  22.547
37412W        W41373   8.923   5.291  22.632
37413W        W41374  10.110   4.095  22.155
37414W        W41375   8.178   6.234  23.197
37415W        W41376   9.941   4.854  23.162
37416W        W41377   7.383   6.961  23.306
37417W        W41378   7.892   6.148  22.842
37418W        W41379  10.681   5.586  23.287
37419W        W41380  10.035   5.763  22.167
37420W        W41381   9.002   3.716  22.696
37421W        W41382   8.654   4.134  22.528
37422W        W41383   9.452   4.599  23.091
37423W        W41384   8.253   4.394  22.385
37424W        W41385   9.770   4.536  22.710
37425W        W41386  10.813   7.051  22.012
37426W        W41387   7.467   6.044  22.304
37427W        W41388   8.986   4.995  22.174
37428W        W41389   7.632   5.544  23.193
37429W        W41390  10.594   3.895  22.084
37430W        W41391  10.905   5.868  22.820
37431W        W41392   9.202   3.747  23.223
37432W        W41393   8.261   6.731  23.060
37433W        W41394   7.523   6.663  22.302
37434W        W41395   9.339   6.027  23.020
37435W        W41396   7.691   5.645  22.595
37436W        W41397   7.376   4.007  22.671
37437W        W41398   9.917   4.599  22.170
37438W        W41399   8.507   6.859  22.560
37439W        W41400   9.789   3.762  21.990
37440W        W41401   7.500   4.910  22.698
37441W        W41402   8.191   4.899  22.423
37442W        W41403   9.719   5.815  23.214
37443W        W41404   9.181   4.040  22.285
37444W        W41405  10.862   3.668  23.007
37445W        W41406   8.550   5.303  22.170
37446W        W41407  10.716   4.640  23.160
37447W        W41408   9.408   5.810  22.037
37448W        W41409   9.998   6.711  22.252
37449W        W41410   7.586   6.121  23.213
37450W        W41411   9.995   6.877  23.222
37451W        W41412   9.379   6.920  22.696
37452W        W41413   8.813   6.413  22.711
37453W        W41414   8.034   5.153  21.970
37454W        W41415   7.373  10.884   3.359
37455W        W41416   7.749   9.777   2.882
37456W        W41417  10.584  10.592   2.679
37457W        W41418   8.502  10.583   0.205
37458W        W41419   8.585   8.735   1.188
37459W        W41420   8.100   8.583   1.352
37460W        W41421   9.091   9.398   0.786
37461W        W41422   8.766  10.490   3.141
37462W        W41423   7.415   8.051   3.104
37463W        W41424   8.177   7.331   2.906
37464W        W41425   9.871   7.719   1.793
37465W        W41426   9.520   8.590   0.363
37466W        W41427  10.090   8.024   3.454
37467W        W41428   7.456   7.816   2.579
37468W        W41429   7.555  10.435   3.600
37469W        W41430   9.077   9.825   0.332
37470W        W41431   7.509   8.608   2.025
37471W        W41432   8.402   8.499   3.262
37472W        W41433  10.861   8.358   1.761
37473W        W41434  10.625   9.401   2.620
37474W        W41435   8.933   8.734   1.647
37475W        W41436   9.479  10.073   2.016
37476W        W41437   7.979   9.507   2.248
37477W        W41438   7.338   9.035   1.819
37478W        W41439   8.374   9.007   3.011
37479W        W41440  10.645   8.790   3.265
37480W        W41441   8.261  10.234   1.710
37481W        W41442   9.382   9.923   2.844
37482W        W41443   8.894   9.347   1.712
37483W        W41444   9.891  10.120   3.560
37484W        W41445   8.970   9.440   3.570
37485W        W41446   8.951   9.156   3.048
37486W        W41447   7.360   8.547   3.570
37487W        W41448  10.192  10.082   3.169
37488W        W41449   7.773   7.664   1.167
37489W        W41450   8.300   9.922   2.166
37490W        W41451  10.763   9.705   1.456
37491W        W41452  10.176   8.105   2.023
37492W        W41453  10.461   8.058   0.118
37493W        W41454  10.926   8.859   2.424
37494W        W41455   8.893  10.566   2.177
37495W        W41456  10.667  10.032   0.615
37496W        W41457   7.796  10.818   0.369
37497W        W41458   8.189  10.864   1.045
37498W        W41459   7.986   7.618   2.471
37499W        W41460  10.609   8.636   2.746
37500W        W41461  10.014   9.058   1.205
37501W        W41462   9.980   8.746   0.232
37502W        W41463   9.188   9.890   2.372
37503W        W41464   8.994   8.220   1.571
37504W        W41465   9.594  10.307   2.565
37505W        W41466  10.465   9.098   0.987
37506W        W41467   9.367   7.756   1.003
37507W        W41468   8.024  10.450   0.686
37508W        W41469   7.395   7.949   1.285
37509W        W41470  10.181   8.556   1.759
37510W        W41471   7.639  10.173   1.674
37511W        W41472   8.980  10.523   0.544
37512W        W41473  10.372   8.549   0.008
37513W        W41474   7.395  10.307   2.172
37514W        W41475   8.186   9.879   2.652
37515W        W41476   8.559   9.239   1.271
37516W        W41477   8.581   7.644   2.364
37517W        W41478  10.810   7.406   1.661
37518W        W41479   8.029   9.278   0.129
37519W        W41480   7.684   8.311   0.308
37520W        W41481   7.746  10.267   1.102
37521W        W41482   8.877   9.750   1.350
37522W        W41483  10.209  10.609   3.064
37523W        W41484   9.135   8.251   0.748
37524W        W41485  10.518  10.649   1.520
37525W        W41486  10.195   8.502   3.118
37526W        W41487  10.908  10.158   1.252
37527W        W41488   7.301   9.001   0.942
37528W        W41489   8.412   9.416   2.515
37529W        W41490   9.616   8.680   0.893
37530W        W41491   9.493   9.170   0.997
37531W        W41492   7.821   8.466   3.393
37532W        W41493   7.711   7.383   1.552
37533W        W41494   9.479   7.730   2.113
37534W        W41495   9.127   7.915   3.276
37535W        W41496   9.482   8.064   0.454
37536W        W41497  10.665  10.457   3.208
37537W        W41498   9.632   7.538   3.247
37538W        W41499  10.651   9.839   3.369
37539W        W41500  10.081   8.006   2.965
37540W        W41501   9.881   7.944   1.235
37541W        W41502  10.274   9.078   3.639
37542W        W41503   8.014  10.654   1.625
37543W        W41504   8.672   8.371   0.611
37544W        W41505   8.241   7.655   3.275
37545W        W41506  10.293   8.139   0.956
37546W        W41507  10.660   8.621   0.901
37547W        W41508   8.403  10.838   3.372
37548W        W41509   8.329   7.374   0.607
37549W        W41510  10.650   7.908   1.642
37550W        W41511  10.800  10.157   0.087
37551W        W41512   9.624   7.947   0.019
37552W        W41513  10.758  10.279   1.739
37553W        W41514  10.797   7.473   2.489
37554W        W41515   9.242   8.685   3.043
37555W        W41516   9.335  10.024   0.746
37556W        W41517   9.409   7.295   1.795
37557W        W41518   8.021   8.198   1.858
37558W        W41519   7.575   9.398   2.632
37559W        W41520   9.434  10.591   1.338
37560W        W41521  10.628   8.188   2.210
37561W        W41522   9.265  10.535   2.977
37562W        W41523  10.608   9.594   0.182
37563W        W41524   9.043   9.077   1.243
37564W        W41525  10.895   7.588   2.984
37565W        W41526   9.044   9.423   2.578
37566W        W41527   9.261   8.309   2.023
37567W        W41528  10.113   8.607   0.861
37568W        W41529  10.400   8.340   0.503
37569W        W41530  10.209  10.380   0.892
37570W        W41531  10.043   9.983   1.688
37571W        W41532   9.939   9.062   0.666
37572W        W41533   9.372   9.272   1.652
37573W        W41534  10.253   9.060   1.719
37574W        W41535   7.628   8.075   2.143
37575W        W41536  10.757  10.745   2.116
37576W        W41537   8.687  10.189   1.518
37577W        W41538   9.694  10.722   2.842
37578W        W41539   9.688   8.052   2.606
37579W        W41540   8.895  10.760   2.667
37580W        W41541  10.592   7.714   1.133
37581W        W41542  10.383   9.033   2.434
37582W        W41543   7.366   8.354   2.472
37583W        W41544  10.226   8.149   1.490
37584W        W41545  10.637   8.300   3.267
37585W        W41546   9.522   9.999   1.485
37586W        W41547   8.778  10.590   1.098
37587W        W41548   7.893   7.770   0.356
37588W        W41549   8.997   7.424   2.166
37589W        W41550   8.025  10.544   0.014
37590W        W41551   8.399   9.010   0.765
37591W        W41552   9.053   9.639   3.078
37592W        W41553   8.883   7.997   1.068
37593W        W41554  10.239   7.594   1.496
37594W        W41555   9.959  10.876   1.824
37595W        W41556   9.371  10.524   2.164
37596W        W41557   8.767   9.561   2.125
37597W        W41558  10.537  10.284   2.251
37598W        W41559   8.231   7.787   1.020
37599W        W41560   8.753  10.084   1.980
37600W        W41561   8.236   8.015   0.045
37601W        W41562   9.037   8.624   2.439
37602W        W41563   9.885   7.490   2.309
37603W        W41564   7.305   9.333   2.194
37604W        W41565   9.009   9.151   0.352
37605W        W41566   8.277   7.466   0.122
37606W        W41567   9.015   8.547   1.173
37607W        W41568   9.985   7.523   2.872
37608W        W41569   8.573   9.535   2.981
37609W        W41570   9.377   9.317   3.198
37610W        W41571   9.278   7.487   3.596
37611W        W41572   8.500   8.103   1.989
37612W        W41573   7.926   8.059   1.387
37613W        W41574   7.712  10.771   1.063
37614W        W41575   9.044  10.101   3.188
37615W        W41576   8.079   9.586   0.547
37616W        W41577   9.759   8.971   1.768
37617W        W41578  10.039   8.770   2.167
37618W        W41579   9.244   9.444   2.101
37619W        W41580   9.714   9.818   0.233
37620W        W41581   9.386   7.839   1.561
37621W        W41582  10.865   8.117   0.829
37622W        W41583   7.359  10.706   2.860
37623W        W41584   7.776   9.932   2.392
37624W        W41585   7.343  10.778   0.624
37625W        W41586   9.242   8.048   2.430
37626W        W41587   8.605  10.071   0.279
37627W        W41588  10.510  10.453   0.465
37628W        W41589   9.485   9.106   0.479
37629W        W41590   8.328   8.297   0.996
37630W        W41591   9.160   8.207   0.048
37631W        W41592   9.744   9.772   3.226
37632W        W41593  10.097   7.678   0.843
37633W        W41594   7.427   7.526   0.291
37634W        W41595   8.713   9.845   2.581
37635W        W41596   8.512   9.761   1.673
37636W        W41597   8.254   9.713   0.071
37637W        W41598   7.495   9.954   0.839
37638W        W41599   7.999   9.024   3.281
37639W        W41600   8.703   7.584   3.467
37640W        W41601   9.412   7.726   2.823
37641W        W41602   8.607   7.494   1.104
37642W        W41603   9.666   7.571   0.609
37643W        W41604   7.611   7.503   2.186
37644W        W41605   7.659   8.466   1.556
37645W        W41606  10.348   7.574   1.962
37646W        W41607   7.770   8.072   0.776
37647W        W41608  10.341   7.760   2.392
37648W        W41609  10.737   8.963   0.077
37649W        W41610   8.029   7.721   1.896
37650W        W41611   9.143   8.293   2.836
37651W        W41612   7.291   7.983   0.314
37652W        W41613   8.077   9.372   2.875
37653W        W41614   9.435   8.770   2.054
37654W        W41615   9.302  10.849   0.350
37655W        W41616   7.448   9.356   0.047
37656W        W41617   8.183   9.767   3.173
37657W        W41618   7.704   8.934   2.804
37658W        W41619   8.695   9.039   2.598
37659W        W41620  10.463   7.398   2.860
37660W        W41621  10.861   9.008   2.851
37661W        W41622  10.849   9.208   0.537
37662W        W41623   9.712   9.540   0.636
37663W        W41624  10.186  10.840   0.331
37664W        W41625   9.363   8.830   3.473
37665W        W41626   7.693   9.797   3.513
37666W        W41627  10.899   7.719   3.465
37667W        W41628  10.617   8.647   2.086
37668W        W41629   8.925  10.777   3.563
37669W        W41630   8.780   7.406   0.290
37670W        W41631  10.319  10.005   0.233
37671W        W41632   8.088   8.098   3.119
37672W        W41633   8.522  10.092   2.981
37673W        W41634  10.648   8.083   2.779
37674W        W41635   9.859  10.742   0.747
37675W        W41636  10.098   9.361   2.114
37676W        W41637   8.348   7.777   2.781
37677W        W41638   8.817   8.846   3.538
37678W        W41639   8.320  10.025   0.732
37679W        W41640  10.075   9.523   0.996
37680W        W41641   7.843   8.149   2.720
37681W        W41642   9.172  10.211   1.184
37682W        W41643  10.922   8.771   1.365
37683W        W41644   9.144   7.404   3.084
37684W        W41645   9.924  10.109   2.163
37685W        W41646  10.227  10.453   1.871
37686W        W41647   9.446  10.255   0.299
37687W        W41648   7.456  10.147   3.141
37688W        W41649   8.199   8.139   2.379
37689W        W41650   8.169   7.487   1.489
37690W        W41651   9.790   8.329   2.181
37691W        W41652   8.588   9.500   0.381
37692W        W41653  10.586   9.442   1.880
37693W        W41654   7.913  10.200   3.303
37694W        W41655  10.300  10.882   1.100
37695W        W41656   8.399   7.902   1.545
37696W        W41657   8.168   9.395   1.635
37697W        W41658   8.481  10.806   2.385
37698W        W41659  10.548  10.902   3.417
37699W        W41660   9.707   9.090   2.350
37700W        W41661   7.556   8.888   0.265
37701W        W41662  10.690  10.546   0.962
37702W        W41663  10.527   7.870   0.581
37703W        W41664   8.666   7.389   2.984
37704W        W41665  10.372  10.191   1.442
37705W        W41666  10.401   8.747   1.347
37706W        W41667   8.518   8.420   1.563
37707W        W41668   8.763   8.682   2.887
37708W        W41669   9.874   9.835   2.750
37709W        W41670   8.524   8.289   2.862
37710W        W41671   8.503  10.755   1.478
37711W        W41672   7.820  10.714   3.112
37712W        W41673   7.932  10.075   0.242
37713W        W41674  10.449   9.833   1.052
37714W        W41675   8.053   8.625   2.938
37715W        W41676  10.826   8.555   0.419
37716W        W41677   8.571   9.612   0.890
37717W        W41678   9.561   8.622   2.515
37718W        W41679   8.121   8.994   2.544
37719W        W41680  10.331  10.882   2.373
37720W        W41681  10.122   7.516   3.367
37721W        W41682   7.786   7.666   2.954
37722W        W41683   8.125   8.689   2.007
37723W        W41684   8.494   8.503   0.129
37724W        W41685   7.297  10.262   2.674
37725W        W41686   8.882   8.971   2.117
37726W        W41687   8.705   7.996   0.222
37727W        W41688   7.840   8.812   1.003
37728W        W41689   7.611  10.664   2.440
37729W        W41690  10.406   8.890   0.548
37730W        W41691  10.501   7.806   3.234
37731W        W41692   9.937  10.015   1.197
37732W        W41693   7.535   8.939   3.374
37733W        W41694  10.501   7.403   0.670
37734W        W41695  10.021   9.878   0.681
37735W        W41696   8.923   8.936   0.766
37736W        W41697  10.110   7.740   0.289
37737W        W41698  10.175   8.347   2.475
37738W        W41699   7.884   8.940   1.682
37739W        W41700   8.178   9.879   1.331
37740W        W41701   9.941   8.499   1.296
37741W        W41702   8.964   7.878   1.992
37742W        W41703  10.926   9.789   2.503
37743W        W41704  10.844   7.776   2.064
37744W        W41705   7.383  10.606   1.440
37745W        W41706   7.892   9.793   0.976
37746W        W41707   7.807   7.410   3.529
37747W        W41708   8.926  10.263   3.631
37748W        W41709  10.681   9.231   1.421
37749W        W41710  10.035   9.408   0.301
37750W        W41711   9.330  10.929   2.513
37751W        W41712   9.002   7.361   0.830
37752W        W41713   9.715   8.230   1.689
37753W        W41714   8.654   7.779   0.662
37754W        W41715   8.458   9.263   3.511
37755W        W41716   9.452   8.244   1.225
37756W        W41717   9.657   9.654   2.347
37757W        W41718   7.811  10.259   2.782
37758W        W41719   8.402  10.242   3.505
37759W        W41720   8.253   8.039   0.519
37760W        W41721   9.770   8.181   0.844
37761W        W41722   9.728  10.289   3.081
37762W        W41723   8.413   8.881   1.680
37763W        W41724   8.068  10.579   2.545
37764W        W41725  10.813  10.696   0.146
37765W        W41726   7.676   9.368   3.142
37766W        W41727   9.671   9.630   1.830
37767W        W41728   8.107   9.279   1.072
37768W        W41729   8.478  10.286   2.467
37769W        W41730   8.856   7.705   1.508
37770W        W41731   7.467   9.689   0.438
37771W        W41732   8.986   8.640   0.308
37772W        W41733   7.632   9.189   1.327
37773W        W41734   8.922   7.831   2.791
37774W        W41735  10.594   7.540   0.218
37775W        W41736  10.687   9.286   3.317
37776W        W41737   9.341  10.543   3.469
37777W        W41738  10.899   9.637   2.991
37778W        W41739  10.307  10.435   3.602
37779W        W41740   8.046  10.891   2.080
37780W        W41741   9.435   8.780   1.467
37781W        W41742   9.202   7.392   1.357
37782W        W41743   8.261  10.376   1.194
37783W        W41744   8.760   8.117   2.419
37784W        W41745   8.460   7.486   1.888
37785W        W41746   7.523  10.308   0.436
37786W        W41747   9.339   9.672   1.154
37787W        W41748   8.214  10.467   3.033
37788W        W41749   7.691   9.290   0.729
37789W        W41750   7.576   7.833   1.728
37790W        W41751   9.124   9.798   1.785
37791W        W41752   7.376   7.652   0.805
37792W        W41753  10.040   8.858   2.732
37793W        W41754   9.917   8.244   0.304
37794W        W41755  10.434   9.916   1.952
37795W        W41756   9.095  10.400   1.783
37796W        W41757   8.507  10.504   0.694
37797W        W41758   9.789   7.407   0.124
37798W        W41759   7.589  10.667   1.865
37799W        W41760   7.769   7.955   3.499
37800W        W41761   7.500   8.555   0.832
37801W        W41762   8.191   8.544   0.557
37802W        W41763   8.297   9.152   2.083
37803W        W41764   9.771   7.438   1.203
37804W        W41765   8.902  10.869   1.706
37805W        W41766  10.116  10.331   2.643
37806W        W41767   9.700  10.480   1.754
37807W        W41768   9.719   9.460   1.348
37808W        W41769   9.181   7.685   0.419
37809W        W41770  10.862   7.313   1.141
37810W        W41771   8.550   8.948   0.304
37811W        W41772  10.716   8.285   1.294
37812W        W41773   9.408   9.455   0.171
37813W        W41774  10.344   9.655   2.919
37814W        W41775   9.998  10.356   0.386
37815W        W41776   8.613   8.031   3.292
37816W        W41777   8.433   8.615   2.533
37817W        W41778  10.525  10.110   2.810
37818W        W41779   9.625   8.060   3.187
37819W        W41780   7.469   8.531   2.964
37820W        W41781   9.229   9.008   2.690
37821W        W41782   7.733   9.063   2.237
37822W        W41783  10.050   9.349   2.587
37823W        W41784   9.822  10.729   3.398
37824W        W41785   9.718   8.468   2.951
37825W        W41786   9.995  10.522   1.356
37826W        W41787   8.997  10.242   2.679
37827W        W41788   8.482  10.597   1.948
37828W        W41789  10.287   9.768   2.367
37829W        W41790   9.337   9.840   3.504
37830W        W41791  10.288   9.552   1.488
37831W        W41792   9.929  10.618   2.239
37832W        W41793   7.907  10.347   2.109
37833W        W41794   8.928   8.399   3.319
37834W        W41795   9.379  10.565   0.830
37835W        W41796   8.687   9.820   3.468
37836W        W41797   8.813  10.058   0.845
37837W        W41798   8.034   8.798   0.104
37838W        W41799   7.373  10.884   7.003
37839W        W41800   7.749   9.777   6.526
37840W        W41801  10.454   9.507   4.296
37841W        W41802  10.584  10.592   6.323
37842W        W41803   8.502  10.583   3.849
37843W        W41804   8.585   8.735   4.832
37844W        W41805   8.100   8.583   4.996
37845W        W41806   9.091   9.398   4.430
37846W        W41807   8.766  10.490   6.785
37847W        W41808   7.415   8.051   6.748
37848W        W41809   8.177   7.331   6.550
37849W        W41810   9.871   7.719   5.437
37850W        W41811   9.520   8.590   4.007
37851W        W41812  10.090   8.024   7.098
37852W        W41813   7.456   7.816   6.223
37853W        W41814   7.555  10.435   7.244
37854W        W41815   9.077   9.825   3.976
37855W        W41816   7.509   8.608   5.669
37856W        W41817   8.402   8.499   6.906
37857W        W41818  10.861   8.358   5.405
37858W        W41819  10.625   9.401   6.264
37859W        W41820   8.933   8.734   5.291
37860W        W41821   9.479  10.073   5.660
37861W        W41822   7.979   9.507   5.892
37862W        W41823   7.338   9.035   5.463
37863W        W41824   8.374   9.007   6.655
37864W        W41825  10.645   8.790   6.909
37865W        W41826   8.261  10.234   5.354
37866W        W41827   9.382   9.923   6.488
37867W        W41828   8.602   8.563   5.713
37868W        W41829   8.894   9.347   5.356
37869W        W41830   9.891  10.120   7.204
37870W        W41831   8.970   9.440   7.214
37871W        W41832   8.951   9.156   6.692
37872W        W41833   7.360   8.547   7.214
37873W        W41834  10.192  10.082   6.813
37874W        W41835   7.773   7.664   4.811
37875W        W41836   8.300   9.922   5.810
37876W        W41837  10.763   9.705   5.100
37877W        W41838  10.176   8.105   5.667
37878W        W41839  10.461   8.058   3.762
37879W        W41840  10.926   8.859   6.068
37880W        W41841   8.893  10.566   5.821
37881W        W41842  10.667  10.032   4.259
37882W        W41843   7.796  10.818   4.013
37883W        W41844   8.189  10.864   4.689
37884W        W41845   7.986   7.618   6.115
37885W        W41846  10.609   8.636   6.390
37886W        W41847  10.014   9.058   4.849
37887W        W41848   9.980   8.746   3.876
37888W        W41849   9.188   9.890   6.016
37889W        W41850   8.994   8.220   5.215
37890W        W41851   9.594  10.307   6.209
37891W        W41852  10.465   9.098   4.631
37892W        W41853   9.367   7.756   4.647
37893W        W41854   8.024  10.450   4.330
37894W        W41855   7.395   7.949   4.929
37895W        W41856  10.181   8.556   5.403
37896W        W41857   7.639  10.173   5.318
37897W        W41858   8.980  10.523   4.188
37898W        W41859  10.372   8.549   3.652
37899W        W41860   7.395  10.307   5.816
37900W        W41861   8.186   9.879   6.296
37901W        W41862   8.559   9.239   4.915
37902W        W41863   8.581   7.644   6.008
37903W        W41864  10.810   7.406   5.305
37904W        W41865   8.029   9.278   3.773
37905W        W41866   7.684   8.311   3.952
37906W        W41867   7.746  10.267   4.746
37907W        W41868   8.877   9.750   4.994
37908W        W41869  10.209  10.609   6.708
37909W        W41870   9.135   8.251   4.392
37910W        W41871  10.518  10.649   5.164
37911W        W41872  10.195   8.502   6.762
37912W        W41873  10.908  10.158   4.896
37913W        W41874   9.535   9.450   6.380
37914W        W41875   7.301   9.001   4.586
37915W        W41876   8.412   9.416   6.159
37916W        W41877   9.616   8.680   4.537
37917W        W41878   9.493   9.170   4.641
37918W        W41879   7.836   8.590   6.115
37919W        W41880   7.821   8.466   7.037
37920W        W41881   7.711   7.383   5.196
37921W        W41882   9.479   7.730   5.757
37922W        W41883   9.127   7.915   6.920
37923W        W41884   9.482   8.064   4.098
37924W        W41885  10.665  10.457   6.852
37925W        W41886   9.632   7.538   6.891
37926W        W41887  10.651   9.839   7.013
37927W        W41888  10.081   8.006   6.609
37928W        W41889   9.881   7.944   4.879
37929W        W41890  10.274   9.078   7.283
37930W        W41891   8.014  10.654   5.269
37931W        W41892   8.672   8.371   4.255
37932W        W41893   8.241   7.655   6.919
37933W        W41894  10.660   8.621   4.545
37934W        W41895   8.403  10.838   7.016
37935W        W41896   8.329   7.374   4.251
37936W        W41897  10.650   7.908   5.286
37937W        W41898  10.800  10.157   3.731
37938W        W41899   7.707   9.360   5.433
37939W        W41900   9.624   7.947   3.663
37940W        W41901  10.758  10.279   5.383
37941W        W41902  10.797   7.473   6.133
37942W        W41903   9.242   8.685   6.687
37943W        W41904   9.335  10.024   4.390
37944W        W41905   9.735   9.318   7.130
37945W        W41906   9.409   7.295   5.439
37946W        W41907   8.021   8.198   5.502
37947W        W41908   7.575   9.398   6.276
37948W        W41909   9.434  10.591   4.982
37949W        W41910  10.628   8.188   5.854
37950W        W41911   9.265  10.535   6.621
37951W        W41912  10.608   9.594   3.826
37952W        W41913   9.043   9.077   4.887
37953W        W41914  10.895   7.588   6.628
37954W        W41915   9.044   9.423   6.222
37955W        W41916   9.261   8.309   5.667
37956W        W41917  10.209  10.380   4.536
37957W        W41918  10.043   9.983   5.332
37958W        W41919   9.372   9.272   5.296
37959W        W41920  10.253   9.060   5.363
37960W        W41921   7.628   8.075   5.787
37961W        W41922  10.406   9.127   6.614
37962W        W41923  10.757  10.745   5.760
37963W        W41924   8.687  10.189   5.162
37964W        W41925   9.694  10.722   6.486
37965W        W41926   9.688   8.052   6.250
37966W        W41927   8.895  10.760   6.311
37967W        W41928  10.592   7.714   4.777
37968W        W41929  10.383   9.033   6.078
37969W        W41930   7.366   8.354   6.116
37970W        W41931  10.226   8.149   5.134
37971W        W41932  10.637   8.300   6.911
37972W        W41933   9.522   9.999   5.129
37973W        W41934   8.778  10.590   4.742
37974W        W41935   7.893   7.770   4.000
37975W        W41936   8.997   7.424   5.810
37976W        W41937   8.025  10.544   3.658
37977W        W41938   8.399   9.010   4.409
37978W        W41939   9.053   9.639   6.722
37979W        W41940   8.883   7.997   4.712
37980W        W41941  10.239   7.594   5.140
37981W        W41942   9.959  10.876   5.468
37982W        W41943   9.371  10.524   5.808
37983W        W41944   8.767   9.561   5.769
37984W        W41945  10.537  10.284   5.895
37985W        W41946   8.231   7.787   4.664
37986W        W41947   8.753  10.084   5.624
37987W        W41948   8.236   8.015   3.689
37988W        W41949   9.037   8.624   6.083
37989W        W41950   9.885   7.490   5.953
37990W        W41951   7.305   9.333   5.838
37991W        W41952   9.009   9.151   3.996
37992W        W41953   8.277   7.466   3.766
37993W        W41954   9.015   8.547   4.817
37994W        W41955   9.985   7.523   6.516
37995W        W41956   8.573   9.535   6.625
37996W        W41957   9.377   9.317   6.842
37997W        W41958   9.994   9.347   6.735
37998W        W41959   9.278   7.487   7.240
37999W        W41960   8.500   8.103   5.633
38000W        W41961   7.926   8.059   5.031
38001W        W41962   7.712  10.771   4.707
38002W        W41963   9.044  10.101   6.832
38003W        W41964   8.079   9.586   4.191
38004W        W41965   9.759   8.971   5.412
38005W        W41966  10.039   8.770   5.811
38006W        W41967   9.244   9.444   5.745
38007W        W41968   9.714   9.818   3.877
38008W        W41969   9.386   7.839   5.205
38009W        W41970  10.865   8.117   4.473
38010W        W41971   7.359  10.706   6.504
38011W        W41972   7.776   9.932   6.036
38012W        W41973   7.343  10.778   4.268
38013W        W41974   9.242   8.048   6.074
38014W        W41975   8.605  10.071   3.923
38015W        W41976  10.510  10.453   4.109
38016W        W41977   9.485   9.106   4.123
38017W        W41978   8.328   8.297   4.640
38018W        W41979   9.160   8.207   3.692
38019W        W41980   9.744   9.772   6.870
38020W        W41981  10.097   7.678   4.487
38021W        W41982   7.427   7.526   3.935
38022W        W41983   8.713   9.845   6.225
38023W        W41984   8.512   9.761   5.317
38024W        W41985   8.254   9.713   3.715
38025W        W41986   7.495   9.954   4.483
38026W        W41987   7.999   9.024   6.925
38027W        W41988   8.703   7.584   7.111
38028W        W41989   9.412   7.726   6.467
38029W        W41990   8.607   7.494   4.748
38030W        W41991   9.666   7.571   4.253
38031W        W41992   7.611   7.503   5.830
38032W        W41993   7.659   8.466   5.200
38033W        W41994  10.348   7.574   5.606
38034W        W41995   7.770   8.072   4.420
38035W        W41996  10.341   7.760   6.036
38036W        W41997  10.737   8.963   3.721
38037W        W41998   8.029   7.721   5.540
38038W        W41999   9.143   8.293   6.480
38039W        W42000   7.291   7.983   3.958
38040W        W42001   8.077   9.372   6.519
38041W        W42002   9.435   8.770   5.698
38042W        W42003   9.302  10.849   3.994
38043W        W42004   7.448   9.356   3.691
38044W        W42005   8.183   9.767   6.817
38045W        W42006   7.704   8.934   6.448
38046W        W42007   8.695   9.039   6.242
38047W        W42008  10.463   7.398   6.504
38048W        W42009  10.861   9.008   6.495
38049W        W42010  10.849   9.208   4.181
38050W        W42011   9.712   9.540   4.280
38051W        W42012  10.186  10.840   3.975
38052W        W42013   9.363   8.830   7.117
38053W        W42014   7.693   9.797   7.157
38054W        W42015  10.899   7.719   7.109
38055W        W42016  10.617   8.647   5.730
38056W        W42017   8.925  10.777   7.207
38057W        W42018   8.780   7.406   3.934
38058W        W42019  10.319  10.005   3.877
38059W        W42020   8.088   8.098   6.763
38060W        W42021   8.522  10.092   6.625
38061W        W42022  10.648   8.083   6.423
38062W        W42023   9.859  10.742   4.391
38063W        W42024  10.098   9.361   5.758
38064W        W42025   8.348   7.777   6.425
38065W        W42026   8.817   8.846   7.182
38066W        W42027   8.320  10.025   4.376
38067W        W42028  10.075   9.523   4.640
38068W        W42029   7.843   8.149   6.364
38069W        W42030   9.172  10.211   4.828
38070W        W42031  10.922   8.771   5.009
38071W        W42032   9.144   7.404   6.728
38072W        W42033   9.924  10.109   5.807
38073W        W42034  10.227  10.453   5.515
38074W        W42035   9.446  10.255   3.943
38075W        W42036   7.456  10.147   6.785
38076W        W42037   8.199   8.139   6.023
38077W        W42038   8.169   7.487   5.133
38078W        W42039   9.790   8.329   5.825
38079W        W42040   8.588   9.500   4.025
38080W        W42041  10.586   9.442   5.524
38081W        W42042   7.913  10.200   6.947
38082W        W42043  10.300  10.882   4.744
38083W        W42044   8.399   7.902   5.189
38084W        W42045   8.168   9.395   5.279
38085W        W42046   8.481  10.806   6.029
38086W        W42047  10.548  10.902   7.061
38087W        W42048   9.707   9.090   5.994
38088W        W42049   7.556   8.888   3.909
38089W        W42050  10.690  10.546   4.606
38090W        W42051  10.527   7.870   4.225
38091W        W42052   8.666   7.389   6.628
38092W        W42053  10.372  10.191   5.086
38093W        W42054  10.401   8.747   4.991
38094W        W42055   8.518   8.420   5.207
38095W        W42056   8.763   8.682   6.531
38096W        W42057   9.874   9.835   6.394
38097W        W42058   8.524   8.289   6.506
38098W        W42059   8.503  10.755   5.122
38099W        W42060   7.820  10.714   6.756
38100W        W42061   7.932  10.075   3.886
38101W        W42062  10.449   9.833   4.696
38102W        W42063   8.053   8.625   6.582
38103W        W42064  10.826   8.555   4.063
38104W        W42065   8.571   9.612   4.534
38105W        W42066   9.670   8.994   6.615
38106W        W42067   9.561   8.622   6.159
38107W        W42068   8.121   8.994   6.188
38108W        W42069  10.331  10.882   6.017
38109W        W42070  10.122   7.516   7.011
38110W        W42071   7.786   7.666   6.598
38111W        W42072   8.125   8.689   5.651
38112W        W42073   8.494   8.503   3.773
38113W        W42074   7.297  10.262   6.318
38114W        W42075   8.882   8.971   5.761
38115W        W42076   8.705   7.996   3.866
38116W        W42077   7.840   8.812   4.647
38117W        W42078   7.611  10.664   6.084
38118W        W42079  10.406   8.890   4.192
38119W        W42080  10.501   7.806   6.878
38120W        W42081   9.937  10.015   4.841
38121W        W42082   7.535   8.939   7.018
38122W        W42083  10.501   7.403   4.314
38123W        W42084  10.021   9.878   4.325
38124W        W42085   8.923   8.936   4.410
38125W        W42086  10.175   8.347   6.119
38126W        W42087   7.884   8.940   5.326
38127W        W42088   8.178   9.879   4.975
38128W        W42089   9.941   8.499   4.940
38129W        W42090   8.964   7.878   5.636
38130W        W42091  10.926   9.789   6.147
38131W        W42092  10.844   7.776   5.708
38132W        W42093   7.383  10.606   5.084
38133W        W42094   7.892   9.793   4.620
38134W        W42095   7.807   7.410   7.173
38135W        W42096   8.926  10.263   7.275
38136W        W42097  10.681   9.231   5.065
38137W        W42098  10.035   9.408   3.945
38138W        W42099   9.330  10.929   6.157
38139W        W42100  10.187   9.651   7.194
38140W        W42101   9.002   7.361   4.474
38141W        W42102   9.715   8.230   5.333
38142W        W42103   7.401   9.817   5.665
38143W        W42104   8.654   7.779   4.306
38144W        W42105   8.458   9.263   7.155
38145W        W42106   9.452   8.244   4.869
38146W        W42107   9.657   9.654   5.991
38147W        W42108   7.811  10.259   6.426
38148W        W42109   8.402  10.242   7.149
38149W        W42110   8.253   8.039   4.163
38150W        W42111   9.728  10.289   6.725
38151W        W42112   8.413   8.881   5.324
38152W        W42113   8.068  10.579   6.189
38153W        W42114  10.813  10.696   3.790
38154W        W42115   7.676   9.368   6.786
38155W        W42116   9.671   9.630   5.474
38156W        W42117   8.107   9.279   4.716
38157W        W42118   8.478  10.286   6.111
38158W        W42119   8.856   7.705   5.152
38159W        W42120   7.467   9.689   4.082
38160W        W42121   8.986   8.640   3.952
38161W        W42122   7.632   9.189   4.971
38162W        W42123   8.922   7.831   6.435
38163W        W42124  10.594   7.540   3.862
38164W        W42125  10.687   9.286   6.961
38165W        W42126   9.341  10.543   7.113
38166W        W42127  10.899   9.637   6.635
38167W        W42128  10.307  10.435   7.246
38168W        W42129   8.046  10.891   5.724
38169W        W42130  10.905   9.513   4.598
38170W        W42131   9.435   8.780   5.111
38171W        W42132   9.202   7.392   5.001
38172W        W42133   8.261  10.376   4.838
38173W        W42134   8.760   8.117   6.063
38174W        W42135   8.460   7.486   5.532
38175W        W42136   7.523  10.308   4.080
38176W        W42137   9.339   9.672   4.798
38177W        W42138   8.214  10.467   6.677
38178W        W42139   7.691   9.290   4.373
38179W        W42140   7.576   7.833   5.372
38180W        W42141   9.124   9.798   5.429
38181W        W42142   7.376   7.652   4.449
38182W        W42143  10.040   8.858   6.376
38183W        W42144   9.917   8.244   3.948
38184W        W42145  10.434   9.916   5.596
38185W        W42146   9.095  10.400   5.427
38186W        W42147   8.507  10.504   4.338
38187W        W42148   9.789   7.407   3.768
38188W        W42149   7.589  10.667   5.509
38189W        W42150   9.786   8.425   7.144
38190W        W42151   7.769   7.955   7.143
38191W        W42152   7.500   8.555   4.476
38192W        W42153   8.191   8.544   4.201
38193W        W42154   9.954   8.871   7.018
38194W        W42155   8.297   9.152   5.727
38195W        W42156   9.771   7.438   4.847
38196W        W42157   8.902  10.869   5.350
38197W        W42158  10.116  10.331   6.287
38198W        W42159   9.700  10.480   5.398
38199W        W42160   9.719   9.460   4.992
38200W        W42161   9.181   7.685   4.063
38201W        W42162  10.862   7.313   4.785
38202W        W42163   8.550   8.948   3.948
38203W        W42164  10.716   8.285   4.938
38204W        W42165   9.408   9.455   3.815
38205W        W42166  10.344   9.655   6.563
38206W        W42167   9.998  10.356   4.030
38207W        W42168   8.613   8.031   6.936
38208W        W42169   8.433   8.615   6.177
38209W        W42170  10.525  10.110   6.454
38210W        W42171   9.625   8.060   6.831
38211W        W42172   7.469   8.531   6.608
38212W        W42173   9.229   9.008   6.334
38213W        W42174   7.586   9.766   4.991
38214W        W42175   7.733   9.063   5.881
38215W        W42176  10.050   9.349   6.231
38216W        W42177   9.822  10.729   7.042
38217W        W42178   9.718   8.468   6.595
38218W        W42179   9.995  10.522   5.000
38219W        W42180   8.997  10.242   6.323
38220W        W42181   8.482  10.597   5.592
38221W        W42182  10.287   9.768   6.011
38222W        W42183   9.337   9.840   7.148
38223W        W42184   7.942   9.793   5.487
38224W        W42185  10.288   9.552   5.132
38225W        W42186   9.929  10.618   5.883
38226W        W42187   7.907  10.347   5.753
38227W        W42188   8.928   8.399   6.963
38228W        W42189   9.379  10.565   4.474
38229W        W42190   8.687   9.820   7.112
38230W        W42191   8.813  10.058   4.489
38231W        W42192   8.034   8.798   3.748
38232W        W42193   7.373  10.884  10.648
38233W        W42194   7.749   9.777  10.171
38234W        W42195  10.454   9.507   7.941
38235W        W42196  10.584  10.592   9.968
38236W        W42197   8.502  10.583   7.494
38237W        W42198   8.585   8.735   8.477
38238W        W42199   8.100   8.583   8.641
38239W        W42200   9.091   9.398   8.075
38240W        W42201   8.766  10.490  10.430
38241W        W42202   7.415   8.051  10.393
38242W        W42203   8.177   7.331  10.195
38243W        W42204   9.871   7.719   9.082
38244W        W42205   9.520   8.590   7.652
38245W        W42206  10.090   8.024  10.743
38246W        W42207   7.456   7.816   9.868
38247W        W42208   7.555  10.435  10.889
38248W        W42209   9.077   9.825   7.621
38249W        W42210   7.509   8.608   9.314
38250W        W42211   8.402   8.499  10.551
38251W        W42212  10.861   8.358   9.050
38252W        W42213  10.625   9.401   9.909
38253W        W42214   8.933   8.734   8.936
38254W        W42215   9.479  10.073   9.305
38255W        W42216   7.979   9.507   9.537
38256W        W42217   7.338   9.035   9.108
38257W        W42218   8.374   9.007  10.300
38258W        W42219  10.645   8.790  10.554
38259W        W42220   8.261  10.234   8.999
38260W        W42221   9.382   9.923  10.133
38261W        W42222   8.602   8.563   9.358
38262W        W42223   8.894   9.347   9.001
38263W        W42224   9.891  10.120  10.849
38264W        W42225   8.970   9.440  10.859
38265W        W42226   8.951   9.156  10.337
38266W        W42227   7.360   8.547  10.859
38267W        W42228  10.192  10.082  10.458
38268W        W42229   7.773   7.664   8.456
38269W        W42230   8.300   9.922   9.455
38270W        W42231  10.763   9.705   8.745
38271W        W42232  10.176   8.105   9.312
38272W        W42233  10.461   8.058   7.407
38273W        W42234  10.926   8.859   9.713
38274W        W42235   8.893  10.566   9.466
38275W        W42236  10.667  10.032   7.904
38276W        W42237   7.796  10.818   7.658
38277W        W42238   8.189  10.864   8.334
38278W        W42239   7.986   7.618   9.760
38279W        W42240  10.609   8.636  10.035
38280W        W42241  10.014   9.058   8.494
38281W        W42242   9.980   8.746   7.521
38282W        W42243   9.188   9.890   9.661
38283W        W42244   8.994   8.220   8.860
38284W        W42245   9.594  10.307   9.854
38285W        W42246  10.465   9.098   8.276
38286W        W42247   9.367   7.756   8.292
38287W        W42248   8.024  10.450   7.975
38288W        W42249   7.395   7.949   8.574
38289W        W42250  10.181   8.556   9.048
38290W        W42251   7.639  10.173   8.963
38291W        W42252   8.980  10.523   7.833
38292W        W42253  10.372   8.549   7.297
38293W        W42254   7.395  10.307   9.461
38294W        W42255   8.186   9.879   9.941
38295W        W42256   8.559   9.239   8.560
38296W        W42257   8.581   7.644   9.653
38297W        W42258  10.810   7.406   8.950
38298W        W42259   8.029   9.278   7.418
38299W        W42260   7.684   8.311   7.597
38300W        W42261   7.746  10.267   8.391
38301W        W42262   8.877   9.750   8.639
38302W        W42263  10.209  10.609  10.353
38303W        W42264   9.135   8.251   8.037
38304W        W42265  10.518  10.649   8.809
38305W        W42266  10.195   8.502  10.407
38306W        W42267  10.908  10.158   8.541
38307W        W42268   9.535   9.450  10.025
38308W        W42269   7.301   9.001   8.231
38309W        W42270   8.412   9.416   9.804
38310W        W42271   9.616   8.680   8.182
38311W        W42272   9.493   9.170   8.286
38312W        W42273   7.836   8.590   9.760
38313W        W42274   7.821   8.466  10.682
38314W        W42275   7.711   7.383   8.841
38315W        W42276   9.479   7.730   9.402
38316W        W42277   9.127   7.915  10.565
38317W        W42278   9.482   8.064   7.743
38318W        W42279  10.665  10.457  10.497
38319W        W42280   9.632   7.538  10.536
38320W        W42281  10.651   9.839  10.658
38321W        W42282  10.081   8.006  10.254
38322W        W42283   9.881   7.944   8.524
38323W        W42284  10.274   9.078  10.928
38324W        W42285   8.014  10.654   8.914
38325W        W42286   8.672   8.371   7.900
38326W        W42287   8.241   7.655  10.564
38327W        W42288  10.293   8.139   8.245
38328W        W42289  10.660   8.621   8.190
38329W        W42290   8.403  10.838  10.661
38330W        W42291   8.329   7.374   7.896
38331W        W42292  10.650   7.908   8.931
38332W        W42293  10.800  10.157   7.376
38333W        W42294   7.707   9.360   9.078
38334W        W42295   9.624   7.947   7.308
38335W        W42296  10.758  10.279   9.028
38336W        W42297  10.797   7.473   9.778
38337W        W42298   9.242   8.685  10.332
38338W        W42299   9.335  10.024   8.035
38339W        W42300   9.735   9.318  10.775
38340W        W42301   9.409   7.295   9.084
38341W        W42302   8.021   8.198   9.147
38342W        W42303   7.575   9.398   9.921
38343W        W42304   9.434  10.591   8.627
38344W        W42305  10.628   8.188   9.499
38345W        W42306   9.265  10.535  10.266
38346W        W42307  10.608   9.594   7.471
38347W        W42308   9.043   9.077   8.532
38348W        W42309  10.895   7.588  10.273
38349W        W42310   9.044   9.423   9.867
38350W        W42311   9.261   8.309   9.312
38351W        W42312  10.113   8.607   8.150
38352W        W42313  10.400   8.340   7.792
38353W        W42314  10.209  10.380   8.181
38354W        W42315  10.043   9.983   8.977
38355W        W42316   9.939   9.062   7.955
38356W        W42317   9.372   9.272   8.941
38357W        W42318  10.253   9.060   9.008
38358W        W42319   7.628   8.075   9.432
38359W        W42320  10.406   9.127  10.259
38360W        W42321  10.757  10.745   9.405
38361W        W42322   8.687  10.189   8.807
38362W        W42323   9.694  10.722  10.131
38363W        W42324   9.688   8.052   9.895
38364W        W42325   8.895  10.760   9.956
38365W        W42326  10.592   7.714   8.422
38366W        W42327  10.383   9.033   9.723
38367W        W42328   7.366   8.354   9.761
38368W        W42329  10.226   8.149   8.779
38369W        W42330  10.637   8.300  10.556
38370W        W42331   9.522   9.999   8.774
38371W        W42332   8.778  10.590   8.387
38372W        W42333   7.893   7.770   7.645
38373W        W42334   8.997   7.424   9.455
38374W        W42335   8.025  10.544   7.303
38375W        W42336   8.399   9.010   8.054
38376W        W42337   9.053   9.639  10.367
38377W        W42338   8.883   7.997   8.357
38378W        W42339  10.239   7.594   8.785
38379W        W42340   9.959  10.876   9.113
38380W        W42341   9.371  10.524   9.453
38381W        W42342   8.767   9.561   9.414
38382W        W42343  10.537  10.284   9.540
38383W        W42344   8.231   7.787   8.309
38384W        W42345   8.753  10.084   9.269
38385W        W42346   8.236   8.015   7.334
38386W        W42347   9.037   8.624   9.728
38387W        W42348   9.885   7.490   9.598
38388W        W42349   7.305   9.333   9.483
38389W        W42350   9.009   9.151   7.641
38390W        W42351   8.277   7.466   7.411
38391W        W42352   9.015   8.547   8.462
38392W        W42353   9.985   7.523  10.161
38393W        W42354   8.573   9.535  10.270
38394W        W42355   9.377   9.317  10.487
38395W        W42356   9.994   9.347  10.380
38396W        W42357   9.278   7.487  10.885
38397W        W42358   8.500   8.103   9.278
38398W        W42359   7.926   8.059   8.676
38399W        W42360   7.712  10.771   8.352
38400W        W42361   9.044  10.101  10.477
38401W        W42362   8.079   9.586   7.836
38402W        W42363   9.759   8.971   9.057
38403W        W42364  10.039   8.770   9.456
38404W        W42365   9.244   9.444   9.390
38405W        W42366   9.714   9.818   7.522
38406W        W42367   9.386   7.839   8.850
38407W        W42368  10.865   8.117   8.118
38408W        W42369   7.359  10.706  10.149
38409W        W42370   7.776   9.932   9.681
38410W        W42371   7.343  10.778   7.913
38411W        W42372   9.242   8.048   9.719
38412W        W42373   8.605  10.071   7.568
38413W        W42374  10.510  10.453   7.754
38414W        W42375   9.485   9.106   7.768
38415W        W42376   8.328   8.297   8.285
38416W        W42377   9.160   8.207   7.337
38417W        W42378   9.744   9.772  10.515
38418W        W42379  10.097   7.678   8.132
38419W        W42380   7.427   7.526   7.580
38420W        W42381   8.713   9.845   9.870
38421W        W42382   8.512   9.761   8.962
38422W        W42383   8.254   9.713   7.360
38423W        W42384   7.495   9.954   8.128
38424W        W42385   7.999   9.024  10.570
38425W        W42386   8.703   7.584  10.756
38426W        W42387   9.412   7.726  10.112
38427W        W42388   8.607   7.494   8.393
38428W        W42389   9.666   7.571   7.898
38429W        W42390   7.611   7.503   9.475
38430W        W42391   7.659   8.466   8.845
38431W        W42392  10.348   7.574   9.251
38432W        W42393   7.770   8.072   8.065
38433W        W42394  10.341   7.760   9.681
38434W        W42395  10.737   8.963   7.366
38435W        W42396   8.029   7.721   9.185
38436W        W42397   9.143   8.293  10.125
38437W        W42398   7.291   7.983   7.603
38438W        W42399   8.077   9.372  10.164
38439W        W42400   9.435   8.770   9.343
38440W        W42401   9.302  10.849   7.639
38441W        W42402   7.448   9.356   7.336
38442W        W42403   8.183   9.767  10.462
38443W        W42404   7.704   8.934  10.093
38444W        W42405   8.695   9.039   9.887
38445W        W42406  10.463   7.398  10.149
38446W        W42407  10.861   9.008  10.140
38447W        W42408  10.849   9.208   7.826
38448W        W42409   9.712   9.540   7.925
38449W        W42410  10.186  10.840   7.620
38450W        W42411   9.363   8.830  10.762
38451W        W42412   7.693   9.797  10.802
38452W        W42413  10.899   7.719  10.754
38453W        W42414  10.617   8.647   9.375
38454W        W42415   8.925  10.777  10.852
38455W        W42416   8.780   7.406   7.579
38456W        W42417  10.319  10.005   7.522
38457W        W42418   8.088   8.098  10.408
38458W        W42419   8.522  10.092  10.270
38459W        W42420  10.648   8.083  10.068
38460W        W42421   9.859  10.742   8.036
38461W        W42422  10.098   9.361   9.403
38462W        W42423   8.348   7.777  10.070
38463W        W42424   8.817   8.846  10.827
38464W        W42425   8.320  10.025   8.021
38465W        W42426  10.075   9.523   8.285
38466W        W42427   7.843   8.149  10.009
38467W        W42428   9.172  10.211   8.473
38468W        W42429  10.922   8.771   8.654
38469W        W42430   9.144   7.404  10.373
38470W        W42431   9.924  10.109   9.452
38471W        W42432  10.227  10.453   9.160
38472W        W42433   9.446  10.255   7.588
38473W        W42434   7.456  10.147  10.430
38474W        W42435   8.199   8.139   9.668
38475W        W42436   8.169   7.487   8.778
38476W        W42437   9.790   8.329   9.470
38477W        W42438   8.588   9.500   7.670
38478W        W42439  10.586   9.442   9.169
38479W        W42440   7.913  10.200  10.592
38480W        W42441  10.300  10.882   8.389
38481W        W42442   8.399   7.902   8.834
38482W        W42443   8.168   9.395   8.924
38483W        W42444   8.481  10.806   9.674
38484W        W42445  10.548  10.902  10.706
38485W        W42446   9.707   9.090   9.639
38486W        W42447   7.556   8.888   7.554
38487W        W42448  10.690  10.546   8.251
38488W        W42449  10.527   7.870   7.870
38489W        W42450   8.666   7.389  10.273
38490W        W42451  10.372  10.191   8.731
38491W        W42452  10.401   8.747   8.636
38492W        W42453   8.518   8.420   8.852
38493W        W42454   8.763   8.682  10.176
38494W        W42455   9.874   9.835  10.039
38495W        W42456   8.524   8.289  10.151
38496W        W42457   8.503  10.755   8.767
38497W        W42458   7.820  10.714  10.401
38498W        W42459   7.932  10.075   7.531
38499W        W42460  10.449   9.833   8.341
38500W        W42461   8.053   8.625  10.227
38501W        W42462  10.826   8.555   7.708
38502W        W42463   8.571   9.612   8.179
38503W        W42464   9.670   8.994  10.260
38504W        W42465   9.561   8.622   9.804
38505W        W42466   8.121   8.994   9.833
38506W        W42467  10.331  10.882   9.662
38507W        W42468  10.122   7.516  10.656
38508W        W42469   7.786   7.666  10.243
38509W        W42470   8.125   8.689   9.296
38510W        W42471   8.494   8.503   7.418
38511W        W42472   7.297  10.262   9.963
38512W        W42473   8.882   8.971   9.406
38513W        W42474   8.705   7.996   7.511
38514W        W42475   7.840   8.812   8.292
38515W        W42476   7.611  10.664   9.729
38516W        W42477  10.406   8.890   7.837
38517W        W42478  10.501   7.806  10.523
38518W        W42479   9.937  10.015   8.486
38519W        W42480   7.535   8.939  10.663
38520W        W42481  10.501   7.403   7.959
38521W        W42482  10.021   9.878   7.970
38522W        W42483   8.923   8.936   8.055
38523W        W42484  10.110   7.740   7.578
38524W        W42485  10.175   8.347   9.764
38525W        W42486   7.884   8.940   8.971
38526W        W42487   8.178   9.879   8.620
38527W        W42488   9.941   8.499   8.585
38528W        W42489   8.964   7.878   9.281
38529W        W42490  10.926   9.789   9.792
38530W        W42491  10.844   7.776   9.353
38531W        W42492   7.383  10.606   8.729
38532W        W42493   7.892   9.793   8.265
38533W        W42494   7.807   7.410  10.818
38534W        W42495   8.926  10.263  10.920
38535W        W42496  10.681   9.231   8.710
38536W        W42497  10.035   9.408   7.590
38537W        W42498   9.330  10.929   9.802
38538W        W42499  10.187   9.651  10.839
38539W        W42500   9.002   7.361   8.119
38540W        W42501   9.715   8.230   8.978
38541W        W42502   7.401   9.817   9.310
38542W        W42503   8.654   7.779   7.951
38543W        W42504   8.458   9.263  10.800
38544W        W42505   9.452   8.244   8.514
38545W        W42506   9.657   9.654   9.636
38546W        W42507   7.811  10.259  10.071
38547W        W42508   8.402  10.242  10.794
38548W        W42509   8.253   8.039   7.808
38549W        W42510   9.770   8.181   8.133
38550W        W42511   9.728  10.289  10.370
38551W        W42512   8.413   8.881   8.969
38552W        W42513   8.068  10.579   9.834
38553W        W42514  10.813  10.696   7.435
38554W        W42515   7.676   9.368  10.431
38555W        W42516   9.671   9.630   9.119
38556W        W42517   8.107   9.279   8.361
38557W        W42518   8.478  10.286   9.756
38558W        W42519   8.856   7.705   8.797
38559W        W42520   7.467   9.689   7.727
38560W        W42521   8.986   8.640   7.597
38561W        W42522   7.632   9.189   8.616
38562W        W42523   8.922   7.831  10.080
38563W        W42524  10.594   7.540   7.507
38564W        W42525  10.687   9.286  10.606
38565W        W42526   9.341  10.543  10.758
38566W        W42527  10.899   9.637  10.280
38567W        W42528  10.307  10.435  10.891
38568W        W42529   8.046  10.891   9.369
38569W        W42530  10.905   9.513   8.243
38570W        W42531   9.435   8.780   8.756
38571W        W42532   9.202   7.392   8.646
38572W        W42533   8.261  10.376   8.483
38573W        W42534   8.760   8.117   9.708
38574W        W42535   8.460   7.486   9.177
38575W        W42536   7.523  10.308   7.725
38576W        W42537   9.339   9.672   8.443
38577W        W42538   8.214  10.467  10.322
38578W        W42539   7.691   9.290   8.018
38579W        W42540   7.576   7.833   9.017
38580W        W42541   9.124   9.798   9.074
38581W        W42542   7.376   7.652   8.094
38582W        W42543  10.040   8.858  10.021
38583W        W42544   9.917   8.244   7.593
38584W        W42545  10.434   9.916   9.241
38585W        W42546   9.095  10.400   9.072
38586W        W42547   8.507  10.504   7.983
38587W        W42548   9.789   7.407   7.413
38588W        W42549   7.589  10.667   9.154
38589W        W42550   9.786   8.425  10.789
38590W        W42551   7.769   7.955  10.788
38591W        W42552   7.500   8.555   8.121
38592W        W42553   8.191   8.544   7.846
38593W        W42554   9.954   8.871  10.663
38594W        W42555   8.297   9.152   9.372
38595W        W42556   9.771   7.438   8.492
38596W        W42557   8.902  10.869   8.995
38597W        W42558  10.116  10.331   9.932
38598W        W42559   9.700  10.480   9.043
38599W        W42560   9.719   9.460   8.637
38600W        W42561   9.181   7.685   7.708
38601W        W42562  10.862   7.313   8.430
38602W        W42563   8.550   8.948   7.593
38603W        W42564  10.716   8.285   8.583
38604W        W42565   9.408   9.455   7.460
38605W        W42566  10.344   9.655  10.208
38606W        W42567   9.998  10.356   7.675
38607W        W42568   8.613   8.031  10.581
38608W        W42569   8.433   8.615   9.822
38609W        W42570  10.525  10.110  10.099
38610W        W42571   9.625   8.060  10.476
38611W        W42572   7.469   8.531  10.253
38612W        W42573   9.229   9.008   9.979
38613W        W42574   7.586   9.766   8.636
38614W        W42575   7.733   9.063   9.526
38615W        W42576  10.050   9.349   9.876
38616W        W42577   9.822  10.729  10.687
38617W        W42578   9.718   8.468  10.240
38618W        W42579   9.995  10.522   8.645
38619W        W42580   8.997  10.242   9.968
38620W        W42581   8.482  10.597   9.237
38621W        W42582  10.287   9.768   9.656
38622W        W42583   9.337   9.840  10.793
38623W        W42584   7.942   9.793   9.132
38624W        W42585  10.288   9.552   8.777
38625W        W42586   9.929  10.618   9.528
38626W        W42587   7.907  10.347   9.398
38627W        W42588   8.928   8.399  10.608
38628W        W42589   9.379  10.565   8.119
38629W        W42590   8.687   9.820  10.757
38630W        W42591   8.813  10.058   8.134
38631W        W42592   8.034   8.798   7.393
38632W        W42593   7.373  10.884  14.292
38633W        W42594   7.749   9.777  13.815
38634W        W42595  10.454   9.507  11.585
38635W        W42596  10.584  10.592  13.612
38636W        W42597   8.502  10.583  11.138
38637W        W42598   8.585   8.735  12.121
38638W        W42599   8.100   8.583  12.285
38639W        W42600   9.091   9.398  11.719
38640W        W42601   8.766  10.490  14.074
38641W        W42602   7.415   8.051  14.037
38642W        W42603   8.177   7.331  13.839
38643W        W42604   9.871   7.719  12.726
38644W        W42605   9.520   8.590  11.296
38645W        W42606  10.090   8.024  14.387
38646W        W42607   7.456   7.816  13.512
38647W        W42608   7.555  10.435  14.533
38648W        W42609   9.077   9.825  11.265
38649W        W42610   7.509   8.608  12.958
38650W        W42611   8.402   8.499  14.195
38651W        W42612  10.861   8.358  12.694
38652W        W42613  10.625   9.401  13.553
38653W        W42614   8.933   8.734  12.580
38654W        W42615   9.479  10.073  12.949
38655W        W42616   7.979   9.507  13.181
38656W        W42617   7.338   9.035  12.752
38657W        W42618   8.374   9.007  13.944
38658W        W42619  10.645   8.790  14.198
38659W        W42620   8.261  10.234  12.643
38660W        W42621   9.382   9.923  13.777
38661W        W42622   8.602   8.563  13.002
38662W        W42623   8.894   9.347  12.645
38663W        W42624   9.891  10.120  14.493
38664W        W42625   8.970   9.440  14.503
38665W        W42626   8.951   9.156  13.981
38666W        W42627   7.360   8.547  14.503
38667W        W42628  10.192  10.082  14.102
38668W        W42629   7.773   7.664  12.100
38669W        W42630   8.300   9.922  13.099
38670W        W42631  10.763   9.705  12.389
38671W        W42632  10.176   8.105  12.956
38672W        W42633  10.461   8.058  11.051
38673W        W42634  10.926   8.859  13.357
38674W        W42635   8.893  10.566  13.110
38675W        W42636  10.667  10.032  11.548
38676W        W42637   7.796  10.818  11.302
38677W        W42638   8.189  10.864  11.978
38678W        W42639   7.986   7.618  13.404
38679W        W42640  10.609   8.636  13.679
38680W        W42641  10.014   9.058  12.138
38681W        W42642   9.980   8.746  11.165
38682W        W42643   9.188   9.890  13.305
38683W        W42644   8.994   8.220  12.504
38684W        W42645   9.594  10.307  13.498
38685W        W42646  10.465   9.098  11.920
38686W        W42647   9.367   7.756  11.936
38687W        W42648   8.024  10.450  11.619
38688W        W42649   7.395   7.949  12.218
38689W        W42650  10.181   8.556  12.692
38690W        W42651   7.639  10.173  12.607
38691W        W42652   8.980  10.523  11.477
38692W        W42653  10.372   8.549  10.941
38693W        W42654   7.395  10.307  13.105
38694W        W42655   8.186   9.879  13.585
38695W        W42656   8.559   9.239  12.204
38696W        W42657   8.581   7.644  13.297
38697W        W42658  10.810   7.406  12.594
38698W        W42659   8.029   9.278  11.062
38699W        W42660   7.684   8.311  11.241
38700W        W42661   7.746  10.267  12.035
38701W        W42662   8.877   9.750  12.283
38702W        W42663  10.209  10.609  13.997
38703W        W42664   9.135   8.251  11.681
38704W        W42665  10.518  10.649  12.453
38705W        W42666  10.195   8.502  14.051
38706W        W42667  10.908  10.158  12.185
38707W        W42668   9.535   9.450  13.669
38708W        W42669   7.301   9.001  11.875
38709W        W42670   8.412   9.416  13.448
38710W        W42671   9.616   8.680  11.826
38711W        W42672   9.493   9.170  11.930
38712W        W42673   7.836   8.590  13.404
38713W        W42674   7.821   8.466  14.326
38714W        W42675   7.711   7.383  12.485
38715W        W42676   9.479   7.730  13.046
38716W        W42677   9.127   7.915  14.209
38717W        W42678   9.482   8.064  11.387
38718W        W42679  10.665  10.457  14.141
38719W        W42680   9.632   7.538  14.180
38720W        W42681  10.651   9.839  14.302
38721W        W42682  10.081   8.006  13.898
38722W        W42683   9.881   7.944  12.168
38723W        W42684  10.274   9.078  14.572
38724W        W42685   8.014  10.654  12.558
38725W        W42686   8.672   8.371  11.544
38726W        W42687   8.241   7.655  14.208
38727W        W42688  10.293   8.139  11.889
38728W        W42689  10.660   8.621  11.834
38729W        W42690   8.403  10.838  14.305
38730W        W42691   8.329   7.374  11.540
38731W        W42692  10.650   7.908  12.575
38732W        W42693  10.800  10.157  11.020
38733W        W42694   7.707   9.360  12.722
38734W        W42695   9.624   7.947  10.952
38735W        W42696  10.758  10.279  12.672
38736W        W42697  10.797   7.473  13.422
38737W        W42698   9.242   8.685  13.976
38738W        W42699   9.335  10.024  11.679
38739W        W42700   9.735   9.318  14.419
38740W        W42701   9.409   7.295  12.728
38741W        W42702   8.021   8.198  12.791
38742W        W42703   7.575   9.398  13.565
38743W        W42704   9.434  10.591  12.271
38744W        W42705  10.628   8.188  13.143
38745W        W42706   9.265  10.535  13.910
38746W        W42707  10.608   9.594  11.115
38747W        W42708   9.043   9.077  12.176
38748W        W42709  10.895   7.588  13.917
38749W        W42710   9.044   9.423  13.511
38750W        W42711   9.261   8.309  12.956
38751W        W42712  10.113   8.607  11.794
38752W        W42713  10.400   8.340  11.436
38753W        W42714  10.209  10.380  11.825
38754W        W42715  10.043   9.983  12.621
38755W        W42716   9.939   9.062  11.599
38756W        W42717   9.372   9.272  12.585
38757W        W42718  10.253   9.060  12.652
38758W        W42719   7.628   8.075  13.076
38759W        W42720  10.406   9.127  13.903
38760W        W42721  10.757  10.745  13.049
38761W        W42722   8.687  10.189  12.451
38762W        W42723   9.694  10.722  13.775
38763W        W42724   9.688   8.052  13.539
38764W        W42725   8.895  10.760  13.600
38765W        W42726  10.592   7.714  12.066
38766W        W42727  10.383   9.033  13.367
38767W        W42728   7.366   8.354  13.405
38768W        W42729  10.226   8.149  12.423
38769W        W42730  10.637   8.300  14.200
38770W        W42731   9.522   9.999  12.418
38771W        W42732   8.778  10.590  12.031
38772W        W42733   7.893   7.770  11.289
38773W        W42734   8.997   7.424  13.099
38774W        W42735   8.025  10.544  10.947
38775W        W42736   8.399   9.010  11.698
38776W        W42737   9.053   9.639  14.011
38777W        W42738   8.883   7.997  12.001
38778W        W42739  10.239   7.594  12.429
38779W        W42740   9.959  10.876  12.757
38780W        W42741   9.371  10.524  13.097
38781W        W42742   8.767   9.561  13.058
38782W        W42743  10.537  10.284  13.184
38783W        W42744   8.231   7.787  11.953
38784W        W42745   8.753  10.084  12.913
38785W        W42746   8.236   8.015  10.978
38786W        W42747   9.037   8.624  13.372
38787W        W42748   9.885   7.490  13.242
38788W        W42749   7.305   9.333  13.127
38789W        W42750   9.009   9.151  11.285
38790W        W42751   8.277   7.466  11.055
38791W        W42752   9.015   8.547  12.106
38792W        W42753   9.985   7.523  13.805
38793W        W42754   8.573   9.535  13.914
38794W        W42755   9.377   9.317  14.131
38795W        W42756   9.994   9.347  14.024
38796W        W42757   9.278   7.487  14.529
38797W        W42758   8.500   8.103  12.922
38798W        W42759   7.926   8.059  12.320
38799W        W42760   7.712  10.771  11.996
38800W        W42761   9.044  10.101  14.121
38801W        W42762   8.079   9.586  11.480
38802W        W42763   9.759   8.971  12.701
38803W        W42764  10.039   8.770  13.100
38804W        W42765   9.244   9.444  13.034
38805W        W42766   9.714   9.818  11.166
38806W        W42767   9.386   7.839  12.494
38807W        W42768  10.865   8.117  11.762
38808W        W42769   7.359  10.706  13.793
38809W        W42770   7.776   9.932  13.325
38810W        W42771   7.343  10.778  11.557
38811W        W42772   9.242   8.048  13.363
38812W        W42773   8.605  10.071  11.212
38813W        W42774  10.510  10.453  11.398
38814W        W42775   9.485   9.106  11.412
38815W        W42776   8.328   8.297  11.929
38816W        W42777   9.160   8.207  10.981
38817W        W42778   9.744   9.772  14.159
38818W        W42779  10.097   7.678  11.776
38819W        W42780   7.427   7.526  11.224
38820W        W42781   8.713   9.845  13.514
38821W        W42782   8.512   9.761  12.606
38822W        W42783   8.254   9.713  11.004
38823W        W42784   7.495   9.954  11.772
38824W        W42785   7.999   9.024  14.214
38825W        W42786   8.703   7.584  14.400
38826W        W42787   9.412   7.726  13.756
38827W        W42788   8.607   7.494  12.037
38828W        W42789   9.666   7.571  11.542
38829W        W42790   7.611   7.503  13.119
38830W        W42791   7.659   8.466  12.489
38831W        W42792  10.348   7.574  12.895
38832W        W42793   7.770   8.072  11.709
38833W        W42794  10.341   7.760  13.325
38834W        W42795  10.737   8.963  11.010
38835W        W42796   8.029   7.721  12.829
38836W        W42797   9.143   8.293  13.769
38837W        W42798   7.291   7.983  11.247
38838W        W42799   8.077   9.372  13.808
38839W        W42800   9.435   8.770  12.987
38840W        W42801   9.302  10.849  11.283
38841W        W42802   7.448   9.356  10.980
38842W        W42803   8.183   9.767  14.106
38843W        W42804   7.704   8.934  13.737
38844W        W42805   8.695   9.039  13.531
38845W        W42806  10.463   7.398  13.793
38846W        W42807  10.861   9.008  13.784
38847W        W42808  10.849   9.208  11.470
38848W        W42809   9.712   9.540  11.569
38849W        W42810  10.186  10.840  11.264
38850W        W42811   9.363   8.830  14.406
38851W        W42812   7.693   9.797  14.446
38852W        W42813  10.899   7.719  14.398
38853W        W42814  10.617   8.647  13.019
38854W        W42815   8.925  10.777  14.496
38855W        W42816   8.780   7.406  11.223
38856W        W42817  10.319  10.005  11.166
38857W        W42818   8.088   8.098  14.052
38858W        W42819   8.522  10.092  13.914
38859W        W42820  10.648   8.083  13.712
38860W        W42821   9.859  10.742  11.680
38861W        W42822  10.098   9.361  13.047
38862W        W42823   8.348   7.777  13.714
38863W        W42824   8.817   8.846  14.471
38864W        W42825   8.320  10.025  11.665
38865W        W42826  10.075   9.523  11.929
38866W        W42827   7.843   8.149  13.653
38867W        W42828   9.172  10.211  12.117
38868W        W42829   9.144   7.404  14.017
38869W        W42830   9.924  10.109  13.096
38870W        W42831  10.227  10.453  12.804
38871W        W42832   9.446  10.255  11.232
38872W        W42833   7.456  10.147  14.074
38873W        W42834   8.199   8.139  13.312
38874W        W42835   8.169   7.487  12.422
38875W        W42836   9.790   8.329  13.114
38876W        W42837   8.588   9.500  11.314
38877W        W42838  10.586   9.442  12.813
38878W        W42839   7.913  10.200  14.236
38879W        W42840  10.300  10.882  12.033
38880W        W42841   8.399   7.902  12.478
38881W        W42842   8.168   9.395  12.568
38882W        W42843   8.481  10.806  13.318
38883W        W42844  10.548  10.902  14.350
38884W        W42845   9.707   9.090  13.283
38885W        W42846   7.556   8.888  11.198
38886W        W42847  10.690  10.546  11.895
38887W        W42848  10.527   7.870  11.514
38888W        W42849   8.666   7.389  13.917
38889W        W42850  10.372  10.191  12.375
38890W        W42851  10.401   8.747  12.280
38891W        W42852   8.518   8.420  12.496
38892W        W42853   8.763   8.682  13.820
38893W        W42854   9.874   9.835  13.683
38894W        W42855   8.524   8.289  13.795
38895W        W42856   8.503  10.755  12.411
38896W        W42857   7.820  10.714  14.045
38897W        W42858   7.932  10.075  11.175
38898W        W42859  10.449   9.833  11.985
38899W        W42860   8.053   8.625  13.871
38900W        W42861  10.826   8.555  11.352
38901W        W42862   8.571   9.612  11.823
38902W        W42863   9.670   8.994  13.904
38903W        W42864   9.561   8.622  13.448
38904W        W42865   8.121   8.994  13.477
38905W        W42866  10.331  10.882  13.306
38906W        W42867  10.122   7.516  14.300
38907W        W42868   7.786   7.666  13.887
38908W        W42869   8.125   8.689  12.940
38909W        W42870   8.494   8.503  11.062
38910W        W42871   7.297  10.262  13.607
38911W        W42872   8.882   8.971  13.050
38912W        W42873   8.705   7.996  11.155
38913W        W42874   7.840   8.812  11.936
38914W        W42875   7.611  10.664  13.373
38915W        W42876  10.406   8.890  11.481
38916W        W42877  10.501   7.806  14.167
38917W        W42878   9.937  10.015  12.130
38918W        W42879   7.535   8.939  14.307
38919W        W42880  10.501   7.403  11.603
38920W        W42881  10.021   9.878  11.614
38921W        W42882   8.923   8.936  11.699
38922W        W42883  10.110   7.740  11.222
38923W        W42884  10.175   8.347  13.408
38924W        W42885   7.884   8.940  12.615
38925W        W42886   8.178   9.879  12.264
38926W        W42887   9.941   8.499  12.229
38927W        W42888   8.964   7.878  12.925
38928W        W42889  10.926   9.789  13.436
38929W        W42890  10.844   7.776  12.997
38930W        W42891   7.383  10.606  12.373
38931W        W42892   7.892   9.793  11.909
38932W        W42893   7.807   7.410  14.462
38933W        W42894   8.926  10.263  14.564
38934W        W42895  10.681   9.231  12.354
38935W        W42896  10.035   9.408  11.234
38936W        W42897   9.330  10.929  13.446
38937W        W42898  10.187   9.651  14.483
38938W        W42899   9.002   7.361  11.763
38939W        W42900   9.715   8.230  12.622
38940W        W42901   7.401   9.817  12.954
38941W        W42902   8.654   7.779  11.595
38942W        W42903   8.458   9.263  14.444
38943W        W42904   9.452   8.244  12.158
38944W        W42905   9.657   9.654  13.280
38945W        W42906   7.811  10.259  13.715
38946W        W42907   8.402  10.242  14.438
38947W        W42908   8.253   8.039  11.452
38948W        W42909   9.770   8.181  11.777
38949W        W42910   9.728  10.289  14.014
38950W        W42911   8.413   8.881  12.613
38951W        W42912   8.068  10.579  13.478
38952W        W42913  10.813  10.696  11.079
38953W        W42914   7.676   9.368  14.075
38954W        W42915   9.671   9.630  12.763
38955W        W42916   8.107   9.279  12.005
38956W        W42917   8.478  10.286  13.400
38957W        W42918   8.856   7.705  12.441
38958W        W42919   7.467   9.689  11.371
38959W        W42920   8.986   8.640  11.241
38960W        W42921   7.632   9.189  12.260
38961W        W42922   8.922   7.831  13.724
38962W        W42923  10.594   7.540  11.151
38963W        W42924  10.687   9.286  14.250
38964W        W42925   9.341  10.543  14.402
38965W        W42926  10.899   9.637  13.924
38966W        W42927  10.307  10.435  14.535
38967W        W42928   8.046  10.891  13.013
38968W        W42929  10.905   9.513  11.887
38969W        W42930   9.435   8.780  12.400
38970W        W42931   9.202   7.392  12.290
38971W        W42932   8.261  10.376  12.127
38972W        W42933   8.760   8.117  13.352
38973W        W42934   8.460   7.486  12.821
38974W        W42935   7.523  10.308  11.369
38975W        W42936   9.339   9.672  12.087
38976W        W42937   8.214  10.467  13.966
38977W        W42938   7.691   9.290  11.662
38978W        W42939   7.576   7.833  12.661
38979W        W42940   9.124   9.798  12.718
38980W        W42941   7.376   7.652  11.738
38981W        W42942  10.040   8.858  13.665
38982W        W42943   9.917   8.244  11.237
38983W        W42944  10.434   9.916  12.885
38984W        W42945   9.095  10.400  12.716
38985W        W42946   8.507  10.504  11.627
38986W        W42947   9.789   7.407  11.057
38987W        W42948   7.589  10.667  12.798
38988W        W42949   9.786   8.425  14.433
38989W        W42950   7.769   7.955  14.432
38990W        W42951   7.500   8.555  11.765
38991W        W42952   8.191   8.544  11.490
38992W        W42953   9.954   8.871  14.307
38993W        W42954   8.297   9.152  13.016
38994W        W42955   9.771   7.438  12.136
38995W        W42956   8.902  10.869  12.639
38996W        W42957  10.116  10.331  13.576
38997W        W42958   9.700  10.480  12.687
38998W        W42959   9.719   9.460  12.281
38999W        W42960   9.181   7.685  11.352
39000W        W42961  10.862   7.313  12.074
39001W        W42962   8.550   8.948  11.237
39002W        W42963  10.716   8.285  12.227
39003W        W42964   9.408   9.455  11.104
39004W        W42965  10.344   9.655  13.852
39005W        W42966   9.998  10.356  11.319
39006W        W42967   8.613   8.031  14.225
39007W        W42968   8.433   8.615  13.466
39008W        W42969  10.525  10.110  13.743
39009W        W42970   9.625   8.060  14.120
39010W        W42971   7.469   8.531  13.897
39011W        W42972   9.229   9.008  13.623
39012W        W42973   7.586   9.766  12.280
39013W        W42974   7.733   9.063  13.170
39014W        W42975  10.050   9.349  13.520
39015W        W42976   9.822  10.729  14.331
39016W        W42977   9.718   8.468  13.884
39017W        W42978   9.995  10.522  12.289
39018W        W42979   8.997  10.242  13.612
39019W        W42980   8.482  10.597  12.881
39020W        W42981  10.287   9.768  13.300
39021W        W42982   9.337   9.840  14.437
39022W        W42983   7.942   9.793  12.776
39023W        W42984  10.288   9.552  12.421
39024W        W42985   9.929  10.618  13.172
39025W        W42986   7.907  10.347  13.042
39026W        W42987   8.928   8.399  14.252
39027W        W42988   9.379  10.565  11.763
39028W        W42989   8.687   9.820  14.401
39029W        W42990   8.813  10.058  11.778
39030W        W42991   8.034   8.798  11.037
39031W        W42992   7.373  10.884  17.936
39032W        W42993   7.749   9.777  17.459
39033W        W42994  10.454   9.507  15.229
39034W        W42995  10.584  10.592  17.256
39035W        W42996   8.502  10.583  14.782
39036W        W42997   8.585   8.735  15.765
39037W        W42998   8.100   8.583  15.929
39038W        W42999   9.091   9.398  15.363
39039W        W43000   8.766  10.490  17.718
39040W        W43001   7.415   8.051  17.681
39041W        W43002   8.177   7.331  17.483
39042W        W43003   9.871   7.719  16.370
39043W        W43004   9.520   8.590  14.940
39044W        W43005  10.090   8.024  18.031
39045W        W43006   7.456   7.816  17.156
39046W        W43007   7.555  10.435  18.177
39047W        W43008   9.077   9.825  14.909
39048W        W43009   7.509   8.608  16.602
39049W        W43010   8.402   8.499  17.839
39050W        W43011  10.861   8.358  16.338
39051W        W43012  10.625   9.401  17.197
39052W        W43013   8.933   8.734  16.224
39053W        W43014   9.479  10.073  16.593
39054W        W43015   7.979   9.507  16.825
39055W        W43016   7.338   9.035  16.396
39056W        W43017   8.374   9.007  17.588
39057W        W43018  10.645   8.790  17.842
39058W        W43019   8.261  10.234  16.287
39059W        W43020   9.382   9.923  17.421
39060W        W43021   8.602   8.563  16.646
39061W        W43022   8.894   9.347  16.289
39062W        W43023   9.891  10.120  18.137
39063W        W43024   8.970   9.440  18.147
39064W        W43025   8.951   9.156  17.625
39065W        W43026   7.360   8.547  18.147
39066W        W43027  10.192  10.082  17.746
39067W        W43028   7.773   7.664  15.744
39068W        W43029   8.300   9.922  16.743
39069W        W43030  10.763   9.705  16.033
39070W        W43031  10.176   8.105  16.600
39071W        W43032  10.461   8.058  14.695
39072W        W43033  10.926   8.859  17.001
39073W        W43034   8.893  10.566  16.754
39074W        W43035  10.667  10.032  15.192
39075W        W43036   7.796  10.818  14.946
39076W        W43037   8.189  10.864  15.622
39077W        W43038   7.986   7.618  17.048
39078W        W43039  10.609   8.636  17.323
39079W        W43040  10.014   9.058  15.782
39080W        W43041   9.980   8.746  14.809
39081W        W43042   9.188   9.890  16.949
39082W        W43043   8.994   8.220  16.148
39083W        W43044   9.594  10.307  17.142
39084W        W43045  10.465   9.098  15.564
39085W        W43046   9.367   7.756  15.580
39086W        W43047   8.024  10.450  15.263
39087W        W43048   7.395   7.949  15.862
39088W        W43049  10.181   8.556  16.336
39089W        W43050   7.639  10.173  16.251
39090W        W43051   8.980  10.523  15.121
39091W        W43052  10.372   8.549  14.585
39092W        W43053   7.395  10.307  16.749
39093W        W43054   8.186   9.879  17.229
39094W        W43055   8.559   9.239  15.848
39095W        W43056   8.581   7.644  16.941
39096W        W43057  10.810   7.406  16.238
39097W        W43058   8.029   9.278  14.706
39098W        W43059   7.684   8.311  14.885
39099W        W43060   7.746  10.267  15.679
39100W        W43061   8.877   9.750  15.927
39101W        W43062  10.209  10.609  17.641
39102W        W43063   9.135   8.251  15.325
39103W        W43064  10.518  10.649  16.097
39104W        W43065  10.195   8.502  17.695
39105W        W43066  10.908  10.158  15.829
39106W        W43067   9.535   9.450  17.313
39107W        W43068   7.301   9.001  15.519
39108W        W43069   8.412   9.416  17.092
39109W        W43070   9.616   8.680  15.470
39110W        W43071   9.493   9.170  15.574
39111W        W43072   7.836   8.590  17.048
39112W        W43073   7.821   8.466  17.970
39113W        W43074   7.711   7.383  16.129
39114W        W43075   9.479   7.730  16.690
39115W        W43076   9.127   7.915  17.853
39116W        W43077   9.482   8.064  15.031
39117W        W43078  10.665  10.457  17.785
39118W        W43079   9.632   7.538  17.824
39119W        W43080  10.651   9.839  17.946
39120W        W43081  10.081   8.006  17.542
39121W        W43082   9.881   7.944  15.812
39122W        W43083  10.274   9.078  18.216
39123W        W43084   8.014  10.654  16.202
39124W        W43085   8.672   8.371  15.188
39125W        W43086   8.241   7.655  17.852
39126W        W43087  10.293   8.139  15.533
39127W        W43088  10.660   8.621  15.478
39128W        W43089   8.403  10.838  17.949
39129W        W43090   8.329   7.374  15.184
39130W        W43091  10.650   7.908  16.219
39131W        W43092  10.800  10.157  14.664
39132W        W43093   7.707   9.360  16.366
39133W        W43094   9.624   7.947  14.596
39134W        W43095  10.758  10.279  16.316
39135W        W43096  10.797   7.473  17.066
39136W        W43097   9.242   8.685  17.620
39137W        W43098   9.335  10.024  15.323
39138W        W43099   9.735   9.318  18.063
39139W        W43100   9.409   7.295  16.372
39140W        W43101   8.021   8.198  16.435
39141W        W43102   7.575   9.398  17.209
39142W        W43103   9.434  10.591  15.915
39143W        W43104  10.628   8.188  16.787
39144W        W43105   9.265  10.535  17.554
39145W        W43106  10.608   9.594  14.759
39146W        W43107   9.043   9.077  15.820
39147W        W43108  10.895   7.588  17.561
39148W        W43109   9.044   9.423  17.155
39149W        W43110   9.261   8.309  16.600
39150W        W43111  10.113   8.607  15.438
39151W        W43112  10.400   8.340  15.080
39152W        W43113  10.209  10.380  15.469
39153W        W43114  10.043   9.983  16.265
39154W        W43115   9.939   9.062  15.243
39155W        W43116   9.372   9.272  16.229
39156W        W43117  10.253   9.060  16.296
39157W        W43118   7.628   8.075  16.720
39158W        W43119  10.406   9.127  17.547
39159W        W43120  10.757  10.745  16.693
39160W        W43121   8.687  10.189  16.095
39161W        W43122   9.694  10.722  17.419
39162W        W43123   9.688   8.052  17.183
39163W        W43124   8.895  10.760  17.244
39164W        W43125  10.592   7.714  15.710
39165W        W43126  10.383   9.033  17.011
39166W        W43127   7.366   8.354  17.049
39167W        W43128  10.226   8.149  16.067
39168W        W43129  10.637   8.300  17.844
39169W        W43130   9.522   9.999  16.062
39170W        W43131   8.778  10.590  15.675
39171W        W43132   7.893   7.770  14.933
39172W        W43133   8.997   7.424  16.743
39173W        W43134   8.025  10.544  14.591
39174W        W43135   8.399   9.010  15.342
39175W        W43136   9.053   9.639  17.655
39176W        W43137   8.883   7.997  15.645
39177W        W43138  10.239   7.594  16.073
39178W        W43139   9.959  10.876  16.401
39179W        W43140   9.371  10.524  16.741
39180W        W43141   8.767   9.561  16.702
39181W        W43142  10.537  10.284  16.828
39182W        W43143   8.231   7.787  15.597
39183W        W43144   8.753  10.084  16.557
39184W        W43145   8.236   8.015  14.622
39185W        W43146   9.037   8.624  17.016
39186W        W43147   9.885   7.490  16.886
39187W        W43148   7.305   9.333  16.771
39188W        W43149   9.009   9.151  14.929
39189W        W43150   8.277   7.466  14.699
39190W        W43151   9.015   8.547  15.750
39191W        W43152   9.985   7.523  17.449
39192W        W43153   8.573   9.535  17.558
39193W        W43154   9.377   9.317  17.775
39194W        W43155   9.994   9.347  17.668
39195W        W43156   9.278   7.487  18.173
39196W        W43157   8.500   8.103  16.566
39197W        W43158   7.926   8.059  15.964
39198W        W43159   7.712  10.771  15.640
39199W        W43160   9.044  10.101  17.765
39200W        W43161   8.079   9.586  15.124
39201W        W43162   9.759   8.971  16.345
39202W        W43163  10.039   8.770  16.744
39203W        W43164   9.244   9.444  16.678
39204W        W43165   9.714   9.818  14.810
39205W        W43166   9.386   7.839  16.138
39206W        W43167  10.865   8.117  15.406
39207W        W43168   7.359  10.706  17.437
39208W        W43169   7.776   9.932  16.969
39209W        W43170   7.343  10.778  15.201
39210W        W43171   9.242   8.048  17.007
39211W        W43172   8.605  10.071  14.856
39212W        W43173  10.510  10.453  15.042
39213W        W43174   9.485   9.106  15.056
39214W        W43175   8.328   8.297  15.573
39215W        W43176   9.160   8.207  14.625
39216W        W43177   9.744   9.772  17.803
39217W        W43178  10.097   7.678  15.420
39218W        W43179   7.427   7.526  14.868
39219W        W43180   8.713   9.845  17.158
39220W        W43181   8.512   9.761  16.250
39221W        W43182   8.254   9.713  14.648
39222W        W43183   7.495   9.954  15.416
39223W        W43184   7.999   9.024  17.858
39224W        W43185   8.703   7.584  18.044
39225W        W43186   9.412   7.726  17.400
39226W        W43187   8.607   7.494  15.681
39227W        W43188   9.666   7.571  15.186
39228W        W43189   7.611   7.503  16.763
39229W        W43190   7.659   8.466  16.133
39230W        W43191  10.348   7.574  16.539
39231W        W43192   7.770   8.072  15.353
39232W        W43193  10.341   7.760  16.969
39233W        W43194  10.737   8.963  14.654
39234W        W43195   8.029   7.721  16.473
39235W        W43196   9.143   8.293  17.413
39236W        W43197   7.291   7.983  14.891
39237W        W43198   8.077   9.372  17.452
39238W        W43199   9.435   8.770  16.631
39239W        W43200   9.302  10.849  14.927
39240W        W43201   7.448   9.356  14.624
39241W        W43202   8.183   9.767  17.750
39242W        W43203   7.704   8.934  17.381
39243W        W43204   8.695   9.039  17.175
39244W        W43205  10.463   7.398  17.437
39245W        W43206  10.861   9.008  17.428
39246W        W43207  10.849   9.208  15.114
39247W        W43208   9.712   9.540  15.213
39248W        W43209  10.186  10.840  14.908
39249W        W43210   9.363   8.830  18.050
39250W        W43211   7.693   9.797  18.090
39251W        W43212  10.899   7.719  18.042
39252W        W43213  10.617   8.647  16.663
39253W        W43214   8.925  10.777  18.140
39254W        W43215   8.780   7.406  14.867
39255W        W43216  10.319  10.005  14.810
39256W        W43217   8.088   8.098  17.696
39257W        W43218   8.522  10.092  17.558
39258W        W43219  10.648   8.083  17.356
39259W        W43220   9.859  10.742  15.324
39260W        W43221  10.098   9.361  16.691
39261W        W43222   8.348   7.777  17.358
39262W        W43223   8.817   8.846  18.115
39263W        W43224   8.320  10.025  15.309
39264W        W43225  10.075   9.523  15.573
39265W        W43226   7.843   8.149  17.297
39266W        W43227   9.172  10.211  15.761
39267W        W43228  10.922   8.771  15.942
39268W        W43229   9.144   7.404  17.661
39269W        W43230   9.924  10.109  16.740
39270W        W43231  10.227  10.453  16.448
39271W        W43232   9.446  10.255  14.876
39272W        W43233   7.456  10.147  17.718
39273W        W43234   8.199   8.139  16.956
39274W        W43235   8.169   7.487  16.066
39275W        W43236   9.790   8.329  16.758
39276W        W43237   8.588   9.500  14.958
39277W        W43238  10.586   9.442  16.457
39278W        W43239   7.913  10.200  17.880
39279W        W43240  10.300  10.882  15.677
39280W        W43241   8.399   7.902  16.122
39281W        W43242   8.168   9.395  16.212
39282W        W43243   8.481  10.806  16.962
39283W        W43244  10.548  10.902  17.994
39284W        W43245   9.707   9.090  16.927
39285W        W43246   7.556   8.888  14.842
39286W        W43247  10.690  10.546  15.539
39287W        W43248  10.527   7.870  15.158
39288W        W43249   8.666   7.389  17.561
39289W        W43250  10.372  10.191  16.019
39290W        W43251  10.401   8.747  15.924
39291W        W43252   8.518   8.420  16.140
39292W        W43253   8.763   8.682  17.464
39293W        W43254   9.874   9.835  17.327
39294W        W43255   8.524   8.289  17.439
39295W        W43256   8.503  10.755  16.055
39296W        W43257   7.820  10.714  17.689
39297W        W43258   7.932  10.075  14.819
39298W        W43259  10.449   9.833  15.629
39299W        W43260   8.053   8.625  17.515
39300W        W43261  10.826   8.555  14.996
39301W        W43262   8.571   9.612  15.467
39302W        W43263   9.670   8.994  17.548
39303W        W43264   9.561   8.622  17.092
39304W        W43265   8.121   8.994  17.121
39305W        W43266  10.331  10.882  16.950
39306W        W43267  10.122   7.516  17.944
39307W        W43268   7.786   7.666  17.531
39308W        W43269   8.125   8.689  16.584
39309W        W43270   8.494   8.503  14.706
39310W        W43271   7.297  10.262  17.251
39311W        W43272   8.882   8.971  16.694
39312W        W43273   8.705   7.996  14.799
39313W        W43274   7.840   8.812  15.580
39314W        W43275   7.611  10.664  17.017
39315W        W43276  10.406   8.890  15.125
39316W        W43277  10.501   7.806  17.811
39317W        W43278   9.937  10.015  15.774
39318W        W43279   7.535   8.939  17.951
39319W        W43280  10.501   7.403  15.247
39320W        W43281  10.021   9.878  15.258
39321W        W43282   8.923   8.936  15.343
39322W        W43283  10.110   7.740  14.866
39323W        W43284  10.175   8.347  17.052
39324W        W43285   7.884   8.940  16.259
39325W        W43286   8.178   9.879  15.908
39326W        W43287   9.941   8.499  15.873
39327W        W43288   8.964   7.878  16.569
39328W        W43289  10.926   9.789  17.080
39329W        W43290  10.844   7.776  16.641
39330W        W43291   7.383  10.606  16.017
39331W        W43292   7.892   9.793  15.553
39332W        W43293   7.807   7.410  18.106
39333W        W43294   8.926  10.263  18.208
39334W        W43295  10.681   9.231  15.998
39335W        W43296  10.035   9.408  14.878
39336W        W43297   9.330  10.929  17.090
39337W        W43298  10.187   9.651  18.127
39338W        W43299   9.002   7.361  15.407
39339W        W43300   9.715   8.230  16.266
39340W        W43301   7.401   9.817  16.598
39341W        W43302   8.654   7.779  15.239
39342W        W43303   8.458   9.263  18.088
39343W        W43304   9.452   8.244  15.802
39344W        W43305   9.657   9.654  16.924
39345W        W43306   7.811  10.259  17.359
39346W        W43307   8.402  10.242  18.082
39347W        W43308   8.253   8.039  15.096
39348W        W43309   9.770   8.181  15.421
39349W        W43310   9.728  10.289  17.658
39350W        W43311   8.413   8.881  16.257
39351W        W43312   8.068  10.579  17.122
39352W        W43313  10.813  10.696  14.723
39353W        W43314   7.676   9.368  17.719
39354W        W43315   9.671   9.630  16.407
39355W        W43316   8.107   9.279  15.649
39356W        W43317   8.478  10.286  17.044
39357W        W43318   8.856   7.705  16.085
39358W        W43319   7.467   9.689  15.015
39359W        W43320   8.986   8.640  14.885
39360W        W43321   7.632   9.189  15.904
39361W        W43322   8.922   7.831  17.368
39362W        W43323  10.594   7.540  14.795
39363W        W43324  10.687   9.286  17.894
39364W        W43325   9.341  10.543  18.046
39365W        W43326  10.899   9.637  17.568
39366W        W43327  10.307  10.435  18.179
39367W        W43328   8.046  10.891  16.657
39368W        W43329  10.905   9.513  15.531
39369W        W43330   9.435   8.780  16.044
39370W        W43331   9.202   7.392  15.934
39371W        W43332   8.261  10.376  15.771
39372W        W43333   8.760   8.117  16.996
39373W        W43334   8.460   7.486  16.465
39374W        W43335   7.523  10.308  15.013
39375W        W43336   9.339   9.672  15.731
39376W        W43337   8.214  10.467  17.610
39377W        W43338   7.691   9.290  15.306
39378W        W43339   7.576   7.833  16.305
39379W        W43340   9.124   9.798  16.362
39380W        W43341   7.376   7.652  15.382
39381W        W43342  10.040   8.858  17.309
39382W        W43343   9.917   8.244  14.881
39383W        W43344  10.434   9.916  16.529
39384W        W43345   9.095  10.400  16.360
39385W        W43346   8.507  10.504  15.271
39386W        W43347   9.789   7.407  14.701
39387W        W43348   7.589  10.667  16.442
39388W        W43349   9.786   8.425  18.077
39389W        W43350   7.769   7.955  18.076
39390W        W43351   7.500   8.555  15.409
39391W        W43352   8.191   8.544  15.134
39392W        W43353   9.954   8.871  17.951
39393W        W43354   8.297   9.152  16.660
39394W        W43355   9.771   7.438  15.780
39395W        W43356   8.902  10.869  16.283
39396W        W43357  10.116  10.331  17.220
39397W        W43358   9.700  10.480  16.331
39398W        W43359   9.719   9.460  15.925
39399W        W43360   9.181   7.685  14.996
39400W        W43361  10.862   7.313  15.718
39401W        W43362   8.550   8.948  14.881
39402W        W43363  10.716   8.285  15.871
39403W        W43364   9.408   9.455  14.748
39404W        W43365  10.344   9.655  17.496
39405W        W43366   9.998  10.356  14.963
39406W        W43367   8.613   8.031  17.869
39407W        W43368   8.433   8.615  17.110
39408W        W43369  10.525  10.110  17.387
39409W        W43370   9.625   8.060  17.764
39410W        W43371   7.469   8.531  17.541
39411W        W43372   9.229   9.008  17.267
39412W        W43373   7.586   9.766  15.924
39413W        W43374   7.733   9.063  16.814
39414W        W43375  10.050   9.349  17.164
39415W        W43376   9.822  10.729  17.975
39416W        W43377   9.718   8.468  17.528
39417W        W43378   9.995  10.522  15.933
39418W        W43379   8.997  10.242  17.256
39419W        W43380   8.482  10.597  16.525
39420W        W43381  10.287   9.768  16.944
39421W        W43382   9.337   9.840  18.081
39422W        W43383   7.942   9.793  16.420
39423W        W43384  10.288   9.552  16.065
39424W        W43385   9.929  10.618  16.816
39425W        W43386   7.907  10.347  16.686
39426W        W43387   8.928   8.399  17.896
39427W        W43388   9.379  10.565  15.407
39428W        W43389   8.687   9.820  18.045
39429W        W43390   8.813  10.058  15.422
39430W        W43391   8.034   8.798  14.681
39431W        W43392   7.373  10.884  21.580
39432W        W43393   7.749   9.777  21.103
39433W        W43394  10.454   9.507  18.873
39434W        W43395  10.584  10.592  20.900
39435W        W43396   8.502  10.583  18.426
39436W        W43397   8.585   8.735  19.409
39437W        W43398   8.100   8.583  19.573
39438W        W43399   9.091   9.398  19.007
39439W        W43400   8.766  10.490  21.362
39440W        W43401   7.415   8.051  21.325
39441W        W43402   8.177   7.331  21.127
39442W        W43403   9.871   7.719  20.014
39443W        W43404   9.520   8.590  18.584
39444W        W43405  10.090   8.024  21.675
39445W        W43406   7.456   7.816  20.800
39446W        W43407   7.555  10.435  21.821
39447W        W43408   9.077   9.825  18.553
39448W        W43409   7.509   8.608  20.246
39449W        W43410   8.402   8.499  21.483
39450W        W43411  10.861   8.358  19.982
39451W        W43412  10.625   9.401  20.841
39452W        W43413   8.933   8.734  19.868
39453W        W43414   9.479  10.073  20.237
39454W        W43415   7.979   9.507  20.469
39455W        W43416   7.338   9.035  20.040
39456W        W43417   8.374   9.007  21.232
39457W        W43418  10.645   8.790  21.486
39458W        W43419   8.261  10.234  19.931
39459W        W43420   9.382   9.923  21.065
39460W        W43421   8.602   8.563  20.290
39461W        W43422   8.894   9.347  19.933
39462W        W43423   9.891  10.120  21.781
39463W        W43424   8.970   9.440  21.791
39464W        W43425   8.951   9.156  21.269
39465W        W43426   7.360   8.547  21.791
39466W        W43427  10.192  10.082  21.390
39467W        W43428   7.773   7.664  19.388
39468W        W43429   8.300   9.922  20.387
39469W        W43430  10.763   9.705  19.677
39470W        W43431  10.176   8.105  20.244
39471W        W43432  10.461   8.058  18.339
39472W        W43433  10.926   8.859  20.645
39473W        W43434   8.893  10.566  20.398
39474W        W43435  10.667  10.032  18.836
39475W        W43436   7.796  10.818  18.590
39476W        W43437   8.189  10.864  19.266
39477W        W43438   7.986   7.618  20.692
39478W        W43439  10.609   8.636  20.967
39479W        W43440  10.014   9.058  19.426
39480W        W43441   9.980   8.746  18.453
39481W        W43442   9.188   9.890  20.593
39482W        W43443   8.994   8.220  19.792
39483W        W43444   9.594  10.307  20.786
39484W        W43445  10.465   9.098  19.208
39485W        W43446   9.367   7.756  19.224
39486W        W43447   8.024  10.450  18.907
39487W        W43448   7.395   7.949  19.506
39488W        W43449  10.181   8.556  19.980
39489W        W43450   7.639  10.173  19.895
39490W        W43451   8.980  10.523  18.765
39491W        W43452  10.372   8.549  18.229
39492W        W43453   7.395  10.307  20.393
39493W        W43454   8.186   9.879  20.873
39494W        W43455   8.559   9.239  19.492
39495W        W43456   8.581   7.644  20.585
39496W        W43457  10.810   7.406  19.882
39497W        W43458   8.029   9.278  18.350
39498W        W43459   7.684   8.311  18.529
39499W        W43460   7.746  10.267  19.323
39500W        W43461   8.877   9.750  19.571
39501W        W43462  10.209  10.609  21.285
39502W        W43463   9.135   8.251  18.969
39503W        W43464  10.518  10.649  19.741
39504W        W43465  10.195   8.502  21.339
39505W        W43466  10.908  10.158  19.473
39506W        W43467   9.535   9.450  20.957
39507W        W43468   7.301   9.001  19.163
39508W        W43469   8.412   9.416  20.736
39509W        W43470   9.616   8.680  19.114
39510W        W43471   9.493   9.170  19.218
39511W        W43472   7.836   8.590  20.692
39512W        W43473   7.821   8.466  21.614
39513W        W43474   7.711   7.383  19.773
39514W        W43475   9.479   7.730  20.334
39515W        W43476   9.127   7.915  21.497
39516W        W43477   9.482   8.064  18.675
39517W        W43478  10.665  10.457  21.429
39518W        W43479   9.632   7.538  21.468
39519W        W43480  10.651   9.839  21.590
39520W        W43481  10.081   8.006  21.186
39521W        W43482   9.881   7.944  19.456
39522W        W43483  10.274   9.078  21.860
39523W        W43484   8.014  10.654  19.846
39524W        W43485   8.672   8.371  18.832
39525W        W43486   8.241   7.655  21.496
39526W        W43487  10.293   8.139  19.177
39527W        W43488  10.660   8.621  19.122
39528W        W43489   8.403  10.838  21.593
39529W        W43490   8.329   7.374  18.828
39530W        W43491  10.650   7.908  19.863
39531W        W43492  10.800  10.157  18.308
39532W        W43493   7.707   9.360  20.010
39533W        W43494   9.624   7.947  18.240
39534W        W43495  10.758  10.279  19.960
39535W        W43496  10.797   7.473  20.710
39536W        W43497   9.242   8.685  21.264
39537W        W43498   9.335  10.024  18.967
39538W        W43499   9.735   9.318  21.707
39539W        W43500   9.409   7.295  20.016
39540W        W43501   8.021   8.198  20.079
39541W        W43502   7.575   9.398  20.853
39542W        W43503   9.434  10.591  19.559
39543W        W43504  10.628   8.188  20.431
39544W        W43505   9.265  10.535  21.198
39545W        W43506  10.608   9.594  18.403
39546W        W43507   9.043   9.077  19.464
39547W        W43508  10.895   7.588  21.205
39548W        W43509   9.044   9.423  20.799
39549W        W43510   9.261   8.309  20.244
39550W        W43511  10.113   8.607  19.082
39551W        W43512  10.400   8.340  18.724
39552W        W43513  10.209  10.380  19.113
39553W        W43514  10.043   9.983  19.909
39554W        W43515   9.939   9.062  18.887
39555W        W43516   9.372   9.272  19.873
39556W        W43517  10.253   9.060  19.940
39557W        W43518   7.628   8.075  20.364
39558W        W43519  10.406   9.127  21.191
39559W        W43520  10.757  10.745  20.337
39560W        W43521   8.687  10.189  19.739
39561W        W43522   9.694  10.722  21.063
39562W        W43523   9.688   8.052  20.827
39563W        W43524   8.895  10.760  20.888
39564W        W43525  10.592   7.714  19.354
39565W        W43526  10.383   9.033  20.655
39566W        W43527   7.366   8.354  20.693
39567W        W43528  10.226   8.149  19.711
39568W        W43529  10.637   8.300  21.488
39569W        W43530   9.522   9.999  19.706
39570W        W43531   8.778  10.590  19.319
39571W        W43532   7.893   7.770  18.577
39572W        W43533   8.997   7.424  20.387
39573W        W43534   8.025  10.544  18.235
39574W        W43535   8.399   9.010  18.986
39575W        W43536   9.053   9.639  21.299
39576W        W43537   8.883   7.997  19.289
39577W        W43538  10.239   7.594  19.717
39578W        W43539   9.959  10.876  20.045
39579W        W43540   9.371  10.524  20.385
39580W        W43541   8.767   9.561  20.346
39581W        W43542  10.537  10.284  20.472
39582W        W43543   8.231   7.787  19.241
39583W        W43544   8.753  10.084  20.201
39584W        W43545   8.236   8.015  18.266
39585W        W43546   9.037   8.624  20.660
39586W        W43547   9.885   7.490  20.530
39587W        W43548   7.305   9.333  20.415
39588W        W43549   9.009   9.151  18.573
39589W        W43550   8.277   7.466  18.343
39590W        W43551   9.015   8.547  19.394
39591W        W43552   9.985   7.523  21.093
39592W        W43553   8.573   9.535  21.202
39593W        W43554   9.377   9.317  21.419
39594W        W43555   9.994   9.347  21.312
39595W        W43556   9.278   7.487  21.817
39596W        W43557   8.500   8.103  20.210
39597W        W43558   7.926   8.059  19.608
39598W        W43559   7.712  10.771  19.284
39599W        W43560   9.044  10.101  21.409
39600W        W43561   8.079   9.586  18.768
39601W        W43562   9.759   8.971  19.989
39602W        W43563  10.039   8.770  20.388
39603W        W43564   9.244   9.444  20.322
39604W        W43565   9.714   9.818  18.454
39605W        W43566   9.386   7.839  19.782
39606W        W43567  10.865   8.117  19.050
39607W        W43568   7.359  10.706  21.081
39608W        W43569   7.776   9.932  20.613
39609W        W43570   7.343  10.778  18.845
39610W        W43571   9.242   8.048  20.651
39611W        W43572   8.605  10.071  18.500
39612W        W43573  10.510  10.453  18.686
39613W        W43574   9.485   9.106  18.700
39614W        W43575   8.328   8.297  19.217
39615W        W43576   9.160   8.207  18.269
39616W        W43577   9.744   9.772  21.447
39617W        W43578  10.097   7.678  19.064
39618W        W43579   7.427   7.526  18.512
39619W        W43580   8.713   9.845  20.802
39620W        W43581   8.512   9.761  19.894
39621W        W43582   8.254   9.713  18.292
39622W        W43583   7.495   9.954  19.060
39623W        W43584   7.999   9.024  21.502
39624W        W43585   8.703   7.584  21.688
39625W        W43586   9.412   7.726  21.044
39626W        W43587   8.607   7.494  19.325
39627W        W43588   9.666   7.571  18.830
39628W        W43589   7.611   7.503  20.407
39629W        W43590   7.659   8.466  19.777
39630W        W43591  10.348   7.574  20.183
39631W        W43592   7.770   8.072  18.997
39632W        W43593  10.341   7.760  20.613
39633W        W43594  10.737   8.963  18.298
39634W        W43595   8.029   7.721  20.117
39635W        W43596   9.143   8.293  21.057
39636W        W43597   7.291   7.983  18.535
39637W        W43598   8.077   9.372  21.096
39638W        W43599   9.435   8.770  20.275
39639W        W43600   9.302  10.849  18.571
39640W        W43601   7.448   9.356  18.268
39641W        W43602   8.183   9.767  21.394
39642W        W43603   7.704   8.934  21.025
39643W        W43604   8.695   9.039  20.819
39644W        W43605  10.463   7.398  21.081
39645W        W43606  10.861   9.008  21.072
39646W        W43607  10.849   9.208  18.758
39647W        W43608   9.712   9.540  18.857
39648W        W43609  10.186  10.840  18.552
39649W        W43610   9.363   8.830  21.694
39650W        W43611   7.693   9.797  21.734
39651W        W43612  10.899   7.719  21.686
39652W        W43613  10.617   8.647  20.307
39653W        W43614   8.925  10.777  21.784
39654W        W43615   8.780   7.406  18.511
39655W        W43616  10.319  10.005  18.454
39656W        W43617   8.088   8.098  21.340
39657W        W43618   8.522  10.092  21.202
39658W        W43619  10.648   8.083  21.000
39659W        W43620   9.859  10.742  18.968
39660W        W43621  10.098   9.361  20.335
39661W        W43622   8.348   7.777  21.002
39662W        W43623   8.817   8.846  21.759
39663W        W43624   8.320  10.025  18.953
39664W        W43625  10.075   9.523  19.217
39665W        W43626   7.843   8.149  20.941
39666W        W43627   9.172  10.211  19.405
39667W        W43628  10.922   8.771  19.586
39668W        W43629   9.144   7.404  21.305
39669W        W43630   9.924  10.109  20.384
39670W        W43631  10.227  10.453  20.092
39671W        W43632   9.446  10.255  18.520
39672W        W43633   7.456  10.147  21.362
39673W        W43634   8.199   8.139  20.600
39674W        W43635   8.169   7.487  19.710
39675W        W43636   9.790   8.329  20.402
39676W        W43637   8.588   9.500  18.602
39677W        W43638  10.586   9.442  20.101
39678W        W43639   7.913  10.200  21.524
39679W        W43640  10.300  10.882  19.321
39680W        W43641   8.399   7.902  19.766
39681W        W43642   8.168   9.395  19.856
39682W        W43643   8.481  10.806  20.606
39683W        W43644  10.548  10.902  21.638
39684W        W43645   9.707   9.090  20.571
39685W        W43646   7.556   8.888  18.486
39686W        W43647  10.690  10.546  19.183
39687W        W43648  10.527   7.870  18.802
39688W        W43649   8.666   7.389  21.205
39689W        W43650  10.372  10.191  19.663
39690W        W43651  10.401   8.747  19.568
39691W        W43652   8.518   8.420  19.784
39692W        W43653   8.763   8.682  21.108
39693W        W43654   9.874   9.835  20.971
39694W        W43655   8.524   8.289  21.083
39695W        W43656   8.503  10.755  19.699
39696W        W43657   7.820  10.714  21.333
39697W        W43658   7.932  10.075  18.463
39698W        W43659  10.449   9.833  19.273
39699W        W43660   8.053   8.625  21.159
39700W        W43661  10.826   8.555  18.640
39701W        W43662   8.571   9.612  19.111
39702W        W43663   9.670   8.994  21.192
39703W        W43664   9.561   8.622  20.736
39704W        W43665   8.121   8.994  20.765
39705W        W43666  10.331  10.882  20.594
39706W        W43667  10.122   7.516  21.588
39707W        W43668   7.786   7.666  21.175
39708W        W43669   8.125   8.689  20.228
39709W        W43670   8.494   8.503  18.350
39710W        W43671   7.297  10.262  20.895
39711W        W43672   8.882   8.971  20.338
39712W        W43673   8.705   7.996  18.443
39713W        W43674   7.840   8.812  19.224
39714W        W43675   7.611  10.664  20.661
39715W        W43676  10.406   8.890  18.769
39716W        W43677  10.501   7.806  21.455
39717W        W43678   9.937  10.015  19.418
39718W        W43679   7.535   8.939  21.595
39719W        W43680  10.501   7.403  18.891
39720W        W43681  10.021   9.878  18.902
39721W        W43682   8.923   8.936  18.987
39722W        W43683  10.110   7.740  18.510
39723W        W43684  10.175   8.347  20.696
39724W        W43685   7.884   8.940  19.903
39725W        W43686   8.178   9.879  19.552
39726W        W43687   9.941   8.499  19.517
39727W        W43688   8.964   7.878  20.213
39728W        W43689  10.926   9.789  20.724
39729W        W43690  10.844   7.776  20.285
39730W        W43691   7.383  10.606  19.661
39731W        W43692   7.892   9.793  19.197
39732W        W43693   7.807   7.410  21.750
39733W        W43694   8.926  10.263  21.852
39734W        W43695  10.681   9.231  19.642
39735W        W43696  10.035   9.408  18.522
39736W        W43697   9.330  10.929  20.734
39737W        W43698  10.187   9.651  21.771
39738W        W43699   9.002   7.361  19.051
39739W        W43700   9.715   8.230  19.910
39740W        W43701   7.401   9.817  20.242
39741W        W43702   8.654   7.779  18.883
39742W        W43703   8.458   9.263  21.732
39743W        W43704   9.452   8.244  19.446
39744W        W43705   9.657   9.654  20.568
39745W        W43706   7.811  10.259  21.003
39746W        W43707   8.402  10.242  21.726
39747W        W43708   8.253   8.039  18.740
39748W        W43709   9.770   8.181  19.065
39749W        W43710   9.728  10.289  21.302
39750W        W43711   8.413   8.881  19.901
39751W        W43712   8.068  10.579  20.766
39752W        W43713  10.813  10.696  18.367
39753W        W43714   7.676   9.368  21.363
39754W        W43715   9.671   9.630  20.051
39755W        W43716   8.107   9.279  19.293
39756W        W43717   8.478  10.286  20.688
39757W        W43718   8.856   7.705  19.729
39758W        W43719   7.467   9.689  18.659
39759W        W43720   8.986   8.640  18.529
39760W        W43721   7.632   9.189  19.548
39761W        W43722   8.922   7.831  21.012
39762W        W43723  10.594   7.540  18.439
39763W        W43724  10.687   9.286  21.538
39764W        W43725   9.341  10.543  21.690
39765W        W43726  10.899   9.637  21.212
39766W        W43727  10.307  10.435  21.823
39767W        W43728   8.046  10.891  20.301
39768W        W43729  10.905   9.513  19.175
39769W        W43730   9.435   8.780  19.688
39770W        W43731   9.202   7.392  19.578
39771W        W43732   8.261  10.376  19.415
39772W        W43733   8.760   8.117  20.640
39773W        W43734   8.460   7.486  20.109
39774W        W43735   7.523  10.308  18.657
39775W        W43736   9.339   9.672  19.375
39776W        W43737   8.214  10.467  21.254
39777W        W43738   7.691   9.290  18.950
39778W        W43739   7.576   7.833  19.949
39779W        W43740   9.124   9.798  20.006
39780W        W43741   7.376   7.652  19.026
39781W        W43742  10.040   8.858  20.953
39782W        W43743   9.917   8.244  18.525
39783W        W43744  10.434   9.916  20.173
39784W        W43745   9.095  10.400  20.004
39785W        W43746   8.507  10.504  18.915
39786W        W43747   9.789   7.407  18.345
39787W        W43748   7.589  10.667  20.086
39788W        W43749   9.786   8.425  21.721
39789W        W43750   7.769   7.955  21.720
39790W        W43751   7.500   8.555  19.053
39791W        W43752   8.191   8.544  18.778
39792W        W43753   9.954   8.871  21.595
39793W        W43754   8.297   9.152  20.304
39794W        W43755   9.771   7.438  19.424
39795W        W43756   8.902  10.869  19.927
39796W        W43757  10.116  10.331  20.864
39797W        W43758   9.700  10.480  19.975
39798W        W43759   9.719   9.460  19.569
39799W        W43760   9.181   7.685  18.640
39800W        W43761  10.862   7.313  19.362
39801W        W43762   8.550   8.948  18.525
39802W        W43763  10.716   8.285  19.515
39803W        W43764   9.408   9.455  18.392
39804W        W43765  10.344   9.655  21.140
39805W        W43766   9.998  10.356  18.607
39806W        W43767   8.613   8.031  21.513
39807W        W43768   8.433   8.615  20.754
39808W        W43769  10.525  10.110  21.031
39809W        W43770   9.625   8.060  21.408
39810W        W43771   7.469   8.531  21.185
39811W        W43772   9.229   9.008  20.911
39812W        W43773   7.586   9.766  19.568
39813W        W43774   7.733   9.063  20.458
39814W        W43775  10.050   9.349  20.808
39815W        W43776   9.822  10.729  21.619
39816W        W43777   9.718   8.468  21.172
39817W        W43778   9.995  10.522  19.577
39818W        W43779   8.997  10.242  20.900
39819W        W43780   8.482  10.597  20.169
39820W        W43781  10.287   9.768  20.588
39821W        W43782   9.337   9.840  21.725
39822W        W43783   7.942   9.793  20.064
39823W        W43784  10.288   9.552  19.709
39824W        W43785   9.929  10.618  20.460
39825W        W43786   7.907  10.347  20.330
39826W        W43787   8.928   8.399  21.540
39827W        W43788   9.379  10.565  19.051
39828W        W43789   8.687   9.820  21.689
39829W        W43790   8.813  10.058  19.066
39830W        W43791   8.034   8.798  18.325
39831W        W43792  10.454   9.507  22.518
39832W        W43793   8.502  10.583  22.071
39833W        W43794   8.585   8.735  23.054
39834W        W43795   8.100   8.583  23.218
39835W        W43796   9.091   9.398  22.652
39836W        W43797   9.520   8.590  22.229
39837W        W43798   9.077   9.825  22.198
39838W        W43799   7.773   7.664  23.033
39839W        W43800  10.461   8.058  21.984
39840W        W43801  10.667  10.032  22.481
39841W        W43802   7.796  10.818  22.235
39842W        W43803   8.189  10.864  22.911
39843W        W43804  10.014   9.058  23.071
39844W        W43805   9.980   8.746  22.098
39845W        W43806  10.465   9.098  22.853
39846W        W43807   9.367   7.756  22.869
39847W        W43808   8.024  10.450  22.552
39848W        W43809   8.980  10.523  22.410
39849W        W43810  10.372   8.549  21.874
39850W        W43811   8.559   9.239  23.137
39851W        W43812   8.029   9.278  21.995
39852W        W43813   7.684   8.311  22.174
39853W        W43814   7.746  10.267  22.968
39854W        W43815   8.877   9.750  23.216
39855W        W43816   9.135   8.251  22.614
39856W        W43817   7.301   9.001  22.808
39857W        W43818   9.616   8.680  22.759
39858W        W43819   9.493   9.170  22.863
39859W        W43820   9.482   8.064  22.320
39860W        W43821   9.881   7.944  23.101
39861W        W43822   8.672   8.371  22.477
39862W        W43823  10.293   8.139  22.822
39863W        W43824  10.660   8.621  22.767
39864W        W43825   8.329   7.374  22.473
39865W        W43826  10.800  10.157  21.953
39866W        W43827   9.624   7.947  21.885
39867W        W43828   9.335  10.024  22.612
39868W        W43829   9.434  10.591  23.204
39869W        W43830  10.608   9.594  22.048
39870W        W43831   9.043   9.077  23.109
39871W        W43832  10.113   8.607  22.727
39872W        W43833  10.400   8.340  22.369
39873W        W43834  10.209  10.380  22.758
39874W        W43835   9.939   9.062  22.532
39875W        W43836  10.592   7.714  22.999
39876W        W43837   8.778  10.590  22.964
39877W        W43838   7.893   7.770  22.222
39878W        W43839   8.025  10.544  21.880
39879W        W43840   8.399   9.010  22.631
39880W        W43841   8.883   7.997  22.934
39881W        W43842   8.231   7.787  22.886
39882W        W43843   8.236   8.015  21.911
39883W        W43844   9.009   9.151  22.218
39884W        W43845   8.277   7.466  21.988
39885W        W43846   9.015   8.547  23.039
39886W        W43847   7.926   8.059  23.253
39887W        W43848   7.712  10.771  22.929
39888W        W43849   8.079   9.586  22.413
39889W        W43850   9.714   9.818  22.099
39890W        W43851  10.865   8.117  22.695
39891W        W43852   7.343  10.778  22.490
39892W        W43853   8.605  10.071  22.145
39893W        W43854  10.510  10.453  22.331
39894W        W43855   9.485   9.106  22.345
39895W        W43856   8.328   8.297  22.862
39896W        W43857   9.160   8.207  21.914
39897W        W43858  10.097   7.678  22.709
39898W        W43859   7.427   7.526  22.157
39899W        W43860   8.254   9.713  21.937
39900W        W43861   7.495   9.954  22.705
39901W        W43862   8.607   7.494  22.970
39902W        W43863   9.666   7.571  22.475
39903W        W43864   7.770   8.072  22.642
39904W        W43865  10.737   8.963  21.943
39905W        W43866   7.291   7.983  22.180
39906W        W43867   9.302  10.849  22.216
39907W        W43868   7.448   9.356  21.913
39908W        W43869  10.849   9.208  22.403
39909W        W43870   9.712   9.540  22.502
39910W        W43871  10.186  10.840  22.197
39911W        W43872   8.780   7.406  22.156
39912W        W43873  10.319  10.005  22.099
39913W        W43874   9.859  10.742  22.613
39914W        W43875   8.320  10.025  22.598
39915W        W43876  10.075   9.523  22.862
39916W        W43877   9.172  10.211  23.050
39917W        W43878  10.922   8.771  23.231
39918W        W43879   9.446  10.255  22.165
39919W        W43880   8.588   9.500  22.247
39920W        W43881  10.300  10.882  22.966
39921W        W43882   7.556   8.888  22.131
39922W        W43883  10.690  10.546  22.828
39923W        W43884  10.527   7.870  22.447
39924W        W43885  10.401   8.747  23.213
39925W        W43886   7.932  10.075  22.108
39926W        W43887  10.449   9.833  22.918
39927W        W43888  10.826   8.555  22.285
39928W        W43889   8.571   9.612  22.756
39929W        W43890   8.494   8.503  21.995
39930W        W43891   8.705   7.996  22.088
39931W        W43892   7.840   8.812  22.869
39932W        W43893  10.406   8.890  22.414
39933W        W43894   9.937  10.015  23.063
39934W        W43895  10.501   7.403  22.536
39935W        W43896  10.021   9.878  22.547
39936W        W43897   8.923   8.936  22.632
39937W        W43898  10.110   7.740  22.155
39938W        W43899   8.178   9.879  23.197
39939W        W43900   9.941   8.499  23.162
39940W        W43901   7.383  10.606  23.306
39941W        W43902   7.892   9.793  22.842
39942W        W43903  10.681   9.231  23.287
39943W        W43904  10.035   9.408  22.167
39944W        W43905   9.002   7.361  22.696
39945W        W43906   8.654   7.779  22.528
39946W        W43907   9.452   8.244  23.091
39947W        W43908   8.253   8.039  22.385
39948W        W43909   9.770   8.181  22.710
39949W        W43910  10.813  10.696  22.012
39950W        W43911   7.467   9.689  22.304
39951W        W43912   8.986   8.640  22.174
39952W        W43913   7.632   9.189  23.193
39953W        W43914  10.594   7.540  22.084
39954W        W43915  10.905   9.513  22.820
39955W        W43916   9.202   7.392  23.223
39956W        W43917   8.261  10.376  23.060
39957W        W43918   7.523  10.308  22.302
39958W        W43919   9.339   9.672  23.020
39959W        W43920   7.691   9.290  22.595
39960W        W43921   7.376   7.652  22.671
39961W        W43922   9.917   8.244  22.170
39962W        W43923   8.507  10.504  22.560
39963W        W43924   9.789   7.407  21.990
39964W        W43925   7.500   8.555  22.698
39965W        W43926   8.191   8.544  22.423
39966W        W43927   9.719   9.460  23.214
39967W        W43928   9.181   7.685  22.285
39968W        W43929  10.862   7.313  23.007
39969W        W43930   8.550   8.948  22.170
39970W        W43931  10.716   8.285  23.160
39971W        W43932   9.408   9.455  22.037
39972W        W43933   9.998  10.356  22.252
39973W        W43934   7.586   9.766  23.213
39974W        W43935   9.995  10.522  23.222
39975W        W43936   9.379  10.565  22.696
39976W        W43937   8.813  10.058  22.711
39977W        W43938   8.034   8.798  21.970
39978W        W43939   7.373  14.528   3.359
39979W        W43940   7.749  13.421   2.882
39980W        W43941  10.454  13.151   0.652
39981W        W43942  10.584  14.236   2.679
39982W        W43943   8.502  14.227   0.205
39983W        W43944   8.585  12.379   1.188
39984W        W43945   8.100  12.227   1.352
39985W        W43946   9.091  13.042   0.786
39986W        W43947   8.766  14.134   3.141
39987W        W43948   7.415  11.695   3.104
39988W        W43949   8.177  10.975   2.906
39989W        W43950   9.871  11.363   1.793
39990W        W43951   9.520  12.234   0.363
39991W        W43952  10.090  11.668   3.454
39992W        W43953   7.555  14.079   3.600
39993W        W43954   9.077  13.469   0.332
39994W        W43955   7.509  12.252   2.025
39995W        W43956   8.402  12.143   3.262
39996W        W43957  10.861  12.002   1.761
39997W        W43958  10.625  13.045   2.620
39998W        W43959   8.933  12.378   1.647
39999W        W43960   9.479  13.717   2.016
40000W        W43961   7.979  13.151   2.248
40001W        W43962   7.338  12.679   1.819
40002W        W43963   8.374  12.651   3.011
40003W        W43964  10.645  12.434   3.265
40004W        W43965   8.261  13.878   1.710
40005W        W43966   9.382  13.567   2.844
40006W        W43967   8.602  12.207   2.069
40007W        W43968   8.894  12.991   1.712
40008W        W43969   9.891  13.764   3.560
40009W        W43970   8.970  13.084   3.570
40010W        W43971   8.951  12.800   3.048
40011W        W43972   7.360  12.191   3.570
40012W        W43973  10.192  13.726   3.169
40013W        W43974   7.773  11.308   1.167
40014W        W43975   8.300  13.566   2.166
40015W        W43976  10.763  13.349   1.456
40016W        W43977  10.176  11.749   2.023
40017W        W43978  10.926  12.503   2.424
40018W        W43979   8.893  14.210   2.177
40019W        W43980  10.667  13.676   0.615
40020W        W43981   7.796  14.462   0.369
40021W        W43982   8.189  14.508   1.045
40022W        W43983   7.986  11.262   2.471
40023W        W43984  10.609  12.280   2.746
40024W        W43985  10.014  12.702   1.205
40025W        W43986   9.980  12.390   0.232
40026W        W43987   9.188  13.534   2.372
40027W        W43988   8.994  11.864   1.571
40028W        W43989   9.594  13.951   2.565
40029W        W43990  10.465  12.742   0.987
40030W        W43991   9.367  11.400   1.003
40031W        W43992   8.024  14.094   0.686
40032W        W43993   7.395  11.593   1.285
40033W        W43994  10.181  12.200   1.759
40034W        W43995   7.639  13.817   1.674
40035W        W43996   8.980  14.167   0.544
40036W        W43997  10.372  12.193   0.008
40037W        W43998   7.395  13.951   2.172
40038W        W43999   8.186  13.523   2.652
40039W        W44000   8.559  12.883   1.271
40040W        W44001   8.581  11.288   2.364
40041W        W44002  10.810  11.050   1.661
40042W        W44003   8.029  12.922   0.129
40043W        W44004   7.684  11.955   0.308
40044W        W44005   7.746  13.911   1.102
40045W        W44006   8.877  13.394   1.350
40046W        W44007  10.209  14.253   3.064
40047W        W44008   9.135  11.895   0.748
40048W        W44009  10.518  14.293   1.520
40049W        W44010  10.195  12.146   3.118
40050W        W44011  10.908  13.802   1.252
40051W        W44012   9.535  13.094   2.736
40052W        W44013   7.301  12.645   0.942
40053W        W44014   8.412  13.060   2.515
40054W        W44015   9.616  12.324   0.893
40055W        W44016   9.493  12.814   0.997
40056W        W44017   7.836  12.234   2.471
40057W        W44018   7.821  12.110   3.393
40058W        W44019   7.711  11.027   1.552
40059W        W44020   9.479  11.374   2.113
40060W        W44021   9.127  11.559   3.276
40061W        W44022   9.482  11.708   0.454
40062W        W44023  10.665  14.101   3.208
40063W        W44024   9.632  11.182   3.247
40064W        W44025  10.651  13.483   3.369
40065W        W44026  10.081  11.650   2.965
40066W        W44027   9.881  11.588   1.235
40067W        W44028  10.274  12.722   3.639
40068W        W44029   8.014  14.298   1.625
40069W        W44030   8.672  12.015   0.611
40070W        W44031   8.241  11.299   3.275
40071W        W44032  10.293  11.783   0.956
40072W        W44033  10.660  12.265   0.901
40073W        W44034   8.403  14.482   3.372
40074W        W44035   8.329  11.018   0.607
40075W        W44036  10.650  11.552   1.642
40076W        W44037  10.800  13.801   0.087
40077W        W44038   7.707  13.004   1.789
40078W        W44039   9.624  11.591   0.019
40079W        W44040  10.758  13.923   1.739
40080W        W44041  10.797  11.117   2.489
40081W        W44042   9.242  12.329   3.043
40082W        W44043   9.335  13.668   0.746
40083W        W44044   9.735  12.962   3.486
40084W        W44045   9.409  10.939   1.795
40085W        W44046   8.021  11.842   1.858
40086W        W44047   7.575  13.042   2.632
40087W        W44048   9.434  14.235   1.338
40088W        W44049  10.628  11.832   2.210
40089W        W44050   9.265  14.179   2.977
40090W        W44051  10.608  13.238   0.182
40091W        W44052   9.043  12.721   1.243
40092W        W44053  10.895  11.232   2.984
40093W        W44054   9.044  13.067   2.578
40094W        W44055   9.261  11.953   2.023
40095W        W44056  10.113  12.251   0.861
40096W        W44057  10.400  11.984   0.503
40097W        W44058  10.209  14.024   0.892
40098W        W44059  10.043  13.627   1.688
40099W        W44060   9.939  12.706   0.666
40100W        W44061   9.372  12.916   1.652
40101W        W44062  10.253  12.704   1.719
40102W        W44063  10.406  12.771   2.970
40103W        W44064  10.757  14.389   2.116
40104W        W44065   8.687  13.833   1.518
40105W        W44066   9.694  14.366   2.842
40106W        W44067   9.688  11.696   2.606
40107W        W44068   8.895  14.404   2.667
40108W        W44069  10.592  11.358   1.133
40109W        W44070  10.383  12.677   2.434
40110W        W44071  10.226  11.793   1.490
40111W        W44072  10.637  11.944   3.267
40112W        W44073   9.522  13.643   1.485
40113W        W44074   8.778  14.234   1.098
40114W        W44075   7.893  11.414   0.356
40115W        W44076   8.997  11.068   2.166
40116W        W44077   8.025  14.188   0.014
40117W        W44078   8.399  12.654   0.765
40118W        W44079   9.053  13.283   3.078
40119W        W44080   8.883  11.641   1.068
40120W        W44081  10.239  11.238   1.496
40121W        W44082   9.959  14.520   1.824
40122W        W44083   9.371  14.168   2.164
40123W        W44084   8.767  13.205   2.125
40124W        W44085  10.537  13.928   2.251
40125W        W44086   8.231  11.431   1.020
40126W        W44087   8.753  13.728   1.980
40127W        W44088   8.236  11.659   0.045
40128W        W44089   9.037  12.268   2.439
40129W        W44090   9.885  11.134   2.309
40130W        W44091   7.305  12.977   2.194
40131W        W44092   9.009  12.795   0.352
40132W        W44093   8.277  11.110   0.122
40133W        W44094   9.015  12.191   1.173
40134W        W44095   9.985  11.167   2.872
40135W        W44096   8.573  13.179   2.981
40136W        W44097   9.377  12.961   3.198
40137W        W44098   9.994  12.991   3.091
40138W        W44099   9.278  11.131   3.596
40139W        W44100   8.500  11.747   1.989
40140W        W44101   7.926  11.703   1.387
40141W        W44102   7.712  14.415   1.063
40142W        W44103   9.044  13.745   3.188
40143W        W44104   8.079  13.230   0.547
40144W        W44105   9.759  12.615   1.768
40145W        W44106  10.039  12.414   2.167
40146W        W44107   9.244  13.088   2.101
40147W        W44108   9.714  13.462   0.233
40148W        W44109   9.386  11.483   1.561
40149W        W44110  10.865  11.761   0.829
40150W        W44111   7.359  14.350   2.860
40151W        W44112   7.776  13.576   2.392
40152W        W44113   7.343  14.422   0.624
40153W        W44114   9.242  11.692   2.430
40154W        W44115   8.605  13.715   0.279
40155W        W44116  10.510  14.097   0.465
40156W        W44117   9.485  12.750   0.479
40157W        W44118   8.328  11.941   0.996
40158W        W44119   9.160  11.851   0.048
40159W        W44120   9.744  13.416   3.226
40160W        W44121  10.097  11.322   0.843
40161W        W44122   7.427  11.170   0.291
40162W        W44123   8.713  13.489   2.581
40163W        W44124   8.512  13.405   1.673
40164W        W44125   8.254  13.357   0.071
40165W        W44126   7.495  13.598   0.839
40166W        W44127   7.999  12.668   3.281
40167W        W44128   8.703  11.228   3.467
40168W        W44129   9.412  11.370   2.823
40169W        W44130   8.607  11.138   1.104
40170W        W44131   9.666  11.215   0.609
40171W        W44132   7.611  11.147   2.186
40172W        W44133   7.659  12.110   1.556
40173W        W44134  10.348  11.218   1.962
40174W        W44135   7.770  11.716   0.776
40175W        W44136  10.341  11.404   2.392
40176W        W44137  10.737  12.607   0.077
40177W        W44138   8.029  11.365   1.896
40178W        W44139   9.143  11.937   2.836
40179W        W44140   7.291  11.627   0.314
40180W        W44141   8.077  13.016   2.875
40181W        W44142   9.435  12.414   2.054
40182W        W44143   9.302  14.493   0.350
40183W        W44144   7.448  13.000   0.047
40184W        W44145   8.183  13.411   3.173
40185W        W44146   7.704  12.578   2.804
40186W        W44147   8.695  12.683   2.598
40187W        W44148  10.463  11.042   2.860
40188W        W44149  10.861  12.652   2.851
40189W        W44150  10.849  12.852   0.537
40190W        W44151   9.712  13.184   0.636
40191W        W44152  10.186  14.484   0.331
40192W        W44153   9.363  12.474   3.473
40193W        W44154   7.693  13.441   3.513
40194W        W44155  10.899  11.363   3.465
40195W        W44156  10.617  12.291   2.086
40196W        W44157   8.925  14.421   3.563
40197W        W44158   8.780  11.050   0.290
40198W        W44159  10.319  13.649   0.233
40199W        W44160   8.088  11.742   3.119
40200W        W44161   8.522  13.736   2.981
40201W        W44162  10.648  11.727   2.779
40202W        W44163   9.859  14.386   0.747
40203W        W44164  10.098  13.005   2.114
40204W        W44165   8.348  11.421   2.781
40205W        W44166   8.817  12.490   3.538
40206W        W44167   8.320  13.669   0.732
40207W        W44168  10.075  13.167   0.996
40208W        W44169   7.843  11.793   2.720
40209W        W44170   9.172  13.855   1.184
40210W        W44171  10.922  12.415   1.365
40211W        W44172   9.144  11.048   3.084
40212W        W44173   9.924  13.753   2.163
40213W        W44174  10.227  14.097   1.871
40214W        W44175   9.446  13.899   0.299
40215W        W44176   7.456  13.791   3.141
40216W        W44177   8.199  11.783   2.379
40217W        W44178   8.169  11.131   1.489
40218W        W44179   9.790  11.973   2.181
40219W        W44180   8.588  13.144   0.381
40220W        W44181  10.586  13.086   1.880
40221W        W44182   7.913  13.844   3.303
40222W        W44183  10.300  14.526   1.100
40223W        W44184   8.399  11.546   1.545
40224W        W44185   8.168  13.039   1.635
40225W        W44186   8.481  14.450   2.385
40226W        W44187  10.548  14.546   3.417
40227W        W44188   9.707  12.734   2.350
40228W        W44189   7.556  12.532   0.265
40229W        W44190  10.690  14.190   0.962
40230W        W44191  10.527  11.514   0.581
40231W        W44192   8.666  11.033   2.984
40232W        W44193  10.372  13.835   1.442
40233W        W44194  10.401  12.391   1.347
40234W        W44195   8.518  12.064   1.563
40235W        W44196   8.763  12.326   2.887
40236W        W44197   9.874  13.479   2.750
40237W        W44198   8.524  11.933   2.862
40238W        W44199   8.503  14.399   1.478
40239W        W44200   7.820  14.358   3.112
40240W        W44201  10.449  13.477   1.052
40241W        W44202   8.053  12.269   2.938
40242W        W44203  10.826  12.199   0.419
40243W        W44204   8.571  13.256   0.890
40244W        W44205   9.670  12.638   2.971
40245W        W44206   9.561  12.266   2.515
40246W        W44207   8.121  12.638   2.544
40247W        W44208  10.331  14.526   2.373
40248W        W44209  10.122  11.160   3.367
40249W        W44210   7.786  11.310   2.954
40250W        W44211   8.125  12.333   2.007
40251W        W44212   8.494  12.147   0.129
40252W        W44213   7.297  13.906   2.674
40253W        W44214   8.882  12.615   2.117
40254W        W44215   8.705  11.640   0.222
40255W        W44216   7.840  12.456   1.003
40256W        W44217   7.611  14.308   2.440
40257W        W44218  10.406  12.534   0.548
40258W        W44219  10.501  11.450   3.234
40259W        W44220   9.937  13.659   1.197
40260W        W44221   7.535  12.583   3.374
40261W        W44222  10.501  11.047   0.670
40262W        W44223  10.021  13.522   0.681
40263W        W44224   8.923  12.580   0.766
40264W        W44225  10.175  11.991   2.475
40265W        W44226   7.884  12.584   1.682
40266W        W44227   8.178  13.523   1.331
40267W        W44228   9.941  12.143   1.296
40268W        W44229   8.964  11.522   1.992
40269W        W44230  10.926  13.433   2.503
40270W        W44231  10.844  11.420   2.064
40271W        W44232   7.383  14.250   1.440
40272W        W44233   7.892  13.437   0.976
40273W        W44234   7.807  11.054   3.529
40274W        W44235   8.926  13.907   3.631
40275W        W44236  10.681  12.875   1.421
40276W        W44237  10.035  13.052   0.301
40277W        W44238   9.330  14.573   2.513
40278W        W44239  10.187  13.295   3.550
40279W        W44240   9.002  11.005   0.830
40280W        W44241   9.715  11.874   1.689
40281W        W44242   7.401  13.461   2.021
40282W        W44243   8.654  11.423   0.662
40283W        W44244   8.458  12.907   3.511
40284W        W44245   9.452  11.888   1.225
40285W        W44246   9.657  13.298   2.347
40286W        W44247   7.811  13.903   2.782
40287W        W44248   8.402  13.886   3.505
40288W        W44249   8.253  11.683   0.519
40289W        W44250   9.770  11.825   0.844
40290W        W44251   9.728  13.933   3.081
40291W        W44252   8.413  12.525   1.680
40292W        W44253   8.068  14.223   2.545
40293W        W44254  10.813  14.340   0.146
40294W        W44255   7.676  13.012   3.142
40295W        W44256   9.671  13.274   1.830
40296W        W44257   8.107  12.923   1.072
40297W        W44258   8.478  13.930   2.467
40298W        W44259   8.856  11.349   1.508
40299W        W44260   8.986  12.284   0.308
40300W        W44261   7.632  12.833   1.327
40301W        W44262   8.922  11.475   2.791
40302W        W44263  10.594  11.184   0.218
40303W        W44264  10.687  12.930   3.317
40304W        W44265   9.341  14.187   3.469
40305W        W44266  10.899  13.281   2.991
40306W        W44267  10.307  14.079   3.602
40307W        W44268   8.046  14.535   2.080
40308W        W44269  10.905  13.157   0.954
40309W        W44270   9.435  12.424   1.467
40310W        W44271   9.202  11.036   1.357
40311W        W44272   8.261  14.020   1.194
40312W        W44273   8.760  11.761   2.419
40313W        W44274   8.460  11.130   1.888
40314W        W44275   7.523  13.952   0.436
40315W        W44276   9.339  13.316   1.154
40316W        W44277   8.214  14.111   3.033
40317W        W44278   7.691  12.934   0.729
40318W        W44279   7.576  11.477   1.728
40319W        W44280   9.124  13.442   1.785
40320W        W44281   7.376  11.296   0.805
40321W        W44282  10.040  12.502   2.732
40322W        W44283   9.917  11.888   0.304
40323W        W44284  10.434  13.560   1.952
40324W        W44285   9.095  14.044   1.783
40325W        W44286   8.507  14.148   0.694
40326W        W44287   9.789  11.051   0.124
40327W        W44288   7.589  14.311   1.865
40328W        W44289   9.786  12.069   3.500
40329W        W44290   7.769  11.599   3.499
40330W        W44291   7.500  12.199   0.832
40331W        W44292   8.191  12.188   0.557
40332W        W44293   9.954  12.515   3.374
40333W        W44294   8.297  12.796   2.083
40334W        W44295   9.771  11.082   1.203
40335W        W44296   8.902  14.513   1.706
40336W        W44297  10.116  13.975   2.643
40337W        W44298   9.700  14.124   1.754
40338W        W44299   9.719  13.104   1.348
40339W        W44300   9.181  11.329   0.419
40340W        W44301  10.862  10.957   1.141
40341W        W44302   8.550  12.592   0.304
40342W        W44303  10.716  11.929   1.294
40343W        W44304   9.408  13.099   0.171
40344W        W44305  10.344  13.299   2.919
40345W        W44306   9.998  14.000   0.386
40346W        W44307   8.613  11.675   3.292
40347W        W44308   8.433  12.259   2.533
40348W        W44309  10.525  13.754   2.810
40349W        W44310   9.625  11.704   3.187
40350W        W44311   7.469  12.175   2.964
40351W        W44312   9.229  12.652   2.690
40352W        W44313   7.586  13.410   1.347
40353W        W44314   7.733  12.707   2.237
40354W        W44315  10.050  12.993   2.587
40355W        W44316   9.822  14.373   3.398
40356W        W44317   9.718  12.112   2.951
40357W        W44318   9.995  14.166   1.356
40358W        W44319   8.997  13.886   2.679
40359W        W44320   8.482  14.241   1.948
40360W        W44321  10.287  13.412   2.367
40361W        W44322   9.337  13.484   3.504
40362W        W44323   7.942  13.437   1.843
40363W        W44324  10.288  13.196   1.488
40364W        W44325   9.929  14.262   2.239
40365W        W44326   7.907  13.991   2.109
40366W        W44327   8.928  12.043   3.319
40367W        W44328   9.379  14.209   0.830
40368W        W44329   8.687  13.464   3.468
40369W        W44330   8.813  13.702   0.845
40370W        W44331   8.034  12.442   0.104
40371W        W44332   7.373  14.528   7.003
40372W        W44333   7.749  13.421   6.526
40373W        W44334  10.454  13.151   4.296
40374W        W44335  10.584  14.236   6.323
40375W        W44336   8.502  14.227   3.849
40376W        W44337   8.585  12.379   4.832
40377W        W44338   8.100  12.227   4.996
40378W        W44339   9.091  13.042   4.430
40379W        W44340   8.766  14.134   6.785
40380W        W44341   7.415  11.695   6.748
40381W        W44342   8.177  10.975   6.550
40382W        W44343   9.871  11.363   5.437
40383W        W44344   9.520  12.234   4.007
40384W        W44345  10.090  11.668   7.098
40385W        W44346   7.456  11.460   6.223
40386W        W44347   7.555  14.079   7.244
40387W        W44348   9.077  13.469   3.976
40388W        W44349   7.509  12.252   5.669
40389W        W44350   8.402  12.143   6.906
40390W        W44351  10.861  12.002   5.405
40391W        W44352  10.625  13.045   6.264
40392W        W44353   8.933  12.378   5.291
40393W        W44354   9.479  13.717   5.660
40394W        W44355   7.979  13.151   5.892
40395W        W44356   7.338  12.679   5.463
40396W        W44357   8.374  12.651   6.655
40397W        W44358  10.645  12.434   6.909
40398W        W44359   8.261  13.878   5.354
40399W        W44360   9.382  13.567   6.488
40400W        W44361   8.602  12.207   5.713
40401W        W44362   8.894  12.991   5.356
40402W        W44363   9.891  13.764   7.204
40403W        W44364   8.970  13.084   7.214
40404W        W44365   8.951  12.800   6.692
40405W        W44366   7.360  12.191   7.214
40406W        W44367  10.192  13.726   6.813
40407W        W44368   7.773  11.308   4.811
40408W        W44369   8.300  13.566   5.810
40409W        W44370  10.763  13.349   5.100
40410W        W44371  10.176  11.749   5.667
40411W        W44372  10.461  11.702   3.762
40412W        W44373  10.926  12.503   6.068
40413W        W44374   8.893  14.210   5.821
40414W        W44375  10.667  13.676   4.259
40415W        W44376   7.796  14.462   4.013
40416W        W44377   8.189  14.508   4.689
40417W        W44378   7.986  11.262   6.115
40418W        W44379  10.609  12.280   6.390
40419W        W44380  10.014  12.702   4.849
40420W        W44381   9.980  12.390   3.876
40421W        W44382   9.188  13.534   6.016
40422W        W44383   8.994  11.864   5.215
40423W        W44384   9.594  13.951   6.209
40424W        W44385  10.465  12.742   4.631
40425W        W44386   9.367  11.400   4.647
40426W        W44387   8.024  14.094   4.330
40427W        W44388   7.395  11.593   4.929
40428W        W44389  10.181  12.200   5.403
40429W        W44390   7.639  13.817   5.318
40430W        W44391   8.980  14.167   4.188
40431W        W44392  10.372  12.193   3.652
40432W        W44393   7.395  13.951   5.816
40433W        W44394   8.186  13.523   6.296
40434W        W44395   8.559  12.883   4.915
40435W        W44396   8.581  11.288   6.008
40436W        W44397  10.810  11.050   5.305
40437W        W44398   8.029  12.922   3.773
40438W        W44399   7.684  11.955   3.952
40439W        W44400   7.746  13.911   4.746
40440W        W44401   8.877  13.394   4.994
40441W        W44402  10.209  14.253   6.708
40442W        W44403   9.135  11.895   4.392
40443W        W44404  10.518  14.293   5.164
40444W        W44405  10.195  12.146   6.762
40445W        W44406  10.908  13.802   4.896
40446W        W44407   9.535  13.094   6.380
40447W        W44408   7.301  12.645   4.586
40448W        W44409   8.412  13.060   6.159
40449W        W44410   9.616  12.324   4.537
40450W        W44411   9.493  12.814   4.641
40451W        W44412   7.836  12.234   6.115
40452W        W44413   7.821  12.110   7.037
40453W        W44414   7.711  11.027   5.196
40454W        W44415   9.479  11.374   5.757
40455W        W44416   9.127  11.559   6.920
40456W        W44417   9.482  11.708   4.098
40457W        W44418  10.665  14.101   6.852
40458W        W44419   9.632  11.182   6.891
40459W        W44420  10.651  13.483   7.013
40460W        W44421  10.081  11.650   6.609
40461W        W44422   9.881  11.588   4.879
40462W        W44423  10.274  12.722   7.283
40463W        W44424   8.014  14.298   5.269
40464W        W44425   8.672  12.015   4.255
40465W        W44426   8.241  11.299   6.919
40466W        W44427  10.293  11.783   4.600
40467W        W44428  10.660  12.265   4.545
40468W        W44429   8.403  14.482   7.016
40469W        W44430   8.329  11.018   4.251
40470W        W44431  10.650  11.552   5.286
40471W        W44432  10.800  13.801   3.731
40472W        W44433   7.707  13.004   5.433
40473W        W44434   9.624  11.591   3.663
40474W        W44435  10.758  13.923   5.383
40475W        W44436  10.797  11.117   6.133
40476W        W44437   9.242  12.329   6.687
40477W        W44438   9.335  13.668   4.390
40478W        W44439   9.735  12.962   7.130
40479W        W44440   9.409  10.939   5.439
40480W        W44441   8.021  11.842   5.502
40481W        W44442   7.575  13.042   6.276
40482W        W44443   9.434  14.235   4.982
40483W        W44444  10.628  11.832   5.854
40484W        W44445   9.265  14.179   6.621
40485W        W44446  10.608  13.238   3.826
40486W        W44447   9.043  12.721   4.887
40487W        W44448  10.895  11.232   6.628
40488W        W44449   9.044  13.067   6.222
40489W        W44450   9.261  11.953   5.667
40490W        W44451  10.113  12.251   4.505
40491W        W44452  10.400  11.984   4.147
40492W        W44453  10.209  14.024   4.536
40493W        W44454  10.043  13.627   5.332
40494W        W44455   9.939  12.706   4.310
40495W        W44456   9.372  12.916   5.296
40496W        W44457  10.253  12.704   5.363
40497W        W44458   7.628  11.719   5.787
40498W        W44459  10.406  12.771   6.614
40499W        W44460  10.757  14.389   5.760
40500W        W44461   8.687  13.833   5.162
40501W        W44462   9.694  14.366   6.486
40502W        W44463   9.688  11.696   6.250
40503W        W44464   8.895  14.404   6.311
40504W        W44465  10.592  11.358   4.777
40505W        W44466  10.383  12.677   6.078
40506W        W44467   7.366  11.998   6.116
40507W        W44468  10.226  11.793   5.134
40508W        W44469  10.637  11.944   6.911
40509W        W44470   9.522  13.643   5.129
40510W        W44471   8.778  14.234   4.742
40511W        W44472   7.893  11.414   4.000
40512W        W44473   8.997  11.068   5.810
40513W        W44474   8.025  14.188   3.658
40514W        W44475   8.399  12.654   4.409
40515W        W44476   9.053  13.283   6.722
40516W        W44477   8.883  11.641   4.712
40517W        W44478  10.239  11.238   5.140
40518W        W44479   9.959  14.520   5.468
40519W        W44480   9.371  14.168   5.808
40520W        W44481   8.767  13.205   5.769
40521W        W44482  10.537  13.928   5.895
40522W        W44483   8.231  11.431   4.664
40523W        W44484   8.753  13.728   5.624
40524W        W44485   8.236  11.659   3.689
40525W        W44486   9.037  12.268   6.083
40526W        W44487   9.885  11.134   5.953
40527W        W44488   7.305  12.977   5.838
40528W        W44489   9.009  12.795   3.996
40529W        W44490   8.277  11.110   3.766
40530W        W44491   9.015  12.191   4.817
40531W        W44492   9.985  11.167   6.516
40532W        W44493   8.573  13.179   6.625
40533W        W44494   9.377  12.961   6.842
40534W        W44495   9.994  12.991   6.735
40535W        W44496   9.278  11.131   7.240
40536W        W44497   8.500  11.747   5.633
40537W        W44498   7.926  11.703   5.031
40538W        W44499   7.712  14.415   4.707
40539W        W44500   9.044  13.745   6.832
40540W        W44501   8.079  13.230   4.191
40541W        W44502   9.759  12.615   5.412
40542W        W44503  10.039  12.414   5.811
40543W        W44504   9.244  13.088   5.745
40544W        W44505   9.714  13.462   3.877
40545W        W44506   9.386  11.483   5.205
40546W        W44507  10.865  11.761   4.473
40547W        W44508   7.359  14.350   6.504
40548W        W44509   7.776  13.576   6.036
40549W        W44510   7.343  14.422   4.268
40550W        W44511   9.242  11.692   6.074
40551W        W44512   8.605  13.715   3.923
40552W        W44513  10.510  14.097   4.109
40553W        W44514   9.485  12.750   4.123
40554W        W44515   8.328  11.941   4.640
40555W        W44516   9.160  11.851   3.692
40556W        W44517   9.744  13.416   6.870
40557W        W44518  10.097  11.322   4.487
40558W        W44519   7.427  11.170   3.935
40559W        W44520   8.713  13.489   6.225
40560W        W44521   8.512  13.405   5.317
40561W        W44522   8.254  13.357   3.715
40562W        W44523   7.495  13.598   4.483
40563W        W44524   7.999  12.668   6.925
40564W        W44525   8.703  11.228   7.111
40565W        W44526   9.412  11.370   6.467
40566W        W44527   8.607  11.138   4.748
40567W        W44528   9.666  11.215   4.253
40568W        W44529   7.611  11.147   5.830
40569W        W44530   7.659  12.110   5.200
40570W        W44531  10.348  11.218   5.606
40571W        W44532   7.770  11.716   4.420
40572W        W44533  10.341  11.404   6.036
40573W        W44534  10.737  12.607   3.721
40574W        W44535   8.029  11.365   5.540
40575W        W44536   9.143  11.937   6.480
40576W        W44537   7.291  11.627   3.958
40577W        W44538   8.077  13.016   6.519
40578W        W44539   9.435  12.414   5.698
40579W        W44540   9.302  14.493   3.994
40580W        W44541   7.448  13.000   3.691
40581W        W44542   8.183  13.411   6.817
40582W        W44543   7.704  12.578   6.448
40583W        W44544   8.695  12.683   6.242
40584W        W44545  10.463  11.042   6.504
40585W        W44546  10.861  12.652   6.495
40586W        W44547  10.849  12.852   4.181
40587W        W44548   9.712  13.184   4.280
40588W        W44549  10.186  14.484   3.975
40589W        W44550   9.363  12.474   7.117
40590W        W44551   7.693  13.441   7.157
40591W        W44552  10.899  11.363   7.109
40592W        W44553  10.617  12.291   5.730
40593W        W44554   8.925  14.421   7.207
40594W        W44555   8.780  11.050   3.934
40595W        W44556  10.319  13.649   3.877
40596W        W44557   8.088  11.742   6.763
40597W        W44558   8.522  13.736   6.625
40598W        W44559  10.648  11.727   6.423
40599W        W44560   9.859  14.386   4.391
40600W        W44561  10.098  13.005   5.758
40601W        W44562   8.348  11.421   6.425
40602W        W44563   8.817  12.490   7.182
40603W        W44564   8.320  13.669   4.376
40604W        W44565  10.075  13.167   4.640
40605W        W44566   7.843  11.793   6.364
40606W        W44567   9.172  13.855   4.828
40607W        W44568  10.922  12.415   5.009
40608W        W44569   9.144  11.048   6.728
40609W        W44570   9.924  13.753   5.807
40610W        W44571  10.227  14.097   5.515
40611W        W44572   9.446  13.899   3.943
40612W        W44573   7.456  13.791   6.785
40613W        W44574   8.199  11.783   6.023
40614W        W44575   8.169  11.131   5.133
40615W        W44576   9.790  11.973   5.825
40616W        W44577   8.588  13.144   4.025
40617W        W44578  10.586  13.086   5.524
40618W        W44579   7.913  13.844   6.947
40619W        W44580  10.300  14.526   4.744
40620W        W44581   8.399  11.546   5.189
40621W        W44582   8.168  13.039   5.279
40622W        W44583   8.481  14.450   6.029
40623W        W44584  10.548  14.546   7.061
40624W        W44585   9.707  12.734   5.994
40625W        W44586   7.556  12.532   3.909
40626W        W44587  10.690  14.190   4.606
40627W        W44588  10.527  11.514   4.225
40628W        W44589   8.666  11.033   6.628
40629W        W44590  10.372  13.835   5.086
40630W        W44591  10.401  12.391   4.991
40631W        W44592   8.518  12.064   5.207
40632W        W44593   8.763  12.326   6.531
40633W        W44594   9.874  13.479   6.394
40634W        W44595   8.524  11.933   6.506
40635W        W44596   8.503  14.399   5.122
40636W        W44597   7.820  14.358   6.756
40637W        W44598   7.932  13.719   3.886
40638W        W44599  10.449  13.477   4.696
40639W        W44600   8.053  12.269   6.582
40640W        W44601  10.826  12.199   4.063
40641W        W44602   8.571  13.256   4.534
40642W        W44603   9.670  12.638   6.615
40643W        W44604   9.561  12.266   6.159
40644W        W44605   8.121  12.638   6.188
40645W        W44606  10.331  14.526   6.017
40646W        W44607  10.122  11.160   7.011
40647W        W44608   7.786  11.310   6.598
40648W        W44609   8.125  12.333   5.651
40649W        W44610   8.494  12.147   3.773
40650W        W44611   7.297  13.906   6.318
40651W        W44612   8.882  12.615   5.761
40652W        W44613   8.705  11.640   3.866
40653W        W44614   7.840  12.456   4.647
40654W        W44615   7.611  14.308   6.084
40655W        W44616  10.406  12.534   4.192
40656W        W44617  10.501  11.450   6.878
40657W        W44618   9.937  13.659   4.841
40658W        W44619   7.535  12.583   7.018
40659W        W44620  10.501  11.047   4.314
40660W        W44621  10.021  13.522   4.325
40661W        W44622   8.923  12.580   4.410
40662W        W44623  10.110  11.384   3.933
40663W        W44624  10.175  11.991   6.119
40664W        W44625   7.884  12.584   5.326
40665W        W44626   8.178  13.523   4.975
40666W        W44627   9.941  12.143   4.940
40667W        W44628   8.964  11.522   5.636
40668W        W44629  10.926  13.433   6.147
40669W        W44630  10.844  11.420   5.708
40670W        W44631   7.383  14.250   5.084
40671W        W44632   7.892  13.437   4.620
40672W        W44633   7.807  11.054   7.173
40673W        W44634   8.926  13.907   7.275
40674W        W44635  10.681  12.875   5.065
40675W        W44636  10.035  13.052   3.945
40676W        W44637   9.330  14.573   6.157
40677W        W44638  10.187  13.295   7.194
40678W        W44639   9.002  11.005   4.474
40679W        W44640   9.715  11.874   5.333
40680W        W44641   7.401  13.461   5.665
40681W        W44642   8.654  11.423   4.306
40682W        W44643   8.458  12.907   7.155
40683W        W44644   9.452  11.888   4.869
40684W        W44645   9.657  13.298   5.991
40685W        W44646   7.811  13.903   6.426
40686W        W44647   8.402  13.886   7.149
40687W        W44648   8.253  11.683   4.163
40688W        W44649   9.770  11.825   4.488
40689W        W44650   9.728  13.933   6.725
40690W        W44651   8.413  12.525   5.324
40691W        W44652   8.068  14.223   6.189
40692W        W44653  10.813  14.340   3.790
40693W        W44654   7.676  13.012   6.786
40694W        W44655   9.671  13.274   5.474
40695W        W44656   8.107  12.923   4.716
40696W        W44657   8.478  13.930   6.111
40697W        W44658   8.856  11.349   5.152
40698W        W44659   7.467  13.333   4.082
40699W        W44660   8.986  12.284   3.952
40700W        W44661   7.632  12.833   4.971
40701W        W44662   8.922  11.475   6.435
40702W        W44663  10.594  11.184   3.862
40703W        W44664  10.687  12.930   6.961
40704W        W44665   9.341  14.187   7.113
40705W        W44666  10.899  13.281   6.635
40706W        W44667  10.307  14.079   7.246
40707W        W44668   8.046  14.535   5.724
40708W        W44669  10.905  13.157   4.598
40709W        W44670   9.435  12.424   5.111
40710W        W44671   9.202  11.036   5.001
40711W        W44672   8.261  14.020   4.838
40712W        W44673   8.760  11.761   6.063
40713W        W44674   8.460  11.130   5.532
40714W        W44675   7.523  13.952   4.080
40715W        W44676   9.339  13.316   4.798
40716W        W44677   8.214  14.111   6.677
40717W        W44678   7.691  12.934   4.373
40718W        W44679   7.576  11.477   5.372
40719W        W44680   9.124  13.442   5.429
40720W        W44681   7.376  11.296   4.449
40721W        W44682  10.040  12.502   6.376
40722W        W44683   9.917  11.888   3.948
40723W        W44684  10.434  13.560   5.596
40724W        W44685   9.095  14.044   5.427
40725W        W44686   8.507  14.148   4.338
40726W        W44687   9.789  11.051   3.768
40727W        W44688   7.589  14.311   5.509
40728W        W44689   9.786  12.069   7.144
40729W        W44690   7.769  11.599   7.143
40730W        W44691   7.500  12.199   4.476
40731W        W44692   8.191  12.188   4.201
40732W        W44693   9.954  12.515   7.018
40733W        W44694   8.297  12.796   5.727
40734W        W44695   9.771  11.082   4.847
40735W        W44696   8.902  14.513   5.350
40736W        W44697  10.116  13.975   6.287
40737W        W44698   9.700  14.124   5.398
40738W        W44699   9.719  13.104   4.992
40739W        W44700   9.181  11.329   4.063
40740W        W44701  10.862  10.957   4.785
40741W        W44702   8.550  12.592   3.948
40742W        W44703  10.716  11.929   4.938
40743W        W44704   9.408  13.099   3.815
40744W        W44705  10.344  13.299   6.563
40745W        W44706   9.998  14.000   4.030
40746W        W44707   8.613  11.675   6.936
40747W        W44708   8.433  12.259   6.177
40748W        W44709  10.525  13.754   6.454
40749W        W44710   9.625  11.704   6.831
40750W        W44711   7.469  12.175   6.608
40751W        W44712   9.229  12.652   6.334
40752W        W44713   7.586  13.410   4.991
40753W        W44714   7.733  12.707   5.881
40754W        W44715  10.050  12.993   6.231
40755W        W44716   9.822  14.373   7.042
40756W        W44717   9.718  12.112   6.595
40757W        W44718   9.995  14.166   5.000
40758W        W44719   8.997  13.886   6.323
40759W        W44720   8.482  14.241   5.592
40760W        W44721  10.287  13.412   6.011
40761W        W44722   9.337  13.484   7.148
40762W        W44723   7.942  13.437   5.487
40763W        W44724  10.288  13.196   5.132
40764W        W44725   9.929  14.262   5.883
40765W        W44726   7.907  13.991   5.753
40766W        W44727   8.928  12.043   6.963
40767W        W44728   9.379  14.209   4.474
40768W        W44729   8.687  13.464   7.112
40769W        W44730   8.813  13.702   4.489
40770W        W44731   8.034  12.442   3.748
40771W        W44732   7.373  14.528  10.648
40772W        W44733   7.749  13.421  10.171
40773W        W44734  10.454  13.151   7.941
40774W        W44735  10.584  14.236   9.968
40775W        W44736   8.502  14.227   7.494
40776W        W44737   8.585  12.379   8.477
40777W        W44738   8.100  12.227   8.641
40778W        W44739   9.091  13.042   8.075
40779W        W44740   8.766  14.134  10.430
40780W        W44741   7.415  11.695  10.393
40781W        W44742   8.177  10.975  10.195
40782W        W44743   9.871  11.363   9.082
40783W        W44744   9.520  12.234   7.652
40784W        W44745  10.090  11.668  10.743
40785W        W44746   7.456  11.460   9.868
40786W        W44747   7.555  14.079  10.889
40787W        W44748   9.077  13.469   7.621
40788W        W44749   7.509  12.252   9.314
40789W        W44750   8.402  12.143  10.551
40790W        W44751  10.861  12.002   9.050
40791W        W44752  10.625  13.045   9.909
40792W        W44753   8.933  12.378   8.936
40793W        W44754   9.479  13.717   9.305
40794W        W44755   7.979  13.151   9.537
40795W        W44756   7.338  12.679   9.108
40796W        W44757   8.374  12.651  10.300
40797W        W44758  10.645  12.434  10.554
40798W        W44759   8.261  13.878   8.999
40799W        W44760   9.382  13.567  10.133
40800W        W44761   8.602  12.207   9.358
40801W        W44762   8.894  12.991   9.001
40802W        W44763   9.891  13.764  10.849
40803W        W44764   8.970  13.084  10.859
40804W        W44765   8.951  12.800  10.337
40805W        W44766   7.360  12.191  10.859
40806W        W44767  10.192  13.726  10.458
40807W        W44768   7.773  11.308   8.456
40808W        W44769   8.300  13.566   9.455
40809W        W44770  10.763  13.349   8.745
40810W        W44771  10.176  11.749   9.312
40811W        W44772  10.461  11.702   7.407
40812W        W44773  10.926  12.503   9.713
40813W        W44774   8.893  14.210   9.466
40814W        W44775  10.667  13.676   7.904
40815W        W44776   7.796  14.462   7.658
40816W        W44777   8.189  14.508   8.334
40817W        W44778   7.986  11.262   9.760
40818W        W44779  10.609  12.280  10.035
40819W        W44780  10.014  12.702   8.494
40820W        W44781   9.980  12.390   7.521
40821W        W44782   9.188  13.534   9.661
40822W        W44783   8.994  11.864   8.860
40823W        W44784   9.594  13.951   9.854
40824W        W44785  10.465  12.742   8.276
40825W        W44786   9.367  11.400   8.292
40826W        W44787   8.024  14.094   7.975
40827W        W44788   7.395  11.593   8.574
40828W        W44789  10.181  12.200   9.048
40829W        W44790   7.639  13.817   8.963
40830W        W44791   8.980  14.167   7.833
40831W        W44792  10.372  12.193   7.297
40832W        W44793   7.395  13.951   9.461
40833W        W44794   8.186  13.523   9.941
40834W        W44795   8.559  12.883   8.560
40835W        W44796   8.581  11.288   9.653
40836W        W44797  10.810  11.050   8.950
40837W        W44798   8.029  12.922   7.418
40838W        W44799   7.684  11.955   7.597
40839W        W44800   7.746  13.911   8.391
40840W        W44801   8.877  13.394   8.639
40841W        W44802  10.209  14.253  10.353
40842W        W44803   9.135  11.895   8.037
40843W        W44804  10.518  14.293   8.809
40844W        W44805  10.195  12.146  10.407
40845W        W44806  10.908  13.802   8.541
40846W        W44807   9.535  13.094  10.025
40847W        W44808   7.301  12.645   8.231
40848W        W44809   8.412  13.060   9.804
40849W        W44810   9.616  12.324   8.182
40850W        W44811   9.493  12.814   8.286
40851W        W44812   7.836  12.234   9.760
40852W        W44813   7.821  12.110  10.682
40853W        W44814   7.711  11.027   8.841
40854W        W44815   9.479  11.374   9.402
40855W        W44816   9.127  11.559  10.565
40856W        W44817   9.482  11.708   7.743
40857W        W44818  10.665  14.101  10.497
40858W        W44819   9.632  11.182  10.536
40859W        W44820  10.651  13.483  10.658
40860W        W44821  10.081  11.650  10.254
40861W        W44822   9.881  11.588   8.524
40862W        W44823  10.274  12.722  10.928
40863W        W44824   8.014  14.298   8.914
40864W        W44825   8.672  12.015   7.900
40865W        W44826   8.241  11.299  10.564
40866W        W44827  10.293  11.783   8.245
40867W        W44828  10.660  12.265   8.190
40868W        W44829   8.403  14.482  10.661
40869W        W44830   8.329  11.018   7.896
40870W        W44831  10.650  11.552   8.931
40871W        W44832  10.800  13.801   7.376
40872W        W44833   7.707  13.004   9.078
40873W        W44834   9.624  11.591   7.308
40874W        W44835  10.758  13.923   9.028
40875W        W44836  10.797  11.117   9.778
40876W        W44837   9.242  12.329  10.332
40877W        W44838   9.335  13.668   8.035
40878W        W44839   9.735  12.962  10.775
40879W        W44840   9.409  10.939   9.084
40880W        W44841   8.021  11.842   9.147
40881W        W44842   7.575  13.042   9.921
40882W        W44843   9.434  14.235   8.627
40883W        W44844  10.628  11.832   9.499
40884W        W44845   9.265  14.179  10.266
40885W        W44846  10.608  13.238   7.471
40886W        W44847   9.043  12.721   8.532
40887W        W44848  10.895  11.232  10.273
40888W        W44849   9.044  13.067   9.867
40889W        W44850   9.261  11.953   9.312
40890W        W44851  10.113  12.251   8.150
40891W        W44852  10.400  11.984   7.792
40892W        W44853  10.209  14.024   8.181
40893W        W44854  10.043  13.627   8.977
40894W        W44855   9.939  12.706   7.955
40895W        W44856   9.372  12.916   8.941
40896W        W44857  10.253  12.704   9.008
40897W        W44858   7.628  11.719   9.432
40898W        W44859  10.406  12.771  10.259
40899W        W44860   8.687  13.833   8.807
40900W        W44861   9.694  14.366  10.131
40901W        W44862   9.688  11.696   9.895
40902W        W44863   8.895  14.404   9.956
40903W        W44864  10.592  11.358   8.422
40904W        W44865  10.383  12.677   9.723
40905W        W44866   7.366  11.998   9.761
40906W        W44867  10.226  11.793   8.779
40907W        W44868  10.637  11.944  10.556
40908W        W44869   9.522  13.643   8.774
40909W        W44870   8.778  14.234   8.387
40910W        W44871   7.893  11.414   7.645
40911W        W44872   8.997  11.068   9.455
40912W        W44873   8.025  14.188   7.303
40913W        W44874   8.399  12.654   8.054
40914W        W44875   9.053  13.283  10.367
40915W        W44876   8.883  11.641   8.357
40916W        W44877  10.239  11.238   8.785
40917W        W44878   9.959  14.520   9.113
40918W        W44879   9.371  14.168   9.453
40919W        W44880   8.767  13.205   9.414
40920W        W44881  10.537  13.928   9.540
40921W        W44882   8.231  11.431   8.309
40922W        W44883   8.753  13.728   9.269
40923W        W44884   8.236  11.659   7.334
40924W        W44885   9.037  12.268   9.728
40925W        W44886   9.885  11.134   9.598
40926W        W44887   7.305  12.977   9.483
40927W        W44888   9.009  12.795   7.641
40928W        W44889   8.277  11.110   7.411
40929W        W44890   9.015  12.191   8.462
40930W        W44891   9.985  11.167  10.161
40931W        W44892   8.573  13.179  10.270
40932W        W44893   9.377  12.961  10.487
40933W        W44894   9.994  12.991  10.380
40934W        W44895   9.278  11.131  10.885
40935W        W44896   8.500  11.747   9.278
40936W        W44897   7.926  11.703   8.676
40937W        W44898   7.712  14.415   8.352
40938W        W44899   9.044  13.745  10.477
40939W        W44900   8.079  13.230   7.836
40940W        W44901   9.759  12.615   9.057
40941W        W44902  10.039  12.414   9.456
40942W        W44903   9.244  13.088   9.390
40943W        W44904   9.714  13.462   7.522
40944W        W44905   9.386  11.483   8.850
40945W        W44906  10.865  11.761   8.118
40946W        W44907   7.359  14.350  10.149
40947W        W44908   7.776  13.576   9.681
40948W        W44909   7.343  14.422   7.913
40949W        W44910   9.242  11.692   9.719
40950W        W44911   8.605  13.715   7.568
40951W        W44912  10.510  14.097   7.754
40952W        W44913   9.485  12.750   7.768
40953W        W44914   8.328  11.941   8.285
40954W        W44915   9.160  11.851   7.337
40955W        W44916   9.744  13.416  10.515
40956W        W44917  10.097  11.322   8.132
40957W        W44918   7.427  11.170   7.580
40958W        W44919   8.713  13.489   9.870
40959W        W44920   8.512  13.405   8.962
40960W        W44921   8.254  13.357   7.360
40961W        W44922   7.495  13.598   8.128
40962W        W44923   7.999  12.668  10.570
40963W        W44924   8.703  11.228  10.756
40964W        W44925   9.412  11.370  10.112
40965W        W44926   8.607  11.138   8.393
40966W        W44927   9.666  11.215   7.898
40967W        W44928   7.611  11.147   9.475
40968W        W44929   7.659  12.110   8.845
40969W        W44930  10.348  11.218   9.251
40970W        W44931   7.770  11.716   8.065
40971W        W44932  10.341  11.404   9.681
40972W        W44933  10.737  12.607   7.366
40973W        W44934   8.029  11.365   9.185
40974W        W44935   9.143  11.937  10.125
40975W        W44936   7.291  11.627   7.603
40976W        W44937   8.077  13.016  10.164
40977W        W44938   9.435  12.414   9.343
40978W        W44939   9.302  14.493   7.639
40979W        W44940   7.448  13.000   7.336
40980W        W44941   8.183  13.411  10.462
40981W        W44942   7.704  12.578  10.093
40982W        W44943   8.695  12.683   9.887
40983W        W44944  10.463  11.042  10.149
40984W        W44945  10.861  12.652  10.140
40985W        W44946  10.849  12.852   7.826
40986W        W44947   9.712  13.184   7.925
40987W        W44948  10.186  14.484   7.620
40988W        W44949   9.363  12.474  10.762
40989W        W44950   7.693  13.441  10.802
40990W        W44951  10.899  11.363  10.754
40991W        W44952  10.617  12.291   9.375
40992W        W44953   8.925  14.421  10.852
40993W        W44954   8.780  11.050   7.579
40994W        W44955  10.319  13.649   7.522
40995W        W44956   8.088  11.742  10.408
40996W        W44957   8.522  13.736  10.270
40997W        W44958  10.648  11.727  10.068
40998W        W44959   9.859  14.386   8.036
40999W        W44960  10.098  13.005   9.403
41000W        W44961   8.348  11.421  10.070
41001W        W44962   8.817  12.490  10.827
41002W        W44963   8.320  13.669   8.021
41003W        W44964  10.075  13.167   8.285
41004W        W44965   7.843  11.793  10.009
41005W        W44966   9.172  13.855   8.473
41006W        W44967  10.922  12.415   8.654
41007W        W44968   9.144  11.048  10.373
41008W        W44969   9.924  13.753   9.452
41009W        W44970  10.227  14.097   9.160
41010W        W44971   9.446  13.899   7.588
41011W        W44972   7.456  13.791  10.430
41012W        W44973   8.199  11.783   9.668
41013W        W44974   8.169  11.131   8.778
41014W        W44975   9.790  11.973   9.470
41015W        W44976   8.588  13.144   7.670
41016W        W44977  10.586  13.086   9.169
41017W        W44978   7.913  13.844  10.592
41018W        W44979  10.300  14.526   8.389
41019W        W44980   8.399  11.546   8.834
41020W        W44981   8.168  13.039   8.924
41021W        W44982   8.481  14.450   9.674
41022W        W44983  10.548  14.546  10.706
41023W        W44984   9.707  12.734   9.639
41024W        W44985   7.556  12.532   7.554
41025W        W44986  10.690  14.190   8.251
41026W        W44987  10.527  11.514   7.870
41027W        W44988   8.666  11.033  10.273
41028W        W44989  10.372  13.835   8.731
41029W        W44990  10.401  12.391   8.636
41030W        W44991   8.518  12.064   8.852
41031W        W44992   8.763  12.326  10.176
41032W        W44993   9.874  13.479  10.039
41033W        W44994   8.524  11.933  10.151
41034W        W44995   8.503  14.399   8.767
41035W        W44996   7.820  14.358  10.401
41036W        W44997   7.932  13.719   7.531
41037W        W44998  10.449  13.477   8.341
41038W        W44999   8.053  12.269  10.227
41039W        W45000  10.826  12.199   7.708
41040W        W45001   8.571  13.256   8.179
41041W        W45002   9.670  12.638  10.260
41042W        W45003   9.561  12.266   9.804
41043W        W45004   8.121  12.638   9.833
41044W        W45005  10.331  14.526   9.662
41045W        W45006  10.122  11.160  10.656
41046W        W45007   7.786  11.310  10.243
41047W        W45008   8.125  12.333   9.296
41048W        W45009   8.494  12.147   7.418
41049W        W45010   7.297  13.906   9.963
41050W        W45011   8.882  12.615   9.406
41051W        W45012   8.705  11.640   7.511
41052W        W45013   7.840  12.456   8.292
41053W        W45014   7.611  14.308   9.729
41054W        W45015  10.406  12.534   7.837
41055W        W45016  10.501  11.450  10.523
41056W        W45017   9.937  13.659   8.486
41057W        W45018   7.535  12.583  10.663
41058W        W45019  10.501  11.047   7.959
41059W        W45020  10.021  13.522   7.970
41060W        W45021   8.923  12.580   8.055
41061W        W45022  10.110  11.384   7.578
41062W        W45023  10.175  11.991   9.764
41063W        W45024   7.884  12.584   8.971
41064W        W45025   8.178  13.523   8.620
41065W        W45026   9.941  12.143   8.585
41066W        W45027   8.964  11.522   9.281
41067W        W45028  10.926  13.433   9.792
41068W        W45029  10.844  11.420   9.353
41069W        W45030   7.383  14.250   8.729
41070W        W45031   7.892  13.437   8.265
41071W        W45032   7.807  11.054  10.818
41072W        W45033   8.926  13.907  10.920
41073W        W45034  10.681  12.875   8.710
41074W        W45035  10.035  13.052   7.590
41075W        W45036   9.330  14.573   9.802
41076W        W45037  10.187  13.295  10.839
41077W        W45038   9.002  11.005   8.119
41078W        W45039   9.715  11.874   8.978
41079W        W45040   7.401  13.461   9.310
41080W        W45041   8.654  11.423   7.951
41081W        W45042   8.458  12.907  10.800
41082W        W45043   9.452  11.888   8.514
41083W        W45044   9.657  13.298   9.636
41084W        W45045   7.811  13.903  10.071
41085W        W45046   8.402  13.886  10.794
41086W        W45047   8.253  11.683   7.808
41087W        W45048   9.770  11.825   8.133
41088W        W45049   9.728  13.933  10.370
41089W        W45050   8.413  12.525   8.969
41090W        W45051   8.068  14.223   9.834
41091W        W45052  10.813  14.340   7.435
41092W        W45053   7.676  13.012  10.431
41093W        W45054   9.671  13.274   9.119
41094W        W45055   8.107  12.923   8.361
41095W        W45056   8.478  13.930   9.756
41096W        W45057   8.856  11.349   8.797
41097W        W45058   7.467  13.333   7.727
41098W        W45059   8.986  12.284   7.597
41099W        W45060   7.632  12.833   8.616
41100W        W45061   8.922  11.475  10.080
41101W        W45062  10.594  11.184   7.507
41102W        W45063  10.687  12.930  10.606
41103W        W45064   9.341  14.187  10.758
41104W        W45065  10.899  13.281  10.280
41105W        W45066  10.307  14.079  10.891
41106W        W45067   8.046  14.535   9.369
41107W        W45068  10.905  13.157   8.243
41108W        W45069   9.435  12.424   8.756
41109W        W45070   9.202  11.036   8.646
41110W        W45071   8.261  14.020   8.483
41111W        W45072   8.760  11.761   9.708
41112W        W45073   8.460  11.130   9.177
41113W        W45074   7.523  13.952   7.725
41114W        W45075   9.339  13.316   8.443
41115W        W45076   8.214  14.111  10.322
41116W        W45077   7.691  12.934   8.018
41117W        W45078   7.576  11.477   9.017
41118W        W45079   9.124  13.442   9.074
41119W        W45080   7.376  11.296   8.094
41120W        W45081  10.040  12.502  10.021
41121W        W45082   9.917  11.888   7.593
41122W        W45083  10.434  13.560   9.241
41123W        W45084   9.095  14.044   9.072
41124W        W45085   8.507  14.148   7.983
41125W        W45086   9.789  11.051   7.413
41126W        W45087   7.589  14.311   9.154
41127W        W45088   9.786  12.069  10.789
41128W        W45089   7.769  11.599  10.788
41129W        W45090   7.500  12.199   8.121
41130W        W45091   8.191  12.188   7.846
41131W        W45092   9.954  12.515  10.663
41132W        W45093   8.297  12.796   9.372
41133W        W45094   9.771  11.082   8.492
41134W        W45095   8.902  14.513   8.995
41135W        W45096  10.116  13.975   9.932
41136W        W45097   9.700  14.124   9.043
41137W        W45098   9.719  13.104   8.637
41138W        W45099   9.181  11.329   7.708
41139W        W45100  10.862  10.957   8.430
41140W        W45101   8.550  12.592   7.593
41141W        W45102  10.716  11.929   8.583
41142W        W45103   9.408  13.099   7.460
41143W        W45104  10.344  13.299  10.208
41144W        W45105   9.998  14.000   7.675
41145W        W45106   8.613  11.675  10.581
41146W        W45107   8.433  12.259   9.822
41147W        W45108  10.525  13.754  10.099
41148W        W45109   9.625  11.704  10.476
41149W        W45110   7.469  12.175  10.253
41150W        W45111   9.229  12.652   9.979
41151W        W45112   7.586  13.410   8.636
41152W        W45113   7.733  12.707   9.526
41153W        W45114  10.050  12.993   9.876
41154W        W45115   9.822  14.373  10.687
41155W        W45116   9.718  12.112  10.240
41156W        W45117   9.995  14.166   8.645
41157W        W45118   8.997  13.886   9.968
41158W        W45119   8.482  14.241   9.237
41159W        W45120  10.287  13.412   9.656
41160W        W45121   9.337  13.484  10.793
41161W        W45122   7.942  13.437   9.132
41162W        W45123  10.288  13.196   8.777
41163W        W45124   9.929  14.262   9.528
41164W        W45125   7.907  13.991   9.398
41165W        W45126   8.928  12.043  10.608
41166W        W45127   9.379  14.209   8.119
41167W        W45128   8.687  13.464  10.757
41168W        W45129   8.813  13.702   8.134
41169W        W45130   8.034  12.442   7.393
41170W        W45131   7.373  14.528  14.292
41171W        W45132   7.749  13.421  13.815
41172W        W45133  10.454  13.151  11.585
41173W        W45134  10.584  14.236  13.612
41174W        W45135   8.502  14.227  11.138
41175W        W45136   8.585  12.379  12.121
41176W        W45137   8.100  12.227  12.285
41177W        W45138   9.091  13.042  11.719
41178W        W45139   8.766  14.134  14.074
41179W        W45140   7.415  11.695  14.037
41180W        W45141   8.177  10.975  13.839
41181W        W45142   9.871  11.363  12.726
41182W        W45143   9.520  12.234  11.296
41183W        W45144  10.090  11.668  14.387
41184W        W45145   7.456  11.460  13.512
41185W        W45146   7.555  14.079  14.533
41186W        W45147   9.077  13.469  11.265
41187W        W45148   7.509  12.252  12.958
41188W        W45149   8.402  12.143  14.195
41189W        W45150  10.861  12.002  12.694
41190W        W45151  10.625  13.045  13.553
41191W        W45152   8.933  12.378  12.580
41192W        W45153   9.479  13.717  12.949
41193W        W45154   7.979  13.151  13.181
41194W        W45155   7.338  12.679  12.752
41195W        W45156   8.374  12.651  13.944
41196W        W45157  10.645  12.434  14.198
41197W        W45158   8.261  13.878  12.643
41198W        W45159   9.382  13.567  13.777
41199W        W45160   8.602  12.207  13.002
41200W        W45161   8.894  12.991  12.645
41201W        W45162   9.891  13.764  14.493
41202W        W45163   8.970  13.084  14.503
41203W        W45164   8.951  12.800  13.981
41204W        W45165   7.360  12.191  14.503
41205W        W45166  10.192  13.726  14.102
41206W        W45167   7.773  11.308  12.100
41207W        W45168   8.300  13.566  13.099
41208W        W45169  10.763  13.349  12.389
41209W        W45170  10.176  11.749  12.956
41210W        W45171  10.461  11.702  11.051
41211W        W45172  10.926  12.503  13.357
41212W        W45173   8.893  14.210  13.110
41213W        W45174  10.667  13.676  11.548
41214W        W45175   7.796  14.462  11.302
41215W        W45176   8.189  14.508  11.978
41216W        W45177   7.986  11.262  13.404
41217W        W45178  10.609  12.280  13.679
41218W        W45179  10.014  12.702  12.138
41219W        W45180   9.980  12.390  11.165
41220W        W45181   9.188  13.534  13.305
41221W        W45182   8.994  11.864  12.504
41222W        W45183   9.594  13.951  13.498
41223W        W45184  10.465  12.742  11.920
41224W        W45185   9.367  11.400  11.936
41225W        W45186   8.024  14.094  11.619
41226W        W45187   7.395  11.593  12.218
41227W        W45188  10.181  12.200  12.692
41228W        W45189   7.639  13.817  12.607
41229W        W45190   8.980  14.167  11.477
41230W        W45191  10.372  12.193  10.941
41231W        W45192   7.395  13.951  13.105
41232W        W45193   8.186  13.523  13.585
41233W        W45194   8.559  12.883  12.204
41234W        W45195   8.581  11.288  13.297
41235W        W45196  10.810  11.050  12.594
41236W        W45197   8.029  12.922  11.062
41237W        W45198   7.684  11.955  11.241
41238W        W45199   7.746  13.911  12.035
41239W        W45200   8.877  13.394  12.283
41240W        W45201  10.209  14.253  13.997
41241W        W45202   9.135  11.895  11.681
41242W        W45203  10.518  14.293  12.453
41243W        W45204  10.195  12.146  14.051
41244W        W45205  10.908  13.802  12.185
41245W        W45206   9.535  13.094  13.669
41246W        W45207   7.301  12.645  11.875
41247W        W45208   8.412  13.060  13.448
41248W        W45209   9.616  12.324  11.826
41249W        W45210   9.493  12.814  11.930
41250W        W45211   7.836  12.234  13.404
41251W        W45212   7.821  12.110  14.326
41252W        W45213   7.711  11.027  12.485
41253W        W45214   9.479  11.374  13.046
41254W        W45215   9.127  11.559  14.209
41255W        W45216   9.482  11.708  11.387
41256W        W45217  10.665  14.101  14.141
41257W        W45218   9.632  11.182  14.180
41258W        W45219  10.651  13.483  14.302
41259W        W45220  10.081  11.650  13.898
41260W        W45221   9.881  11.588  12.168
41261W        W45222  10.274  12.722  14.572
41262W        W45223   8.014  14.298  12.558
41263W        W45224   8.672  12.015  11.544
41264W        W45225   8.241  11.299  14.208
41265W        W45226  10.293  11.783  11.889
41266W        W45227  10.660  12.265  11.834
41267W        W45228   8.403  14.482  14.305
41268W        W45229   8.329  11.018  11.540
41269W        W45230  10.650  11.552  12.575
41270W        W45231  10.800  13.801  11.020
41271W        W45232   7.707  13.004  12.722
41272W        W45233   9.624  11.591  10.952
41273W        W45234  10.758  13.923  12.672
41274W        W45235  10.797  11.117  13.422
41275W        W45236   9.242  12.329  13.976
41276W        W45237   9.335  13.668  11.679
41277W        W45238   9.735  12.962  14.419
41278W        W45239   9.409  10.939  12.728
41279W        W45240   8.021  11.842  12.791
41280W        W45241   7.575  13.042  13.565
41281W        W45242   9.434  14.235  12.271
41282W        W45243  10.628  11.832  13.143
41283W        W45244   9.265  14.179  13.910
41284W        W45245  10.608  13.238  11.115
41285W        W45246   9.043  12.721  12.176
41286W        W45247  10.895  11.232  13.917
41287W        W45248   9.044  13.067  13.511
41288W        W45249   9.261  11.953  12.956
41289W        W45250  10.113  12.251  11.794
41290W        W45251  10.400  11.984  11.436
41291W        W45252  10.209  14.024  11.825
41292W        W45253  10.043  13.627  12.621
41293W        W45254   9.939  12.706  11.599
41294W        W45255   9.372  12.916  12.585
41295W        W45256  10.253  12.704  12.652
41296W        W45257   7.628  11.719  13.076
41297W        W45258  10.406  12.771  13.903
41298W        W45259  10.757  14.389  13.049
41299W        W45260   8.687  13.833  12.451
41300W        W45261   9.694  14.366  13.775
41301W        W45262   9.688  11.696  13.539
41302W        W45263   8.895  14.404  13.600
41303W        W45264  10.592  11.358  12.066
41304W        W45265  10.383  12.677  13.367
41305W        W45266   7.366  11.998  13.405
41306W        W45267  10.226  11.793  12.423
41307W        W45268  10.637  11.944  14.200
41308W        W45269   9.522  13.643  12.418
41309W        W45270   8.778  14.234  12.031
41310W        W45271   7.893  11.414  11.289
41311W        W45272   8.997  11.068  13.099
41312W        W45273   8.025  14.188  10.947
41313W        W45274   8.399  12.654  11.698
41314W        W45275   9.053  13.283  14.011
41315W        W45276   8.883  11.641  12.001
41316W        W45277  10.239  11.238  12.429
41317W        W45278   9.959  14.520  12.757
41318W        W45279   9.371  14.168  13.097
41319W        W45280   8.767  13.205  13.058
41320W        W45281  10.537  13.928  13.184
41321W        W45282   8.231  11.431  11.953
41322W        W45283   8.753  13.728  12.913
41323W        W45284   8.236  11.659  10.978
41324W        W45285   9.037  12.268  13.372
41325W        W45286   9.885  11.134  13.242
41326W        W45287   7.305  12.977  13.127
41327W        W45288   9.009  12.795  11.285
41328W        W45289   8.277  11.110  11.055
41329W        W45290   9.015  12.191  12.106
41330W        W45291   9.985  11.167  13.805
41331W        W45292   8.573  13.179  13.914
41332W        W45293   9.377  12.961  14.131
41333W        W45294   9.994  12.991  14.024
41334W        W45295   9.278  11.131  14.529
41335W        W45296   8.500  11.747  12.922
41336W        W45297   7.926  11.703  12.320
41337W        W45298   7.712  14.415  11.996
41338W        W45299   9.044  13.745  14.121
41339W        W45300   8.079  13.230  11.480
41340W        W45301   9.759  12.615  12.701
41341W        W45302  10.039  12.414  13.100
41342W        W45303   9.244  13.088  13.034
41343W        W45304   9.714  13.462  11.166
41344W        W45305   9.386  11.483  12.494
41345W        W45306  10.865  11.761  11.762
41346W        W45307   7.359  14.350  13.793
41347W        W45308   7.776  13.576  13.325
41348W        W45309   7.343  14.422  11.557
41349W        W45310   9.242  11.692  13.363
41350W        W45311   8.605  13.715  11.212
41351W        W45312  10.510  14.097  11.398
41352W        W45313   9.485  12.750  11.412
41353W        W45314   8.328  11.941  11.929
41354W        W45315   9.160  11.851  10.981
41355W        W45316   9.744  13.416  14.159
41356W        W45317  10.097  11.322  11.776
41357W        W45318   7.427  11.170  11.224
41358W        W45319   8.713  13.489  13.514
41359W        W45320   8.512  13.405  12.606
41360W        W45321   8.254  13.357  11.004
41361W        W45322   7.495  13.598  11.772
41362W        W45323   7.999  12.668  14.214
41363W        W45324   8.703  11.228  14.400
41364W        W45325   9.412  11.370  13.756
41365W        W45326   8.607  11.138  12.037
41366W        W45327   9.666  11.215  11.542
41367W        W45328   7.611  11.147  13.119
41368W        W45329   7.659  12.110  12.489
41369W        W45330  10.348  11.218  12.895
41370W        W45331   7.770  11.716  11.709
41371W        W45332  10.341  11.404  13.325
41372W        W45333  10.737  12.607  11.010
41373W        W45334   8.029  11.365  12.829
41374W        W45335   9.143  11.937  13.769
41375W        W45336   7.291  11.627  11.247
41376W        W45337   8.077  13.016  13.808
41377W        W45338   9.435  12.414  12.987
41378W        W45339   9.302  14.493  11.283
41379W        W45340   7.448  13.000  10.980
41380W        W45341   8.183  13.411  14.106
41381W        W45342   7.704  12.578  13.737
41382W        W45343   8.695  12.683  13.531
41383W        W45344  10.463  11.042  13.793
41384W        W45345  10.861  12.652  13.784
41385W        W45346  10.849  12.852  11.470
41386W        W45347   9.712  13.184  11.569
41387W        W45348  10.186  14.484  11.264
41388W        W45349   9.363  12.474  14.406
41389W        W45350   7.693  13.441  14.446
41390W        W45351  10.899  11.363  14.398
41391W        W45352  10.617  12.291  13.019
41392W        W45353   8.925  14.421  14.496
41393W        W45354   8.780  11.050  11.223
41394W        W45355  10.319  13.649  11.166
41395W        W45356   8.088  11.742  14.052
41396W        W45357   8.522  13.736  13.914
41397W        W45358  10.648  11.727  13.712
41398W        W45359   9.859  14.386  11.680
41399W        W45360  10.098  13.005  13.047
41400W        W45361   8.348  11.421  13.714
41401W        W45362   8.817  12.490  14.471
41402W        W45363   8.320  13.669  11.665
41403W        W45364  10.075  13.167  11.929
41404W        W45365   7.843  11.793  13.653
41405W        W45366   9.172  13.855  12.117
41406W        W45367  10.922  12.415  12.298
41407W        W45368   9.144  11.048  14.017
41408W        W45369   9.924  13.753  13.096
41409W        W45370  10.227  14.097  12.804
41410W        W45371   9.446  13.899  11.232
41411W        W45372   7.456  13.791  14.074
41412W        W45373   8.199  11.783  13.312
41413W        W45374   8.169  11.131  12.422
41414W        W45375   9.790  11.973  13.114
41415W        W45376   8.588  13.144  11.314
41416W        W45377  10.586  13.086  12.813
41417W        W45378   7.913  13.844  14.236
41418W        W45379  10.300  14.526  12.033
41419W        W45380   8.399  11.546  12.478
41420W        W45381   8.168  13.039  12.568
41421W        W45382   8.481  14.450  13.318
41422W        W45383  10.548  14.546  14.350
41423W        W45384   9.707  12.734  13.283
41424W        W45385   7.556  12.532  11.198
41425W        W45386  10.690  14.190  11.895
41426W        W45387  10.527  11.514  11.514
41427W        W45388   8.666  11.033  13.917
41428W        W45389  10.372  13.835  12.375
41429W        W45390  10.401  12.391  12.280
41430W        W45391   8.518  12.064  12.496
41431W        W45392   8.763  12.326  13.820
41432W        W45393   9.874  13.479  13.683
41433W        W45394   8.524  11.933  13.795
41434W        W45395   8.503  14.399  12.411
41435W        W45396   7.820  14.358  14.045
41436W        W45397   7.932  13.719  11.175
41437W        W45398  10.449  13.477  11.985
41438W        W45399   8.053  12.269  13.871
41439W        W45400  10.826  12.199  11.352
41440W        W45401   8.571  13.256  11.823
41441W        W45402   9.670  12.638  13.904
41442W        W45403   9.561  12.266  13.448
41443W        W45404   8.121  12.638  13.477
41444W        W45405  10.331  14.526  13.306
41445W        W45406  10.122  11.160  14.300
41446W        W45407   7.786  11.310  13.887
41447W        W45408   8.125  12.333  12.940
41448W        W45409   8.494  12.147  11.062
41449W        W45410   7.297  13.906  13.607
41450W        W45411   8.882  12.615  13.050
41451W        W45412   8.705  11.640  11.155
41452W        W45413   7.840  12.456  11.936
41453W        W45414   7.611  14.308  13.373
41454W        W45415  10.406  12.534  11.481
41455W        W45416  10.501  11.450  14.167
41456W        W45417   9.937  13.659  12.130
41457W        W45418   7.535  12.583  14.307
41458W        W45419  10.501  11.047  11.603
41459W        W45420  10.021  13.522  11.614
41460W        W45421   8.923  12.580  11.699
41461W        W45422  10.110  11.384  11.222
41462W        W45423  10.175  11.991  13.408
41463W        W45424   7.884  12.584  12.615
41464W        W45425   8.178  13.523  12.264
41465W        W45426   9.941  12.143  12.229
41466W        W45427   8.964  11.522  12.925
41467W        W45428  10.926  13.433  13.436
41468W        W45429  10.844  11.420  12.997
41469W        W45430   7.383  14.250  12.373
41470W        W45431   7.892  13.437  11.909
41471W        W45432   7.807  11.054  14.462
41472W        W45433   8.926  13.907  14.564
41473W        W45434  10.681  12.875  12.354
41474W        W45435  10.035  13.052  11.234
41475W        W45436   9.330  14.573  13.446
41476W        W45437  10.187  13.295  14.483
41477W        W45438   9.002  11.005  11.763
41478W        W45439   9.715  11.874  12.622
41479W        W45440   7.401  13.461  12.954
41480W        W45441   8.654  11.423  11.595
41481W        W45442   8.458  12.907  14.444
41482W        W45443   9.452  11.888  12.158
41483W        W45444   9.657  13.298  13.280
41484W        W45445   7.811  13.903  13.715
41485W        W45446   8.402  13.886  14.438
41486W        W45447   8.253  11.683  11.452
41487W        W45448   9.770  11.825  11.777
41488W        W45449   9.728  13.933  14.014
41489W        W45450   8.413  12.525  12.613
41490W        W45451   8.068  14.223  13.478
41491W        W45452  10.813  14.340  11.079
41492W        W45453   7.676  13.012  14.075
41493W        W45454   9.671  13.274  12.763
41494W        W45455   8.107  12.923  12.005
41495W        W45456   8.478  13.930  13.400
41496W        W45457   8.856  11.349  12.441
41497W        W45458   7.467  13.333  11.371
41498W        W45459   8.986  12.284  11.241
41499W        W45460   7.632  12.833  12.260
41500W        W45461   8.922  11.475  13.724
41501W        W45462  10.594  11.184  11.151
41502W        W45463  10.687  12.930  14.250
41503W        W45464   9.341  14.187  14.402
41504W        W45465  10.899  13.281  13.924
41505W        W45466  10.307  14.079  14.535
41506W        W45467   8.046  14.535  13.013
41507W        W45468  10.905  13.157  11.887
41508W        W45469   9.435  12.424  12.400
41509W        W45470   9.202  11.036  12.290
41510W        W45471   8.261  14.020  12.127
41511W        W45472   8.760  11.761  13.352
41512W        W45473   8.460  11.130  12.821
41513W        W45474   7.523  13.952  11.369
41514W        W45475   9.339  13.316  12.087
41515W        W45476   8.214  14.111  13.966
41516W        W45477   7.691  12.934  11.662
41517W        W45478   7.576  11.477  12.661
41518W        W45479   9.124  13.442  12.718
41519W        W45480   7.376  11.296  11.738
41520W        W45481  10.040  12.502  13.665
41521W        W45482   9.917  11.888  11.237
41522W        W45483  10.434  13.560  12.885
41523W        W45484   9.095  14.044  12.716
41524W        W45485   8.507  14.148  11.627
41525W        W45486   9.789  11.051  11.057
41526W        W45487   7.589  14.311  12.798
41527W        W45488   9.786  12.069  14.433
41528W        W45489   7.769  11.599  14.432
41529W        W45490   7.500  12.199  11.765
41530W        W45491   8.191  12.188  11.490
41531W        W45492   9.954  12.515  14.307
41532W        W45493   8.297  12.796  13.016
41533W        W45494   9.771  11.082  12.136
41534W        W45495   8.902  14.513  12.639
41535W        W45496  10.116  13.975  13.576
41536W        W45497   9.700  14.124  12.687
41537W        W45498   9.719  13.104  12.281
41538W        W45499   9.181  11.329  11.352
41539W        W45500  10.862  10.957  12.074
41540W        W45501   8.550  12.592  11.237
41541W        W45502  10.716  11.929  12.227
41542W        W45503   9.408  13.099  11.104
41543W        W45504  10.344  13.299  13.852
41544W        W45505   9.998  14.000  11.319
41545W        W45506   8.613  11.675  14.225
41546W        W45507   8.433  12.259  13.466
41547W        W45508  10.525  13.754  13.743
41548W        W45509   9.625  11.704  14.120
41549W        W45510   7.469  12.175  13.897
41550W        W45511   9.229  12.652  13.623
41551W        W45512   7.586  13.410  12.280
41552W        W45513   7.733  12.707  13.170
41553W        W45514  10.050  12.993  13.520
41554W        W45515   9.822  14.373  14.331
41555W        W45516   9.718  12.112  13.884
41556W        W45517   9.995  14.166  12.289
41557W        W45518   8.997  13.886  13.612
41558W        W45519   8.482  14.241  12.881
41559W        W45520  10.287  13.412  13.300
41560W        W45521   9.337  13.484  14.437
41561W        W45522   7.942  13.437  12.776
41562W        W45523  10.288  13.196  12.421
41563W        W45524   9.929  14.262  13.172
41564W        W45525   7.907  13.991  13.042
41565W        W45526   8.928  12.043  14.252
41566W        W45527   9.379  14.209  11.763
41567W        W45528   8.687  13.464  14.401
41568W        W45529   8.813  13.702  11.778
41569W        W45530   8.034  12.442  11.037
41570W        W45531   7.373  14.528  17.936
41571W        W45532   7.749  13.421  17.459
41572W        W45533  10.454  13.151  15.229
41573W        W45534  10.584  14.236  17.256
41574W        W45535   8.502  14.227  14.782
41575W        W45536   8.585  12.379  15.765
41576W        W45537   8.100  12.227  15.929
41577W        W45538   9.091  13.042  15.363
41578W        W45539   8.766  14.134  17.718
41579W        W45540   7.415  11.695  17.681
41580W        W45541   8.177  10.975  17.483
41581W        W45542   9.871  11.363  16.370
41582W        W45543   9.520  12.234  14.940
41583W        W45544  10.090  11.668  18.031
41584W        W45545   7.456  11.460  17.156
41585W        W45546   7.555  14.079  18.177
41586W        W45547   9.077  13.469  14.909
41587W        W45548   7.509  12.252  16.602
41588W        W45549   8.402  12.143  17.839
41589W        W45550  10.861  12.002  16.338
41590W        W45551  10.625  13.045  17.197
41591W        W45552   8.933  12.378  16.224
41592W        W45553   9.479  13.717  16.593
41593W        W45554   7.979  13.151  16.825
41594W        W45555   7.338  12.679  16.396
41595W        W45556   8.374  12.651  17.588
41596W        W45557  10.645  12.434  17.842
41597W        W45558   8.261  13.878  16.287
41598W        W45559   9.382  13.567  17.421
41599W        W45560   8.602  12.207  16.646
41600W        W45561   8.894  12.991  16.289
41601W        W45562   9.891  13.764  18.137
41602W        W45563   8.970  13.084  18.147
41603W        W45564   8.951  12.800  17.625
41604W        W45565   7.360  12.191  18.147
41605W        W45566  10.192  13.726  17.746
41606W        W45567   7.773  11.308  15.744
41607W        W45568   8.300  13.566  16.743
41608W        W45569  10.763  13.349  16.033
41609W        W45570  10.176  11.749  16.600
41610W        W45571  10.461  11.702  14.695
41611W        W45572  10.926  12.503  17.001
41612W        W45573   8.893  14.210  16.754
41613W        W45574  10.667  13.676  15.192
41614W        W45575   7.796  14.462  14.946
41615W        W45576   8.189  14.508  15.622
41616W        W45577   7.986  11.262  17.048
41617W        W45578  10.609  12.280  17.323
41618W        W45579  10.014  12.702  15.782
41619W        W45580   9.980  12.390  14.809
41620W        W45581   9.188  13.534  16.949
41621W        W45582   8.994  11.864  16.148
41622W        W45583   9.594  13.951  17.142
41623W        W45584  10.465  12.742  15.564
41624W        W45585   9.367  11.400  15.580
41625W        W45586   8.024  14.094  15.263
41626W        W45587   7.395  11.593  15.862
41627W        W45588  10.181  12.200  16.336
41628W        W45589   7.639  13.817  16.251
41629W        W45590   8.980  14.167  15.121
41630W        W45591  10.372  12.193  14.585
41631W        W45592   7.395  13.951  16.749
41632W        W45593   8.186  13.523  17.229
41633W        W45594   8.559  12.883  15.848
41634W        W45595   8.581  11.288  16.941
41635W        W45596  10.810  11.050  16.238
41636W        W45597   8.029  12.922  14.706
41637W        W45598   7.684  11.955  14.885
41638W        W45599   7.746  13.911  15.679
41639W        W45600   8.877  13.394  15.927
41640W        W45601  10.209  14.253  17.641
41641W        W45602   9.135  11.895  15.325
41642W        W45603  10.518  14.293  16.097
41643W        W45604  10.195  12.146  17.695
41644W        W45605  10.908  13.802  15.829
41645W        W45606   9.535  13.094  17.313
41646W        W45607   7.301  12.645  15.519
41647W        W45608   8.412  13.060  17.092
41648W        W45609   9.616  12.324  15.470
41649W        W45610   9.493  12.814  15.574
41650W        W45611   7.836  12.234  17.048
41651W        W45612   7.821  12.110  17.970
41652W        W45613   7.711  11.027  16.129
41653W        W45614   9.479  11.374  16.690
41654W        W45615   9.127  11.559  17.853
41655W        W45616   9.482  11.708  15.031
41656W        W45617  10.665  14.101  17.785
41657W        W45618   9.632  11.182  17.824
41658W        W45619  10.651  13.483  17.946
41659W        W45620  10.081  11.650  17.542
41660W        W45621   9.881  11.588  15.812
41661W        W45622  10.274  12.722  18.216
41662W        W45623   8.014  14.298  16.202
41663W        W45624   8.672  12.015  15.188
41664W        W45625   8.241  11.299  17.852
41665W        W45626  10.293  11.783  15.533
41666W        W45627  10.660  12.265  15.478
41667W        W45628   8.403  14.482  17.949
41668W        W45629   8.329  11.018  15.184
41669W        W45630  10.650  11.552  16.219
41670W        W45631  10.800  13.801  14.664
41671W        W45632   7.707  13.004  16.366
41672W        W45633   9.624  11.591  14.596
41673W        W45634  10.758  13.923  16.316
41674W        W45635  10.797  11.117  17.066
41675W        W45636   9.242  12.329  17.620
41676W        W45637   9.335  13.668  15.323
41677W        W45638   9.735  12.962  18.063
41678W        W45639   9.409  10.939  16.372
41679W        W45640   8.021  11.842  16.435
41680W        W45641   7.575  13.042  17.209
41681W        W45642   9.434  14.235  15.915
41682W        W45643  10.628  11.832  16.787
41683W        W45644   9.265  14.179  17.554
41684W        W45645  10.608  13.238  14.759
41685W        W45646   9.043  12.721  15.820
41686W        W45647  10.895  11.232  17.561
41687W        W45648   9.044  13.067  17.155
41688W        W45649   9.261  11.953  16.600
41689W        W45650  10.113  12.251  15.438
41690W        W45651  10.400  11.984  15.080
41691W        W45652  10.209  14.024  15.469
41692W        W45653  10.043  13.627  16.265
41693W        W45654   9.939  12.706  15.243
41694W        W45655   9.372  12.916  16.229
41695W        W45656  10.253  12.704  16.296
41696W        W45657   7.628  11.719  16.720
41697W        W45658  10.406  12.771  17.547
41698W        W45659  10.757  14.389  16.693
41699W        W45660   8.687  13.833  16.095
41700W        W45661   9.694  14.366  17.419
41701W        W45662   9.688  11.696  17.183
41702W        W45663   8.895  14.404  17.244
41703W        W45664  10.592  11.358  15.710
41704W        W45665  10.383  12.677  17.011
41705W        W45666   7.366  11.998  17.049
41706W        W45667  10.226  11.793  16.067
41707W        W45668  10.637  11.944  17.844
41708W        W45669   9.522  13.643  16.062
41709W        W45670   8.778  14.234  15.675
41710W        W45671   7.893  11.414  14.933
41711W        W45672   8.997  11.068  16.743
41712W        W45673   8.025  14.188  14.591
41713W        W45674   8.399  12.654  15.342
41714W        W45675   9.053  13.283  17.655
41715W        W45676   8.883  11.641  15.645
41716W        W45677  10.239  11.238  16.073
41717W        W45678   9.959  14.520  16.401
41718W        W45679   9.371  14.168  16.741
41719W        W45680   8.767  13.205  16.702
41720W        W45681  10.537  13.928  16.828
41721W        W45682   8.231  11.431  15.597
41722W        W45683   8.753  13.728  16.557
41723W        W45684   8.236  11.659  14.622
41724W        W45685   9.037  12.268  17.016
41725W        W45686   9.885  11.134  16.886
41726W        W45687   7.305  12.977  16.771
41727W        W45688   9.009  12.795  14.929
41728W        W45689   8.277  11.110  14.699
41729W        W45690   9.015  12.191  15.750
41730W        W45691   9.985  11.167  17.449
41731W        W45692   8.573  13.179  17.558
41732W        W45693   9.377  12.961  17.775
41733W        W45694   9.994  12.991  17.668
41734W        W45695   9.278  11.131  18.173
41735W        W45696   8.500  11.747  16.566
41736W        W45697   7.926  11.703  15.964
41737W        W45698   7.712  14.415  15.640
41738W        W45699   9.044  13.745  17.765
41739W        W45700   8.079  13.230  15.124
41740W        W45701   9.759  12.615  16.345
41741W        W45702  10.039  12.414  16.744
41742W        W45703   9.244  13.088  16.678
41743W        W45704   9.714  13.462  14.810
41744W        W45705   9.386  11.483  16.138
41745W        W45706  10.865  11.761  15.406
41746W        W45707   7.359  14.350  17.437
41747W        W45708   7.776  13.576  16.969
41748W        W45709   7.343  14.422  15.201
41749W        W45710   9.242  11.692  17.007
41750W        W45711   8.605  13.715  14.856
41751W        W45712  10.510  14.097  15.042
41752W        W45713   9.485  12.750  15.056
41753W        W45714   8.328  11.941  15.573
41754W        W45715   9.160  11.851  14.625
41755W        W45716   9.744  13.416  17.803
41756W        W45717  10.097  11.322  15.420
41757W        W45718   7.427  11.170  14.868
41758W        W45719   8.713  13.489  17.158
41759W        W45720   8.512  13.405  16.250
41760W        W45721   8.254  13.357  14.648
41761W        W45722   7.495  13.598  15.416
41762W        W45723   7.999  12.668  17.858
41763W        W45724   8.703  11.228  18.044
41764W        W45725   9.412  11.370  17.400
41765W        W45726   8.607  11.138  15.681
41766W        W45727   9.666  11.215  15.186
41767W        W45728   7.611  11.147  16.763
41768W        W45729   7.659  12.110  16.133
41769W        W45730  10.348  11.218  16.539
41770W        W45731   7.770  11.716  15.353
41771W        W45732  10.341  11.404  16.969
41772W        W45733  10.737  12.607  14.654
41773W        W45734   8.029  11.365  16.473
41774W        W45735   9.143  11.937  17.413
41775W        W45736   7.291  11.627  14.891
41776W        W45737   8.077  13.016  17.452
41777W        W45738   9.435  12.414  16.631
41778W        W45739   9.302  14.493  14.927
41779W        W45740   7.448  13.000  14.624
41780W        W45741   8.183  13.411  17.750
41781W        W45742   7.704  12.578  17.381
41782W        W45743   8.695  12.683  17.175
41783W        W45744  10.463  11.042  17.437
41784W        W45745  10.861  12.652  17.428
41785W        W45746  10.849  12.852  15.114
41786W        W45747   9.712  13.184  15.213
41787W        W45748  10.186  14.484  14.908
41788W        W45749   9.363  12.474  18.050
41789W        W45750   7.693  13.441  18.090
41790W        W45751  10.899  11.363  18.042
41791W        W45752  10.617  12.291  16.663
41792W        W45753   8.925  14.421  18.140
41793W        W45754   8.780  11.050  14.867
41794W        W45755  10.319  13.649  14.810
41795W        W45756   8.088  11.742  17.696
41796W        W45757   8.522  13.736  17.558
41797W        W45758  10.648  11.727  17.356
41798W        W45759   9.859  14.386  15.324
41799W        W45760  10.098  13.005  16.691
41800W        W45761   8.348  11.421  17.358
41801W        W45762   8.817  12.490  18.115
41802W        W45763   8.320  13.669  15.309
41803W        W45764  10.075  13.167  15.573
41804W        W45765   7.843  11.793  17.297
41805W        W45766   9.172  13.855  15.761
41806W        W45767  10.922  12.415  15.942
41807W        W45768   9.144  11.048  17.661
41808W        W45769   9.924  13.753  16.740
41809W        W45770  10.227  14.097  16.448
41810W        W45771   9.446  13.899  14.876
41811W        W45772   7.456  13.791  17.718
41812W        W45773   8.199  11.783  16.956
41813W        W45774   8.169  11.131  16.066
41814W        W45775   9.790  11.973  16.758
41815W        W45776   8.588  13.144  14.958
41816W        W45777  10.586  13.086  16.457
41817W        W45778   7.913  13.844  17.880
41818W        W45779  10.300  14.526  15.677
41819W        W45780   8.399  11.546  16.122
41820W        W45781   8.168  13.039  16.212
41821W        W45782   8.481  14.450  16.962
41822W        W45783  10.548  14.546  17.994
41823W        W45784   9.707  12.734  16.927
41824W        W45785   7.556  12.532  14.842
41825W        W45786  10.690  14.190  15.539
41826W        W45787  10.527  11.514  15.158
41827W        W45788   8.666  11.033  17.561
41828W        W45789  10.372  13.835  16.019
41829W        W45790  10.401  12.391  15.924
41830W        W45791   8.518  12.064  16.140
41831W        W45792   8.763  12.326  17.464
41832W        W45793   9.874  13.479  17.327
41833W        W45794   8.524  11.933  17.439
41834W        W45795   8.503  14.399  16.055
41835W        W45796   7.820  14.358  17.689
41836W        W45797   7.932  13.719  14.819
41837W        W45798  10.449  13.477  15.629
41838W        W45799   8.053  12.269  17.515
41839W        W45800  10.826  12.199  14.996
41840W        W45801   8.571  13.256  15.467
41841W        W45802   9.670  12.638  17.548
41842W        W45803   9.561  12.266  17.092
41843W        W45804   8.121  12.638  17.121
41844W        W45805  10.331  14.526  16.950
41845W        W45806  10.122  11.160  17.944
41846W        W45807   7.786  11.310  17.531
41847W        W45808   8.125  12.333  16.584
41848W        W45809   8.494  12.147  14.706
41849W        W45810   7.297  13.906  17.251
41850W        W45811   8.882  12.615  16.694
41851W        W45812   8.705  11.640  14.799
41852W        W45813   7.840  12.456  15.580
41853W        W45814   7.611  14.308  17.017
41854W        W45815  10.406  12.534  15.125
41855W        W45816  10.501  11.450  17.811
41856W        W45817   9.937  13.659  15.774
41857W        W45818   7.535  12.583  17.951
41858W        W45819  10.501  11.047  15.247
41859W        W45820  10.021  13.522  15.258
41860W        W45821   8.923  12.580  15.343
41861W        W45822  10.110  11.384  14.866
41862W        W45823  10.175  11.991  17.052
41863W        W45824   7.884  12.584  16.259
41864W        W45825   8.178  13.523  15.908
41865W        W45826   9.941  12.143  15.873
41866W        W45827   8.964  11.522  16.569
41867W        W45828  10.926  13.433  17.080
41868W        W45829  10.844  11.420  16.641
41869W        W45830   7.383  14.250  16.017
41870W        W45831   7.892  13.437  15.553
41871W        W45832   7.807  11.054  18.106
41872W        W45833   8.926  13.907  18.208
41873W        W45834  10.681  12.875  15.998
41874W        W45835  10.035  13.052  14.878
41875W        W45836   9.330  14.573  17.090
41876W        W45837  10.187  13.295  18.127
41877W        W45838   9.002  11.005  15.407
41878W        W45839   9.715  11.874  16.266
41879W        W45840   7.401  13.461  16.598
41880W        W45841   8.654  11.423  15.239
41881W        W45842   8.458  12.907  18.088
41882W        W45843   9.452  11.888  15.802
41883W        W45844   9.657  13.298  16.924
41884W        W45845   7.811  13.903  17.359
41885W        W45846   8.402  13.886  18.082
41886W        W45847   8.253  11.683  15.096
41887W        W45848   9.770  11.825  15.421
41888W        W45849   9.728  13.933  17.658
41889W        W45850   8.413  12.525  16.257
41890W        W45851   8.068  14.223  17.122
41891W        W45852  10.813  14.340  14.723
41892W        W45853   7.676  13.012  17.719
41893W        W45854   9.671  13.274  16.407
41894W        W45855   8.107  12.923  15.649
41895W        W45856   8.478  13.930  17.044
41896W        W45857   8.856  11.349  16.085
41897W        W45858   7.467  13.333  15.015
41898W        W45859   8.986  12.284  14.885
41899W        W45860   7.632  12.833  15.904
41900W        W45861   8.922  11.475  17.368
41901W        W45862  10.594  11.184  14.795
41902W        W45863  10.687  12.930  17.894
41903W        W45864   9.341  14.187  18.046
41904W        W45865  10.899  13.281  17.568
41905W        W45866  10.307  14.079  18.179
41906W        W45867   8.046  14.535  16.657
41907W        W45868  10.905  13.157  15.531
41908W        W45869   9.435  12.424  16.044
41909W        W45870   9.202  11.036  15.934
41910W        W45871   8.261  14.020  15.771
41911W        W45872   8.760  11.761  16.996
41912W        W45873   8.460  11.130  16.465
41913W        W45874   7.523  13.952  15.013
41914W        W45875   9.339  13.316  15.731
41915W        W45876   8.214  14.111  17.610
41916W        W45877   7.691  12.934  15.306
41917W        W45878   7.576  11.477  16.305
41918W        W45879   9.124  13.442  16.362
41919W        W45880   7.376  11.296  15.382
41920W        W45881  10.040  12.502  17.309
41921W        W45882   9.917  11.888  14.881
41922W        W45883  10.434  13.560  16.529
41923W        W45884   9.095  14.044  16.360
41924W        W45885   8.507  14.148  15.271
41925W        W45886   9.789  11.051  14.701
41926W        W45887   7.589  14.311  16.442
41927W        W45888   9.786  12.069  18.077
41928W        W45889   7.769  11.599  18.076
41929W        W45890   7.500  12.199  15.409
41930W        W45891   8.191  12.188  15.134
41931W        W45892   9.954  12.515  17.951
41932W        W45893   8.297  12.796  16.660
41933W        W45894   9.771  11.082  15.780
41934W        W45895   8.902  14.513  16.283
41935W        W45896  10.116  13.975  17.220
41936W        W45897   9.700  14.124  16.331
41937W        W45898   9.719  13.104  15.925
41938W        W45899   9.181  11.329  14.996
41939W        W45900  10.862  10.957  15.718
41940W        W45901   8.550  12.592  14.881
41941W        W45902  10.716  11.929  15.871
41942W        W45903   9.408  13.099  14.748
41943W        W45904  10.344  13.299  17.496
41944W        W45905   9.998  14.000  14.963
41945W        W45906   8.613  11.675  17.869
41946W        W45907   8.433  12.259  17.110
41947W        W45908  10.525  13.754  17.387
41948W        W45909   9.625  11.704  17.764
41949W        W45910   7.469  12.175  17.541
41950W        W45911   9.229  12.652  17.267
41951W        W45912   7.586  13.410  15.924
41952W        W45913   7.733  12.707  16.814
41953W        W45914  10.050  12.993  17.164
41954W        W45915   9.822  14.373  17.975
41955W        W45916   9.718  12.112  17.528
41956W        W45917   9.995  14.166  15.933
41957W        W45918   8.997  13.886  17.256
41958W        W45919   8.482  14.241  16.525
41959W        W45920  10.287  13.412  16.944
41960W        W45921   9.337  13.484  18.081
41961W        W45922   7.942  13.437  16.420
41962W        W45923  10.288  13.196  16.065
41963W        W45924   9.929  14.262  16.816
41964W        W45925   7.907  13.991  16.686
41965W        W45926   8.928  12.043  17.896
41966W        W45927   9.379  14.209  15.407
41967W        W45928   8.687  13.464  18.045
41968W        W45929   8.813  13.702  15.422
41969W        W45930   8.034  12.442  14.681
41970W        W45931   7.373  14.528  21.580
41971W        W45932   7.749  13.421  21.103
41972W        W45933  10.454  13.151  18.873
41973W        W45934  10.584  14.236  20.900
41974W        W45935   8.502  14.227  18.426
41975W        W45936   8.585  12.379  19.409
41976W        W45937   8.100  12.227  19.573
41977W        W45938   9.091  13.042  19.007
41978W        W45939   8.766  14.134  21.362
41979W        W45940   7.415  11.695  21.325
41980W        W45941   8.177  10.975  21.127
41981W        W45942   9.871  11.363  20.014
41982W        W45943   9.520  12.234  18.584
41983W        W45944  10.090  11.668  21.675
41984W        W45945   7.456  11.460  20.800
41985W        W45946   7.555  14.079  21.821
41986W        W45947   9.077  13.469  18.553
41987W        W45948   7.509  12.252  20.246
41988W        W45949   8.402  12.143  21.483
41989W        W45950  10.861  12.002  19.982
41990W        W45951  10.625  13.045  20.841
41991W        W45952   8.933  12.378  19.868
41992W        W45953   9.479  13.717  20.237
41993W        W45954   7.979  13.151  20.469
41994W        W45955   7.338  12.679  20.040
41995W        W45956   8.374  12.651  21.232
41996W        W45957  10.645  12.434  21.486
41997W        W45958   8.261  13.878  19.931
41998W        W45959   9.382  13.567  21.065
41999W        W45960   8.602  12.207  20.290
42000W        W45961   8.894  12.991  19.933
42001W        W45962   9.891  13.764  21.781
42002W        W45963   8.970  13.084  21.791
42003W        W45964   8.951  12.800  21.269
42004W        W45965   7.360  12.191  21.791
42005W        W45966  10.192  13.726  21.390
42006W        W45967   7.773  11.308  19.388
42007W        W45968   8.300  13.566  20.387
42008W        W45969  10.763  13.349  19.677
42009W        W45970  10.176  11.749  20.244
42010W        W45971  10.461  11.702  18.339
42011W        W45972  10.926  12.503  20.645
42012W        W45973   8.893  14.210  20.398
42013W        W45974  10.667  13.676  18.836
42014W        W45975   7.796  14.462  18.590
42015W        W45976   8.189  14.508  19.266
42016W        W45977   7.986  11.262  20.692
42017W        W45978  10.609  12.280  20.967
42018W        W45979  10.014  12.702  19.426
42019W        W45980   9.980  12.390  18.453
42020W        W45981   9.188  13.534  20.593
42021W        W45982   8.994  11.864  19.792
42022W        W45983   9.594  13.951  20.786
42023W        W45984  10.465  12.742  19.208
42024W        W45985   9.367  11.400  19.224
42025W        W45986   8.024  14.094  18.907
42026W        W45987   7.395  11.593  19.506
42027W        W45988  10.181  12.200  19.980
42028W        W45989   7.639  13.817  19.895
42029W        W45990   8.980  14.167  18.765
42030W        W45991  10.372  12.193  18.229
42031W        W45992   7.395  13.951  20.393
42032W        W45993   8.186  13.523  20.873
42033W        W45994   8.559  12.883  19.492
42034W        W45995   8.581  11.288  20.585
42035W        W45996  10.810  11.050  19.882
42036W        W45997   8.029  12.922  18.350
42037W        W45998   7.684  11.955  18.529
42038W        W45999   7.746  13.911  19.323
42039W        W46000   8.877  13.394  19.571
42040W        W46001  10.209  14.253  21.285
42041W        W46002   9.135  11.895  18.969
42042W        W46003  10.518  14.293  19.741
42043W        W46004  10.195  12.146  21.339
42044W        W46005  10.908  13.802  19.473
42045W        W46006   9.535  13.094  20.957
42046W        W46007   7.301  12.645  19.163
42047W        W46008   8.412  13.060  20.736
42048W        W46009   9.616  12.324  19.114
42049W        W46010   9.493  12.814  19.218
42050W        W46011   7.836  12.234  20.692
42051W        W46012   7.821  12.110  21.614
42052W        W46013   7.711  11.027  19.773
42053W        W46014   9.479  11.374  20.334
42054W        W46015   9.127  11.559  21.497
42055W        W46016   9.482  11.708  18.675
42056W        W46017  10.665  14.101  21.429
42057W        W46018   9.632  11.182  21.468
42058W        W46019  10.651  13.483  21.590
42059W        W46020  10.081  11.650  21.186
42060W        W46021   9.881  11.588  19.456
42061W        W46022  10.274  12.722  21.860
42062W        W46023   8.014  14.298  19.846
42063W        W46024   8.672  12.015  18.832
42064W        W46025   8.241  11.299  21.496
42065W        W46026  10.293  11.783  19.177
42066W        W46027  10.660  12.265  19.122
42067W        W46028   8.403  14.482  21.593
42068W        W46029   8.329  11.018  18.828
42069W        W46030  10.650  11.552  19.863
42070W        W46031  10.800  13.801  18.308
42071W        W46032   7.707  13.004  20.010
42072W        W46033   9.624  11.591  18.240
42073W        W46034  10.758  13.923  19.960
42074W        W46035  10.797  11.117  20.710
42075W        W46036   9.242  12.329  21.264
42076W        W46037   9.335  13.668  18.967
42077W        W46038   9.735  12.962  21.707
42078W        W46039   9.409  10.939  20.016
42079W        W46040   8.021  11.842  20.079
42080W        W46041   7.575  13.042  20.853
42081W        W46042   9.434  14.235  19.559
42082W        W46043  10.628  11.832  20.431
42083W        W46044   9.265  14.179  21.198
42084W        W46045  10.608  13.238  18.403
42085W        W46046   9.043  12.721  19.464
42086W        W46047  10.895  11.232  21.205
42087W        W46048   9.044  13.067  20.799
42088W        W46049   9.261  11.953  20.244
42089W        W46050  10.113  12.251  19.082
42090W        W46051  10.400  11.984  18.724
42091W        W46052  10.209  14.024  19.113
42092W        W46053  10.043  13.627  19.909
42093W        W46054   9.939  12.706  18.887
42094W        W46055   9.372  12.916  19.873
42095W        W46056  10.253  12.704  19.940
42096W        W46057   7.628  11.719  20.364
42097W        W46058  10.406  12.771  21.191
42098W        W46059  10.757  14.389  20.337
42099W        W46060   8.687  13.833  19.739
42100W        W46061   9.694  14.366  21.063
42101W        W46062   9.688  11.696  20.827
42102W        W46063   8.895  14.404  20.888
42103W        W46064  10.592  11.358  19.354
42104W        W46065  10.383  12.677  20.655
42105W        W46066   7.366  11.998  20.693
42106W        W46067  10.226  11.793  19.711
42107W        W46068  10.637  11.944  21.488
42108W        W46069   9.522  13.643  19.706
42109W        W46070   8.778  14.234  19.319
42110W        W46071   7.893  11.414  18.577
42111W        W46072   8.997  11.068  20.387
42112W        W46073   8.025  14.188  18.235
42113W        W46074   8.399  12.654  18.986
42114W        W46075   9.053  13.283  21.299
42115W        W46076   8.883  11.641  19.289
42116W        W46077  10.239  11.238  19.717
42117W        W46078   9.959  14.520  20.045
42118W        W46079   9.371  14.168  20.385
42119W        W46080   8.767  13.205  20.346
42120W        W46081  10.537  13.928  20.472
42121W        W46082   8.231  11.431  19.241
42122W        W46083   8.753  13.728  20.201
42123W        W46084   8.236  11.659  18.266
42124W        W46085   9.037  12.268  20.660
42125W        W46086   9.885  11.134  20.530
42126W        W46087   7.305  12.977  20.415
42127W        W46088   9.009  12.795  18.573
42128W        W46089   8.277  11.110  18.343
42129W        W46090   9.015  12.191  19.394
42130W        W46091   9.985  11.167  21.093
42131W        W46092   8.573  13.179  21.202
42132W        W46093   9.377  12.961  21.419
42133W        W46094   9.994  12.991  21.312
42134W        W46095   9.278  11.131  21.817
42135W        W46096   8.500  11.747  20.210
42136W        W46097   7.926  11.703  19.608
42137W        W46098   7.712  14.415  19.284
42138W        W46099   9.044  13.745  21.409
42139W        W46100   8.079  13.230  18.768
42140W        W46101   9.759  12.615  19.989
42141W        W46102  10.039  12.414  20.388
42142W        W46103   9.244  13.088  20.322
42143W        W46104   9.714  13.462  18.454
42144W        W46105   9.386  11.483  19.782
42145W        W46106  10.865  11.761  19.050
42146W        W46107   7.359  14.350  21.081
42147W        W46108   7.776  13.576  20.613
42148W        W46109   7.343  14.422  18.845
42149W        W46110   9.242  11.692  20.651
42150W        W46111   8.605  13.715  18.500
42151W        W46112  10.510  14.097  18.686
42152W        W46113   9.485  12.750  18.700
42153W        W46114   8.328  11.941  19.217
42154W        W46115   9.160  11.851  18.269
42155W        W46116   9.744  13.416  21.447
42156W        W46117  10.097  11.322  19.064
42157W        W46118   7.427  11.170  18.512
42158W        W46119   8.713  13.489  20.802
42159W        W46120   8.512  13.405  19.894
42160W        W46121   8.254  13.357  18.292
42161W        W46122   7.495  13.598  19.060
42162W        W46123   7.999  12.668  21.502
42163W        W46124   8.703  11.228  21.688
42164W        W46125   9.412  11.370  21.044
42165W        W46126   8.607  11.138  19.325
42166W        W46127   9.666  11.215  18.830
42167W        W46128   7.611  11.147  20.407
42168W        W46129   7.659  12.110  19.777
42169W        W46130  10.348  11.218  20.183
42170W        W46131   7.770  11.716  18.997
42171W        W46132  10.341  11.404  20.613
42172W        W46133  10.737  12.607  18.298
42173W        W46134   8.029  11.365  20.117
42174W        W46135   9.143  11.937  21.057
42175W        W46136   7.291  11.627  18.535
42176W        W46137   8.077  13.016  21.096
42177W        W46138   9.435  12.414  20.275
42178W        W46139   9.302  14.493  18.571
42179W        W46140   7.448  13.000  18.268
42180W        W46141   8.183  13.411  21.394
42181W        W46142   7.704  12.578  21.025
42182W        W46143   8.695  12.683  20.819
42183W        W46144  10.463  11.042  21.081
42184W        W46145  10.861  12.652  21.072
42185W        W46146  10.849  12.852  18.758
42186W        W46147   9.712  13.184  18.857
42187W        W46148  10.186  14.484  18.552
42188W        W46149   9.363  12.474  21.694
42189W        W46150   7.693  13.441  21.734
42190W        W46151  10.899  11.363  21.686
42191W        W46152  10.617  12.291  20.307
42192W        W46153   8.925  14.421  21.784
42193W        W46154   8.780  11.050  18.511
42194W        W46155  10.319  13.649  18.454
42195W        W46156   8.088  11.742  21.340
42196W        W46157   8.522  13.736  21.202
42197W        W46158  10.648  11.727  21.000
42198W        W46159   9.859  14.386  18.968
42199W        W46160  10.098  13.005  20.335
42200W        W46161   8.348  11.421  21.002
42201W        W46162   8.817  12.490  21.759
42202W        W46163   8.320  13.669  18.953
42203W        W46164  10.075  13.167  19.217
42204W        W46165   7.843  11.793  20.941
42205W        W46166   9.172  13.855  19.405
42206W        W46167  10.922  12.415  19.586
42207W        W46168   9.144  11.048  21.305
42208W        W46169   9.924  13.753  20.384
42209W        W46170  10.227  14.097  20.092
42210W        W46171   9.446  13.899  18.520
42211W        W46172   7.456  13.791  21.362
42212W        W46173   8.199  11.783  20.600
42213W        W46174   8.169  11.131  19.710
42214W        W46175   9.790  11.973  20.402
42215W        W46176   8.588  13.144  18.602
42216W        W46177  10.586  13.086  20.101
42217W        W46178   7.913  13.844  21.524
42218W        W46179  10.300  14.526  19.321
42219W        W46180   8.399  11.546  19.766
42220W        W46181   8.168  13.039  19.856
42221W        W46182   8.481  14.450  20.606
42222W        W46183  10.548  14.546  21.638
42223W        W46184   9.707  12.734  20.571
42224W        W46185   7.556  12.532  18.486
42225W        W46186  10.690  14.190  19.183
42226W        W46187  10.527  11.514  18.802
42227W        W46188   8.666  11.033  21.205
42228W        W46189  10.372  13.835  19.663
42229W        W46190  10.401  12.391  19.568
42230W        W46191   8.518  12.064  19.784
42231W        W46192   8.763  12.326  21.108
42232W        W46193   9.874  13.479  20.971
42233W        W46194   8.524  11.933  21.083
42234W        W46195   8.503  14.399  19.699
42235W        W46196   7.820  14.358  21.333
42236W        W46197   7.932  13.719  18.463
42237W        W46198  10.449  13.477  19.273
42238W        W46199   8.053  12.269  21.159
42239W        W46200  10.826  12.199  18.640
42240W        W46201   8.571  13.256  19.111
42241W        W46202   9.670  12.638  21.192
42242W        W46203   9.561  12.266  20.736
42243W        W46204   8.121  12.638  20.765
42244W        W46205  10.331  14.526  20.594
42245W        W46206  10.122  11.160  21.588
42246W        W46207   7.786  11.310  21.175
42247W        W46208   8.125  12.333  20.228
42248W        W46209   8.494  12.147  18.350
42249W        W46210   7.297  13.906  20.895
42250W        W46211   8.882  12.615  20.338
42251W        W46212   8.705  11.640  18.443
42252W        W46213   7.840  12.456  19.224
42253W        W46214   7.611  14.308  20.661
42254W        W46215  10.406  12.534  18.769
42255W        W46216  10.501  11.450  21.455
42256W        W46217   9.937  13.659  19.418
42257W        W46218   7.535  12.583  21.595
42258W        W46219  10.501  11.047  18.891
42259W        W46220  10.021  13.522  18.902
42260W        W46221   8.923  12.580  18.987
42261W        W46222  10.110  11.384  18.510
42262W        W46223  10.175  11.991  20.696
42263W        W46224   7.884  12.584  19.903
42264W        W46225   8.178  13.523  19.552
42265W        W46226   9.941  12.143  19.517
42266W        W46227   8.964  11.522  20.213
42267W        W46228  10.926  13.433  20.724
42268W        W46229  10.844  11.420  20.285
42269W        W46230   7.383  14.250  19.661
42270W        W46231   7.892  13.437  19.197
42271W        W46232   7.807  11.054  21.750
42272W        W46233   8.926  13.907  21.852
42273W        W46234  10.681  12.875  19.642
42274W        W46235  10.035  13.052  18.522
42275W        W46236   9.330  14.573  20.734
42276W        W46237  10.187  13.295  21.771
42277W        W46238   9.002  11.005  19.051
42278W        W46239   9.715  11.874  19.910
42279W        W46240   7.401  13.461  20.242
42280W        W46241   8.654  11.423  18.883
42281W        W46242   8.458  12.907  21.732
42282W        W46243   9.452  11.888  19.446
42283W        W46244   9.657  13.298  20.568
42284W        W46245   7.811  13.903  21.003
42285W        W46246   8.402  13.886  21.726
42286W        W46247   8.253  11.683  18.740
42287W        W46248   9.770  11.825  19.065
42288W        W46249   9.728  13.933  21.302
42289W        W46250   8.413  12.525  19.901
42290W        W46251   8.068  14.223  20.766
42291W        W46252  10.813  14.340  18.367
42292W        W46253   7.676  13.012  21.363
42293W        W46254   9.671  13.274  20.051
42294W        W46255   8.107  12.923  19.293
42295W        W46256   8.478  13.930  20.688
42296W        W46257   8.856  11.349  19.729
42297W        W46258   7.467  13.333  18.659
42298W        W46259   8.986  12.284  18.529
42299W        W46260   7.632  12.833  19.548
42300W        W46261   8.922  11.475  21.012
42301W        W46262  10.594  11.184  18.439
42302W        W46263  10.687  12.930  21.538
42303W        W46264   9.341  14.187  21.690
42304W        W46265  10.899  13.281  21.212
42305W        W46266  10.307  14.079  21.823
42306W        W46267   8.046  14.535  20.301
42307W        W46268  10.905  13.157  19.175
42308W        W46269   9.435  12.424  19.688
42309W        W46270   9.202  11.036  19.578
42310W        W46271   8.261  14.020  19.415
42311W        W46272   8.760  11.761  20.640
42312W        W46273   8.460  11.130  20.109
42313W        W46274   7.523  13.952  18.657
42314W        W46275   9.339  13.316  19.375
42315W        W46276   8.214  14.111  21.254
42316W        W46277   7.691  12.934  18.950
42317W        W46278   7.576  11.477  19.949
42318W        W46279   9.124  13.442  20.006
42319W        W46280   7.376  11.296  19.026
42320W        W46281  10.040  12.502  20.953
42321W        W46282   9.917  11.888  18.525
42322W        W46283  10.434  13.560  20.173
42323W        W46284   9.095  14.044  20.004
42324W        W46285   8.507  14.148  18.915
42325W        W46286   9.789  11.051  18.345
42326W        W46287   7.589  14.311  20.086
42327W        W46288   9.786  12.069  21.721
42328W        W46289   7.769  11.599  21.720
42329W        W46290   7.500  12.199  19.053
42330W        W46291   8.191  12.188  18.778
42331W        W46292   9.954  12.515  21.595
42332W        W46293   8.297  12.796  20.304
42333W        W46294   9.771  11.082  19.424
42334W        W46295   8.902  14.513  19.927
42335W        W46296  10.116  13.975  20.864
42336W        W46297   9.700  14.124  19.975
42337W        W46298   9.719  13.104  19.569
42338W        W46299   9.181  11.329  18.640
42339W        W46300  10.862  10.957  19.362
42340W        W46301   8.550  12.592  18.525
42341W        W46302  10.716  11.929  19.515
42342W        W46303   9.408  13.099  18.392
42343W        W46304  10.344  13.299  21.140
42344W        W46305   9.998  14.000  18.607
42345W        W46306   8.613  11.675  21.513
42346W        W46307   8.433  12.259  20.754
42347W        W46308  10.525  13.754  21.031
42348W        W46309   9.625  11.704  21.408
42349W        W46310   7.469  12.175  21.185
42350W        W46311   9.229  12.652  20.911
42351W        W46312   7.586  13.410  19.568
42352W        W46313   7.733  12.707  20.458
42353W        W46314  10.050  12.993  20.808
42354W        W46315   9.822  14.373  21.619
42355W        W46316   9.718  12.112  21.172
42356W        W46317   9.995  14.166  19.577
42357W        W46318   8.997  13.886  20.900
42358W        W46319   8.482  14.241  20.169
42359W        W46320  10.287  13.412  20.588
42360W        W46321   9.337  13.484  21.725
42361W        W46322   7.942  13.437  20.064
42362W        W46323  10.288  13.196  19.709
42363W        W46324   9.929  14.262  20.460
42364W        W46325   7.907  13.991  20.330
42365W        W46326   8.928  12.043  21.540
42366W        W46327   9.379  14.209  19.051
42367W        W46328   8.687  13.464  21.689
42368W        W46329   8.813  13.702  19.066
42369W        W46330   8.034  12.442  18.325
42370W        W46331  10.454  13.151  22.518
42371W        W46332   8.502  14.227  22.071
42372W        W46333   8.585  12.379  23.054
42373W        W46334   8.100  12.227  23.218
42374W        W46335   9.091  13.042  22.652
42375W        W46336   9.520  12.234  22.229
42376W        W46337   9.077  13.469  22.198
42377W        W46338   7.773  11.308  23.033
42378W        W46339  10.461  11.702  21.984
42379W        W46340  10.667  13.676  22.481
42380W        W46341   7.796  14.462  22.235
42381W        W46342   8.189  14.508  22.911
42382W        W46343  10.014  12.702  23.071
42383W        W46344   9.980  12.390  22.098
42384W        W46345  10.465  12.742  22.853
42385W        W46346   9.367  11.400  22.869
42386W        W46347   8.024  14.094  22.552
42387W        W46348   8.980  14.167  22.410
42388W        W46349  10.372  12.193  21.874
42389W        W46350   8.559  12.883  23.137
42390W        W46351   8.029  12.922  21.995
42391W        W46352   7.684  11.955  22.174
42392W        W46353   7.746  13.911  22.968
42393W        W46354   8.877  13.394  23.216
42394W        W46355   9.135  11.895  22.614
42395W        W46356   7.301  12.645  22.808
42396W        W46357   9.616  12.324  22.759
42397W        W46358   9.493  12.814  22.863
42398W        W46359   9.482  11.708  22.320
42399W        W46360   8.672  12.015  22.477
42400W        W46361  10.660  12.265  22.767
42401W        W46362   8.329  11.018  22.473
42402W        W46363  10.800  13.801  21.953
42403W        W46364   9.624  11.591  21.885
42404W        W46365   9.335  13.668  22.612
42405W        W46366   9.434  14.235  23.204
42406W        W46367  10.608  13.238  22.048
42407W        W46368   9.043  12.721  23.109
42408W        W46369  10.113  12.251  22.727
42409W        W46370  10.400  11.984  22.369
42410W        W46371  10.209  14.024  22.758
42411W        W46372   9.939  12.706  22.532
42412W        W46373   8.778  14.234  22.964
42413W        W46374   7.893  11.414  22.222
42414W        W46375   8.025  14.188  21.880
42415W        W46376   8.399  12.654  22.631
42416W        W46377   8.883  11.641  22.934
42417W        W46378   8.231  11.431  22.886
42418W        W46379   8.236  11.659  21.911
42419W        W46380   9.009  12.795  22.218
42420W        W46381   8.277  11.110  21.988
42421W        W46382   9.015  12.191  23.039
42422W        W46383   7.926  11.703  23.253
42423W        W46384   7.712  14.415  22.929
42424W        W46385   8.079  13.230  22.413
42425W        W46386   9.714  13.462  22.099
42426W        W46387  10.865  11.761  22.695
42427W        W46388   7.343  14.422  22.490
42428W        W46389   8.605  13.715  22.145
42429W        W46390  10.510  14.097  22.331
42430W        W46391   9.485  12.750  22.345
42431W        W46392   8.328  11.941  22.862
42432W        W46393   9.160  11.851  21.914
42433W        W46394  10.097  11.322  22.709
42434W        W46395   7.427  11.170  22.157
42435W        W46396   8.254  13.357  21.937
42436W        W46397   7.495  13.598  22.705
42437W        W46398   8.607  11.138  22.970
42438W        W46399   9.666  11.215  22.475
42439W        W46400   7.770  11.716  22.642
42440W        W46401  10.737  12.607  21.943
42441W        W46402   7.291  11.627  22.180
42442W        W46403   9.302  14.493  22.216
42443W        W46404   7.448  13.000  21.913
42444W        W46405  10.849  12.852  22.403
42445W        W46406   9.712  13.184  22.502
42446W        W46407  10.186  14.484  22.197
42447W        W46408   8.780  11.050  22.156
42448W        W46409  10.319  13.649  22.099
42449W        W46410   9.859  14.386  22.613
42450W        W46411   8.320  13.669  22.598
42451W        W46412  10.075  13.167  22.862
42452W        W46413   9.172  13.855  23.050
42453W        W46414  10.922  12.415  23.231
42454W        W46415   9.446  13.899  22.165
42455W        W46416   8.588  13.144  22.247
42456W        W46417  10.300  14.526  22.966
42457W        W46418   7.556  12.532  22.131
42458W        W46419  10.690  14.190  22.828
42459W        W46420  10.527  11.514  22.447
42460W        W46421  10.401  12.391  23.213
42461W        W46422   7.932  13.719  22.108
42462W        W46423  10.449  13.477  22.918
42463W        W46424  10.826  12.199  22.285
42464W        W46425   8.571  13.256  22.756
42465W        W46426   8.494  12.147  21.995
42466W        W46427   8.705  11.640  22.088
42467W        W46428   7.840  12.456  22.869
42468W        W46429  10.406  12.534  22.414
42469W        W46430   9.937  13.659  23.063
42470W        W46431  10.501  11.047  22.536
42471W        W46432  10.021  13.522  22.547
42472W        W46433   8.923  12.580  22.632
42473W        W46434  10.110  11.384  22.155
42474W        W46435   8.178  13.523  23.197
42475W        W46436   7.383  14.250  23.306
42476W        W46437   7.892  13.437  22.842
42477W        W46438  10.681  12.875  23.287
42478W        W46439  10.035  13.052  22.167
42479W        W46440   9.002  11.005  22.696
42480W        W46441   8.654  11.423  22.528
42481W        W46442   9.452  11.888  23.091
42482W        W46443   8.253  11.683  22.385
42483W        W46444   9.770  11.825  22.710
42484W        W46445  10.813  14.340  22.012
42485W        W46446   7.467  13.333  22.304
42486W        W46447   8.986  12.284  22.174
42487W        W46448   7.632  12.833  23.193
42488W        W46449  10.594  11.184  22.084
42489W        W46450  10.905  13.157  22.820
42490W        W46451   9.202  11.036  23.223
42491W        W46452   8.261  14.020  23.060
42492W        W46453   7.523  13.952  22.302
42493W        W46454   9.339  13.316  23.020
42494W        W46455   7.691  12.934  22.595
42495W        W46456   7.376  11.296  22.671
42496W        W46457   9.917  11.888  22.170
42497W        W46458   8.507  14.148  22.560
42498W        W46459   9.789  11.051  21.990
42499W        W46460   7.500  12.199  22.698
42500W        W46461   8.191  12.188  22.423
42501W        W46462   9.719  13.104  23.214
42502W        W46463   9.181  11.329  22.285
42503W        W46464   8.550  12.592  22.170
42504W        W46465  10.716  11.929  23.160
42505W        W46466   9.408  13.099  22.037
42506W        W46467   9.998  14.000  22.252
42507W        W46468   9.995  14.166  23.222
42508W        W46469   9.379  14.209  22.696
42509W        W46470   8.813  13.702  22.711
42510W        W46471   8.034  12.442  21.970
42511W        W46472   7.373  18.172   3.359
42512W        W46473   7.749  17.065   2.882
42513W        W46474  10.454  16.795   0.652
42514W        W46475  10.584  17.880   2.679
42515W        W46476   8.502  17.871   0.205
42516W        W46477   8.585  16.023   1.188
42517W        W46478   8.100  15.871   1.352
42518W        W46479   9.091  16.686   0.786
42519W        W46480   8.766  17.778   3.141
42520W        W46481   7.415  15.339   3.104
42521W        W46482   8.177  14.619   2.906
42522W        W46483   9.871  15.007   1.793
42523W        W46484   9.520  15.878   0.363
42524W        W46485  10.090  15.312   3.454
42525W        W46486   7.456  15.104   2.579
42526W        W46487   7.555  17.723   3.600
42527W        W46488   9.077  17.113   0.332
42528W        W46489   7.509  15.896   2.025
42529W        W46490   8.402  15.787   3.262
42530W        W46491  10.861  15.646   1.761
42531W        W46492  10.625  16.689   2.620
42532W        W46493   8.933  16.022   1.647
42533W        W46494   9.479  17.361   2.016
42534W        W46495   7.979  16.795   2.248
42535W        W46496   7.338  16.323   1.819
42536W        W46497   8.374  16.295   3.011
42537W        W46498  10.645  16.078   3.265
42538W        W46499   8.261  17.522   1.710
42539W        W46500   9.382  17.211   2.844
42540W        W46501   8.602  15.851   2.069
42541W        W46502   8.894  16.635   1.712
42542W        W46503   9.891  17.408   3.560
42543W        W46504   8.970  16.728   3.570
42544W        W46505   8.951  16.444   3.048
42545W        W46506   7.360  15.835   3.570
42546W        W46507  10.192  17.370   3.169
42547W        W46508   7.773  14.952   1.167
42548W        W46509   8.300  17.210   2.166
42549W        W46510  10.763  16.993   1.456
42550W        W46511  10.176  15.393   2.023
42551W        W46512  10.461  15.346   0.118
42552W        W46513  10.926  16.147   2.424
42553W        W46514   8.893  17.854   2.177
42554W        W46515  10.667  17.320   0.615
42555W        W46516   7.796  18.106   0.369
42556W        W46517   8.189  18.152   1.045
42557W        W46518   7.986  14.906   2.471
42558W        W46519  10.609  15.924   2.746
42559W        W46520  10.014  16.346   1.205
42560W        W46521   9.980  16.034   0.232
42561W        W46522   9.188  17.178   2.372
42562W        W46523   8.994  15.508   1.571
42563W        W46524   9.594  17.595   2.565
42564W        W46525  10.465  16.386   0.987
42565W        W46526   9.367  15.044   1.003
42566W        W46527   8.024  17.738   0.686
42567W        W46528   7.395  15.237   1.285
42568W        W46529  10.181  15.844   1.759
42569W        W46530   7.639  17.461   1.674
42570W        W46531   8.980  17.811   0.544
42571W        W46532  10.372  15.837   0.008
42572W        W46533   7.395  17.595   2.172
42573W        W46534   8.186  17.167   2.652
42574W        W46535   8.559  16.527   1.271
42575W        W46536   8.581  14.932   2.364
42576W        W46537  10.810  14.694   1.661
42577W        W46538   8.029  16.566   0.129
42578W        W46539   7.684  15.599   0.308
42579W        W46540   7.746  17.555   1.102
42580W        W46541   8.877  17.038   1.350
42581W        W46542  10.209  17.897   3.064
42582W        W46543   9.135  15.539   0.748
42583W        W46544  10.518  17.937   1.520
42584W        W46545  10.195  15.790   3.118
42585W        W46546  10.908  17.446   1.252
42586W        W46547   9.535  16.738   2.736
42587W        W46548   7.301  16.289   0.942
42588W        W46549   8.412  16.704   2.515
42589W        W46550   9.616  15.968   0.893
42590W        W46551   9.493  16.458   0.997
42591W        W46552   7.836  15.878   2.471
42592W        W46553   7.821  15.754   3.393
42593W        W46554   7.711  14.671   1.552
42594W        W46555   9.479  15.018   2.113
42595W        W46556   9.127  15.203   3.276
42596W        W46557   9.482  15.352   0.454
42597W        W46558  10.665  17.745   3.208
42598W        W46559   9.632  14.826   3.247
42599W        W46560  10.651  17.127   3.369
42600W        W46561  10.081  15.294   2.965
42601W        W46562   9.881  15.232   1.235
42602W        W46563  10.274  16.366   3.639
42603W        W46564   8.014  17.942   1.625
42604W        W46565   8.672  15.659   0.611
42605W        W46566   8.241  14.943   3.275
42606W        W46567  10.293  15.427   0.956
42607W        W46568  10.660  15.909   0.901
42608W        W46569   8.403  18.126   3.372
42609W        W46570   8.329  14.662   0.607
42610W        W46571  10.650  15.196   1.642
42611W        W46572  10.800  17.445   0.087
42612W        W46573   7.707  16.648   1.789
42613W        W46574   9.624  15.235   0.019
42614W        W46575  10.758  17.567   1.739
42615W        W46576  10.797  14.761   2.489
42616W        W46577   9.242  15.973   3.043
42617W        W46578   9.335  17.312   0.746
42618W        W46579   9.735  16.606   3.486
42619W        W46580   9.409  14.583   1.795
42620W        W46581   8.021  15.486   1.858
42621W        W46582   7.575  16.686   2.632
42622W        W46583   9.434  17.879   1.338
42623W        W46584  10.628  15.476   2.210
42624W        W46585   9.265  17.823   2.977
42625W        W46586  10.608  16.882   0.182
42626W        W46587   9.043  16.365   1.243
42627W        W46588  10.895  14.876   2.984
42628W        W46589   9.044  16.711   2.578
42629W        W46590   9.261  15.597   2.023
42630W        W46591  10.113  15.895   0.861
42631W        W46592  10.400  15.628   0.503
42632W        W46593  10.209  17.668   0.892
42633W        W46594  10.043  17.271   1.688
42634W        W46595   9.939  16.350   0.666
42635W        W46596   9.372  16.560   1.652
42636W        W46597  10.253  16.348   1.719
42637W        W46598   7.628  15.363   2.143
42638W        W46599  10.406  16.415   2.970
42639W        W46600  10.757  18.033   2.116
42640W        W46601   8.687  17.477   1.518
42641W        W46602   9.694  18.010   2.842
42642W        W46603   9.688  15.340   2.606
42643W        W46604   8.895  18.048   2.667
42644W        W46605  10.592  15.002   1.133
42645W        W46606  10.383  16.321   2.434
42646W        W46607   7.366  15.642   2.472
42647W        W46608  10.226  15.437   1.490
42648W        W46609  10.637  15.588   3.267
42649W        W46610   9.522  17.287   1.485
42650W        W46611   8.778  17.878   1.098
42651W        W46612   7.893  15.058   0.356
42652W        W46613   8.997  14.712   2.166
42653W        W46614   8.025  17.832   0.014
42654W        W46615   8.399  16.298   0.765
42655W        W46616   9.053  16.927   3.078
42656W        W46617   8.883  15.285   1.068
42657W        W46618  10.239  14.882   1.496
42658W        W46619   9.959  18.164   1.824
42659W        W46620   9.371  17.812   2.164
42660W        W46621   8.767  16.849   2.125
42661W        W46622  10.537  17.572   2.251
42662W        W46623   8.231  15.075   1.020
42663W        W46624   8.753  17.372   1.980
42664W        W46625   8.236  15.303   0.045
42665W        W46626   9.037  15.912   2.439
42666W        W46627   9.885  14.778   2.309
42667W        W46628   7.305  16.621   2.194
42668W        W46629   9.009  16.439   0.352
42669W        W46630   8.277  14.754   0.122
42670W        W46631   9.015  15.835   1.173
42671W        W46632   9.985  14.811   2.872
42672W        W46633   8.573  16.823   2.981
42673W        W46634   9.377  16.605   3.198
42674W        W46635   9.994  16.635   3.091
42675W        W46636   9.278  14.775   3.596
42676W        W46637   8.500  15.391   1.989
42677W        W46638   7.926  15.347   1.387
42678W        W46639   7.712  18.059   1.063
42679W        W46640   9.044  17.389   3.188
42680W        W46641   8.079  16.874   0.547
42681W        W46642   9.759  16.259   1.768
42682W        W46643  10.039  16.058   2.167
42683W        W46644   9.244  16.732   2.101
42684W        W46645   9.714  17.106   0.233
42685W        W46646   9.386  15.127   1.561
42686W        W46647  10.865  15.405   0.829
42687W        W46648   7.359  17.994   2.860
42688W        W46649   7.776  17.220   2.392
42689W        W46650   7.343  18.066   0.624
42690W        W46651   9.242  15.336   2.430
42691W        W46652   8.605  17.359   0.279
42692W        W46653  10.510  17.741   0.465
42693W        W46654   9.485  16.394   0.479
42694W        W46655   8.328  15.585   0.996
42695W        W46656   9.160  15.495   0.048
42696W        W46657   9.744  17.060   3.226
42697W        W46658  10.097  14.966   0.843
42698W        W46659   7.427  14.814   0.291
42699W        W46660   8.713  17.133   2.581
42700W        W46661   8.512  17.049   1.673
42701W        W46662   8.254  17.001   0.071
42702W        W46663   7.495  17.242   0.839
42703W        W46664   7.999  16.312   3.281
42704W        W46665   8.703  14.872   3.467
42705W        W46666   9.412  15.014   2.823
42706W        W46667   8.607  14.782   1.104
42707W        W46668   9.666  14.859   0.609
42708W        W46669   7.611  14.791   2.186
42709W        W46670   7.659  15.754   1.556
42710W        W46671  10.348  14.862   1.962
42711W        W46672   7.770  15.360   0.776
42712W        W46673  10.341  15.048   2.392
42713W        W46674  10.737  16.251   0.077
42714W        W46675   8.029  15.009   1.896
42715W        W46676   9.143  15.581   2.836
42716W        W46677   7.291  15.271   0.314
42717W        W46678   8.077  16.660   2.875
42718W        W46679   9.435  16.058   2.054
42719W        W46680   9.302  18.137   0.350
42720W        W46681   7.448  16.644   0.047
42721W        W46682   8.183  17.055   3.173
42722W        W46683   7.704  16.222   2.804
42723W        W46684   8.695  16.327   2.598
42724W        W46685  10.463  14.686   2.860
42725W        W46686  10.861  16.296   2.851
42726W        W46687  10.849  16.496   0.537
42727W        W46688   9.712  16.828   0.636
42728W        W46689  10.186  18.128   0.331
42729W        W46690   9.363  16.118   3.473
42730W        W46691   7.693  17.085   3.513
42731W        W46692  10.899  15.007   3.465
42732W        W46693  10.617  15.935   2.086
42733W        W46694   8.925  18.065   3.563
42734W        W46695   8.780  14.694   0.290
42735W        W46696  10.319  17.293   0.233
42736W        W46697   8.088  15.386   3.119
42737W        W46698   8.522  17.380   2.981
42738W        W46699  10.648  15.371   2.779
42739W        W46700   9.859  18.030   0.747
42740W        W46701  10.098  16.649   2.114
42741W        W46702   8.348  15.065   2.781
42742W        W46703   8.817  16.134   3.538
42743W        W46704   8.320  17.313   0.732
42744W        W46705  10.075  16.811   0.996
42745W        W46706   7.843  15.437   2.720
42746W        W46707   9.172  17.499   1.184
42747W        W46708  10.922  16.059   1.365
42748W        W46709   9.144  14.692   3.084
42749W        W46710   9.924  17.397   2.163
42750W        W46711  10.227  17.741   1.871
42751W        W46712   9.446  17.543   0.299
42752W        W46713   7.456  17.435   3.141
42753W        W46714   8.199  15.427   2.379
42754W        W46715   8.169  14.775   1.489
42755W        W46716   9.790  15.617   2.181
42756W        W46717   8.588  16.788   0.381
42757W        W46718  10.586  16.730   1.880
42758W        W46719   7.913  17.488   3.303
42759W        W46720  10.300  18.170   1.100
42760W        W46721   8.399  15.190   1.545
42761W        W46722   8.168  16.683   1.635
42762W        W46723   8.481  18.094   2.385
42763W        W46724  10.548  18.190   3.417
42764W        W46725   9.707  16.378   2.350
42765W        W46726   7.556  16.176   0.265
42766W        W46727  10.690  17.834   0.962
42767W        W46728  10.527  15.158   0.581
42768W        W46729   8.666  14.677   2.984
42769W        W46730  10.372  17.479   1.442
42770W        W46731  10.401  16.035   1.347
42771W        W46732   8.518  15.708   1.563
42772W        W46733   8.763  15.970   2.887
42773W        W46734   9.874  17.123   2.750
42774W        W46735   8.524  15.577   2.862
42775W        W46736   8.503  18.043   1.478
42776W        W46737   7.820  18.002   3.112
42777W        W46738   7.932  17.363   0.242
42778W        W46739  10.449  17.121   1.052
42779W        W46740   8.053  15.913   2.938
42780W        W46741  10.826  15.843   0.419
42781W        W46742   8.571  16.900   0.890
42782W        W46743   9.670  16.282   2.971
42783W        W46744   9.561  15.910   2.515
42784W        W46745   8.121  16.282   2.544
42785W        W46746  10.331  18.170   2.373
42786W        W46747  10.122  14.804   3.367
42787W        W46748   7.786  14.954   2.954
42788W        W46749   8.125  15.977   2.007
42789W        W46750   8.494  15.791   0.129
42790W        W46751   7.297  17.550   2.674
42791W        W46752   8.882  16.259   2.117
42792W        W46753   8.705  15.284   0.222
42793W        W46754   7.840  16.100   1.003
42794W        W46755   7.611  17.952   2.440
42795W        W46756  10.406  16.178   0.548
42796W        W46757  10.501  15.094   3.234
42797W        W46758   9.937  17.303   1.197
42798W        W46759   7.535  16.227   3.374
42799W        W46760  10.501  14.691   0.670
42800W        W46761  10.021  17.166   0.681
42801W        W46762   8.923  16.224   0.766
42802W        W46763  10.110  15.028   0.289
42803W        W46764  10.175  15.635   2.475
42804W        W46765   7.884  16.228   1.682
42805W        W46766   8.178  17.167   1.331
42806W        W46767   9.941  15.787   1.296
42807W        W46768   8.964  15.166   1.992
42808W        W46769  10.926  17.077   2.503
42809W        W46770  10.844  15.064   2.064
42810W        W46771   7.383  17.894   1.440
42811W        W46772   7.892  17.081   0.976
42812W        W46773   7.807  14.698   3.529
42813W        W46774   8.926  17.551   3.631
42814W        W46775  10.681  16.519   1.421
42815W        W46776  10.035  16.696   0.301
42816W        W46777   9.330  18.217   2.513
42817W        W46778  10.187  16.939   3.550
42818W        W46779   9.002  14.649   0.830
42819W        W46780   9.715  15.518   1.689
42820W        W46781   7.401  17.105   2.021
42821W        W46782   8.654  15.067   0.662
42822W        W46783   8.458  16.551   3.511
42823W        W46784   9.452  15.532   1.225
42824W        W46785   9.657  16.942   2.347
42825W        W46786   7.811  17.547   2.782
42826W        W46787   8.402  17.530   3.505
42827W        W46788   8.253  15.327   0.519
42828W        W46789   9.770  15.469   0.844
42829W        W46790   9.728  17.577   3.081
42830W        W46791   8.413  16.169   1.680
42831W        W46792   8.068  17.867   2.545
42832W        W46793  10.813  17.984   0.146
42833W        W46794   7.676  16.656   3.142
42834W        W46795   9.671  16.918   1.830
42835W        W46796   8.107  16.567   1.072
42836W        W46797   8.478  17.574   2.467
42837W        W46798   8.856  14.993   1.508
42838W        W46799   7.467  16.977   0.438
42839W        W46800   8.986  15.928   0.308
42840W        W46801   7.632  16.477   1.327
42841W        W46802   8.922  15.119   2.791
42842W        W46803  10.594  14.828   0.218
42843W        W46804  10.687  16.574   3.317
42844W        W46805   9.341  17.831   3.469
42845W        W46806  10.899  16.925   2.991
42846W        W46807  10.307  17.723   3.602
42847W        W46808   8.046  18.179   2.080
42848W        W46809  10.905  16.801   0.954
42849W        W46810   9.435  16.068   1.467
42850W        W46811   9.202  14.680   1.357
42851W        W46812   8.261  17.664   1.194
42852W        W46813   8.760  15.405   2.419
42853W        W46814   8.460  14.774   1.888
42854W        W46815   7.523  17.596   0.436
42855W        W46816   9.339  16.960   1.154
42856W        W46817   8.214  17.755   3.033
42857W        W46818   7.691  16.578   0.729
42858W        W46819   7.576  15.121   1.728
42859W        W46820   9.124  17.086   1.785
42860W        W46821   7.376  14.940   0.805
42861W        W46822  10.040  16.146   2.732
42862W        W46823   9.917  15.532   0.304
42863W        W46824  10.434  17.204   1.952
42864W        W46825   9.095  17.688   1.783
42865W        W46826   8.507  17.792   0.694
42866W        W46827   9.789  14.695   0.124
42867W        W46828   7.589  17.955   1.865
42868W        W46829   9.786  15.713   3.500
42869W        W46830   7.769  15.243   3.499
42870W        W46831   7.500  15.843   0.832
42871W        W46832   8.191  15.832   0.557
42872W        W46833   9.954  16.159   3.374
42873W        W46834   8.297  16.440   2.083
42874W        W46835   9.771  14.726   1.203
42875W        W46836   8.902  18.157   1.706
42876W        W46837  10.116  17.619   2.643
42877W        W46838   9.700  17.768   1.754
42878W        W46839   9.719  16.748   1.348
42879W        W46840   9.181  14.973   0.419
42880W        W46841  10.862  14.601   1.141
42881W        W46842   8.550  16.236   0.304
42882W        W46843  10.716  15.573   1.294
42883W        W46844   9.408  16.743   0.171
42884W        W46845  10.344  16.943   2.919
42885W        W46846   9.998  17.644   0.386
42886W        W46847   8.613  15.319   3.292
42887W        W46848   8.433  15.903   2.533
42888W        W46849  10.525  17.398   2.810
42889W        W46850   9.625  15.348   3.187
42890W        W46851   7.469  15.819   2.964
42891W        W46852   9.229  16.296   2.690
42892W        W46853   7.586  17.054   1.347
42893W        W46854   7.733  16.351   2.237
42894W        W46855  10.050  16.637   2.587
42895W        W46856   9.822  18.017   3.398
42896W        W46857   9.718  15.756   2.951
42897W        W46858   9.995  17.810   1.356
42898W        W46859   8.997  17.530   2.679
42899W        W46860   8.482  17.885   1.948
42900W        W46861  10.287  17.056   2.367
42901W        W46862   9.337  17.128   3.504
42902W        W46863   7.942  17.081   1.843
42903W        W46864  10.288  16.840   1.488
42904W        W46865   9.929  17.906   2.239
42905W        W46866   7.907  17.635   2.109
42906W        W46867   8.928  15.687   3.319
42907W        W46868   9.379  17.853   0.830
42908W        W46869   8.687  17.108   3.468
42909W        W46870   8.813  17.346   0.845
42910W        W46871   8.034  16.086   0.104
42911W        W46872   7.373  18.172   7.003
42912W        W46873   7.749  17.065   6.526
42913W        W46874  10.454  16.795   4.296
42914W        W46875  10.584  17.880   6.323
42915W        W46876   8.502  17.871   3.849
42916W        W46877   8.585  16.023   4.832
42917W        W46878   8.100  15.871   4.996
42918W        W46879   9.091  16.686   4.430
42919W        W46880   8.766  17.778   6.785
42920W        W46881   7.415  15.339   6.748
42921W        W46882   8.177  14.619   6.550
42922W        W46883   9.871  15.007   5.437
42923W        W46884   9.520  15.878   4.007
42924W        W46885  10.090  15.312   7.098
42925W        W46886   7.456  15.104   6.223
42926W        W46887   7.555  17.723   7.244
42927W        W46888   9.077  17.113   3.976
42928W        W46889   7.509  15.896   5.669
42929W        W46890   8.402  15.787   6.906
42930W        W46891  10.861  15.646   5.405
42931W        W46892  10.625  16.689   6.264
42932W        W46893   8.933  16.022   5.291
42933W        W46894   9.479  17.361   5.660
42934W        W46895   7.979  16.795   5.892
42935W        W46896   7.338  16.323   5.463
42936W        W46897   8.374  16.295   6.655
42937W        W46898  10.645  16.078   6.909
42938W        W46899   8.261  17.522   5.354
42939W        W46900   9.382  17.211   6.488
42940W        W46901   8.602  15.851   5.713
42941W        W46902   8.894  16.635   5.356
42942W        W46903   9.891  17.408   7.204
42943W        W46904   8.970  16.728   7.214
42944W        W46905   8.951  16.444   6.692
42945W        W46906   7.360  15.835   7.214
42946W        W46907  10.192  17.370   6.813
42947W        W46908   7.773  14.952   4.811
42948W        W46909   8.300  17.210   5.810
42949W        W46910  10.763  16.993   5.100
42950W        W46911  10.176  15.393   5.667
42951W        W46912  10.461  15.346   3.762
42952W        W46913  10.926  16.147   6.068
42953W        W46914   8.893  17.854   5.821
42954W        W46915  10.667  17.320   4.259
42955W        W46916   7.796  18.106   4.013
42956W        W46917   8.189  18.152   4.689
42957W        W46918   7.986  14.906   6.115
42958W        W46919  10.609  15.924   6.390
42959W        W46920  10.014  16.346   4.849
42960W        W46921   9.980  16.034   3.876
42961W        W46922   9.188  17.178   6.016
42962W        W46923   8.994  15.508   5.215
42963W        W46924   9.594  17.595   6.209
42964W        W46925  10.465  16.386   4.631
42965W        W46926   9.367  15.044   4.647
42966W        W46927   8.024  17.738   4.330
42967W        W46928   7.395  15.237   4.929
42968W        W46929  10.181  15.844   5.403
42969W        W46930   7.639  17.461   5.318
42970W        W46931   8.980  17.811   4.188
42971W        W46932  10.372  15.837   3.652
42972W        W46933   7.395  17.595   5.816
42973W        W46934   8.186  17.167   6.296
42974W        W46935   8.559  16.527   4.915
42975W        W46936   8.581  14.932   6.008
42976W        W46937  10.810  14.694   5.305
42977W        W46938   8.029  16.566   3.773
42978W        W46939   7.684  15.599   3.952
42979W        W46940   7.746  17.555   4.746
42980W        W46941   8.877  17.038   4.994
42981W        W46942  10.209  17.897   6.708
42982W        W46943   9.135  15.539   4.392
42983W        W46944  10.518  17.937   5.164
42984W        W46945  10.195  15.790   6.762
42985W        W46946  10.908  17.446   4.896
42986W        W46947   9.535  16.738   6.380
42987W        W46948   7.301  16.289   4.586
42988W        W46949   8.412  16.704   6.159
42989W        W46950   9.616  15.968   4.537
42990W        W46951   9.493  16.458   4.641
42991W        W46952   7.836  15.878   6.115
42992W        W46953   7.821  15.754   7.037
42993W        W46954   7.711  14.671   5.196
42994W        W46955   9.479  15.018   5.757
42995W        W46956   9.127  15.203   6.920
42996W        W46957   9.482  15.352   4.098
42997W        W46958  10.665  17.745   6.852
42998W        W46959   9.632  14.826   6.891
42999W        W46960  10.651  17.127   7.013
43000W        W46961  10.081  15.294   6.609
43001W        W46962   9.881  15.232   4.879
43002W        W46963  10.274  16.366   7.283
43003W        W46964   8.014  17.942   5.269
43004W        W46965   8.672  15.659   4.255
43005W        W46966   8.241  14.943   6.919
43006W        W46967  10.293  15.427   4.600
43007W        W46968  10.660  15.909   4.545
43008W        W46969   8.403  18.126   7.016
43009W        W46970   8.329  14.662   4.251
43010W        W46971  10.650  15.196   5.286
43011W        W46972  10.800  17.445   3.731
43012W        W46973   7.707  16.648   5.433
43013W        W46974   9.624  15.235   3.663
43014W        W46975  10.758  17.567   5.383
43015W        W46976  10.797  14.761   6.133
43016W        W46977   9.242  15.973   6.687
43017W        W46978   9.335  17.312   4.390
43018W        W46979   9.735  16.606   7.130
43019W        W46980   9.409  14.583   5.439
43020W        W46981   8.021  15.486   5.502
43021W        W46982   7.575  16.686   6.276
43022W        W46983   9.434  17.879   4.982
43023W        W46984  10.628  15.476   5.854
43024W        W46985   9.265  17.823   6.621
43025W        W46986  10.608  16.882   3.826
43026W        W46987   9.043  16.365   4.887
43027W        W46988  10.895  14.876   6.628
43028W        W46989   9.044  16.711   6.222
43029W        W46990   9.261  15.597   5.667
43030W        W46991  10.113  15.895   4.505
43031W        W46992  10.400  15.628   4.147
43032W        W46993  10.209  17.668   4.536
43033W        W46994  10.043  17.271   5.332
43034W        W46995   9.939  16.350   4.310
43035W        W46996   9.372  16.560   5.296
43036W        W46997  10.253  16.348   5.363
43037W        W46998   7.628  15.363   5.787
43038W        W46999  10.406  16.415   6.614
43039W        W47000  10.757  18.033   5.760
43040W        W47001   8.687  17.477   5.162
43041W        W47002   9.694  18.010   6.486
43042W        W47003   9.688  15.340   6.250
43043W        W47004   8.895  18.048   6.311
43044W        W47005  10.592  15.002   4.777
43045W        W47006  10.383  16.321   6.078
43046W        W47007   7.366  15.642   6.116
43047W        W47008  10.226  15.437   5.134
43048W        W47009  10.637  15.588   6.911
43049W        W47010   9.522  17.287   5.129
43050W        W47011   8.778  17.878   4.742
43051W        W47012   7.893  15.058   4.000
43052W        W47013   8.997  14.712   5.810
43053W        W47014   8.025  17.832   3.658
43054W        W47015   8.399  16.298   4.409
43055W        W47016   9.053  16.927   6.722
43056W        W47017   8.883  15.285   4.712
43057W        W47018  10.239  14.882   5.140
43058W        W47019   9.959  18.164   5.468
43059W        W47020   9.371  17.812   5.808
43060W        W47021   8.767  16.849   5.769
43061W        W47022  10.537  17.572   5.895
43062W        W47023   8.231  15.075   4.664
43063W        W47024   8.753  17.372   5.624
43064W        W47025   8.236  15.303   3.689
43065W        W47026   9.037  15.912   6.083
43066W        W47027   9.885  14.778   5.953
43067W        W47028   7.305  16.621   5.838
43068W        W47029   9.009  16.439   3.996
43069W        W47030   8.277  14.754   3.766
43070W        W47031   9.015  15.835   4.817
43071W        W47032   9.985  14.811   6.516
43072W        W47033   8.573  16.823   6.625
43073W        W47034   9.377  16.605   6.842
43074W        W47035   9.994  16.635   6.735
43075W        W47036   9.278  14.775   7.240
43076W        W47037   8.500  15.391   5.633
43077W        W47038   7.926  15.347   5.031
43078W        W47039   7.712  18.059   4.707
43079W        W47040   9.044  17.389   6.832
43080W        W47041   8.079  16.874   4.191
43081W        W47042   9.759  16.259   5.412
43082W        W47043  10.039  16.058   5.811
43083W        W47044   9.244  16.732   5.745
43084W        W47045   9.714  17.106   3.877
43085W        W47046   9.386  15.127   5.205
43086W        W47047  10.865  15.405   4.473
43087W        W47048   7.359  17.994   6.504
43088W        W47049   7.776  17.220   6.036
43089W        W47050   7.343  18.066   4.268
43090W        W47051   9.242  15.336   6.074
43091W        W47052   8.605  17.359   3.923
43092W        W47053  10.510  17.741   4.109
43093W        W47054   9.485  16.394   4.123
43094W        W47055   8.328  15.585   4.640
43095W        W47056   9.160  15.495   3.692
43096W        W47057   9.744  17.060   6.870
43097W        W47058  10.097  14.966   4.487
43098W        W47059   7.427  14.814   3.935
43099W        W47060   8.713  17.133   6.225
43100W        W47061   8.512  17.049   5.317
43101W        W47062   8.254  17.001   3.715
43102W        W47063   7.495  17.242   4.483
43103W        W47064   7.999  16.312   6.925
43104W        W47065   8.703  14.872   7.111
43105W        W47066   9.412  15.014   6.467
43106W        W47067   8.607  14.782   4.748
43107W        W47068   9.666  14.859   4.253
43108W        W47069   7.611  14.791   5.830
43109W        W47070   7.659  15.754   5.200
43110W        W47071  10.348  14.862   5.606
43111W        W47072   7.770  15.360   4.420
43112W        W47073  10.341  15.048   6.036
43113W        W47074  10.737  16.251   3.721
43114W        W47075   8.029  15.009   5.540
43115W        W47076   9.143  15.581   6.480
43116W        W47077   7.291  15.271   3.958
43117W        W47078   8.077  16.660   6.519
43118W        W47079   9.435  16.058   5.698
43119W        W47080   9.302  18.137   3.994
43120W        W47081   7.448  16.644   3.691
43121W        W47082   8.183  17.055   6.817
43122W        W47083   7.704  16.222   6.448
43123W        W47084   8.695  16.327   6.242
43124W        W47085  10.463  14.686   6.504
43125W        W47086  10.861  16.296   6.495
43126W        W47087  10.849  16.496   4.181
43127W        W47088   9.712  16.828   4.280
43128W        W47089  10.186  18.128   3.975
43129W        W47090   9.363  16.118   7.117
43130W        W47091   7.693  17.085   7.157
43131W        W47092  10.899  15.007   7.109
43132W        W47093  10.617  15.935   5.730
43133W        W47094   8.925  18.065   7.207
43134W        W47095   8.780  14.694   3.934
43135W        W47096  10.319  17.293   3.877
43136W        W47097   8.088  15.386   6.763
43137W        W47098   8.522  17.380   6.625
43138W        W47099  10.648  15.371   6.423
43139W        W47100   9.859  18.030   4.391
43140W        W47101  10.098  16.649   5.758
43141W        W47102   8.348  15.065   6.425
43142W        W47103   8.817  16.134   7.182
43143W        W47104   8.320  17.313   4.376
43144W        W47105  10.075  16.811   4.640
43145W        W47106   7.843  15.437   6.364
43146W        W47107   9.172  17.499   4.828
43147W        W47108  10.922  16.059   5.009
43148W        W47109   9.144  14.692   6.728
43149W        W47110   9.924  17.397   5.807
43150W        W47111  10.227  17.741   5.515
43151W        W47112   9.446  17.543   3.943
43152W        W47113   7.456  17.435   6.785
43153W        W47114   8.199  15.427   6.023
43154W        W47115   8.169  14.775   5.133
43155W        W47116   9.790  15.617   5.825
43156W        W47117   8.588  16.788   4.025
43157W        W47118  10.586  16.730   5.524
43158W        W47119   7.913  17.488   6.947
43159W        W47120  10.300  18.170   4.744
43160W        W47121   8.399  15.190   5.189
43161W        W47122   8.168  16.683   5.279
43162W        W47123   8.481  18.094   6.029
43163W        W47124  10.548  18.190   7.061
43164W        W47125   9.707  16.378   5.994
43165W        W47126   7.556  16.176   3.909
43166W        W47127  10.690  17.834   4.606
43167W        W47128  10.527  15.158   4.225
43168W        W47129   8.666  14.677   6.628
43169W        W47130  10.372  17.479   5.086
43170W        W47131  10.401  16.035   4.991
43171W        W47132   8.518  15.708   5.207
43172W        W47133   8.763  15.970   6.531
43173W        W47134   9.874  17.123   6.394
43174W        W47135   8.524  15.577   6.506
43175W        W47136   8.503  18.043   5.122
43176W        W47137   7.820  18.002   6.756
43177W        W47138   7.932  17.363   3.886
43178W        W47139  10.449  17.121   4.696
43179W        W47140   8.053  15.913   6.582
43180W        W47141  10.826  15.843   4.063
43181W        W47142   8.571  16.900   4.534
43182W        W47143   9.670  16.282   6.615
43183W        W47144   9.561  15.910   6.159
43184W        W47145   8.121  16.282   6.188
43185W        W47146  10.331  18.170   6.017
43186W        W47147  10.122  14.804   7.011
43187W        W47148   7.786  14.954   6.598
43188W        W47149   8.125  15.977   5.651
43189W        W47150   8.494  15.791   3.773
43190W        W47151   7.297  17.550   6.318
43191W        W47152   8.882  16.259   5.761
43192W        W47153   8.705  15.284   3.866
43193W        W47154   7.840  16.100   4.647
43194W        W47155   7.611  17.952   6.084
43195W        W47156  10.406  16.178   4.192
43196W        W47157  10.501  15.094   6.878
43197W        W47158   9.937  17.303   4.841
43198W        W47159   7.535  16.227   7.018
43199W        W47160  10.501  14.691   4.314
43200W        W47161  10.021  17.166   4.325
43201W        W47162   8.923  16.224   4.410
43202W        W47163  10.110  15.028   3.933
43203W        W47164  10.175  15.635   6.119
43204W        W47165   7.884  16.228   5.326
43205W        W47166   8.178  17.167   4.975
43206W        W47167   9.941  15.787   4.940
43207W        W47168   8.964  15.166   5.636
43208W        W47169  10.926  17.077   6.147
43209W        W47170  10.844  15.064   5.708
43210W        W47171   7.383  17.894   5.084
43211W        W47172   7.892  17.081   4.620
43212W        W47173   7.807  14.698   7.173
43213W        W47174   8.926  17.551   7.275
43214W        W47175  10.681  16.519   5.065
43215W        W47176  10.035  16.696   3.945
43216W        W47177   9.330  18.217   6.157
43217W        W47178  10.187  16.939   7.194
43218W        W47179   9.002  14.649   4.474
43219W        W47180   9.715  15.518   5.333
43220W        W47181   7.401  17.105   5.665
43221W        W47182   8.654  15.067   4.306
43222W        W47183   8.458  16.551   7.155
43223W        W47184   9.452  15.532   4.869
43224W        W47185   9.657  16.942   5.991
43225W        W47186   7.811  17.547   6.426
43226W        W47187   8.402  17.530   7.149
43227W        W47188   8.253  15.327   4.163
43228W        W47189   9.770  15.469   4.488
43229W        W47190   9.728  17.577   6.725
43230W        W47191   8.413  16.169   5.324
43231W        W47192   8.068  17.867   6.189
43232W        W47193  10.813  17.984   3.790
43233W        W47194   7.676  16.656   6.786
43234W        W47195   9.671  16.918   5.474
43235W        W47196   8.107  16.567   4.716
43236W        W47197   8.478  17.574   6.111
43237W        W47198   8.856  14.993   5.152
43238W        W47199   7.467  16.977   4.082
43239W        W47200   8.986  15.928   3.952
43240W        W47201   7.632  16.477   4.971
43241W        W47202   8.922  15.119   6.435
43242W        W47203  10.594  14.828   3.862
43243W        W47204  10.687  16.574   6.961
43244W        W47205   9.341  17.831   7.113
43245W        W47206  10.899  16.925   6.635
43246W        W47207  10.307  17.723   7.246
43247W        W47208   8.046  18.179   5.724
43248W        W47209  10.905  16.801   4.598
43249W        W47210   9.435  16.068   5.111
43250W        W47211   9.202  14.680   5.001
43251W        W47212   8.261  17.664   4.838
43252W        W47213   8.760  15.405   6.063
43253W        W47214   8.460  14.774   5.532
43254W        W47215   7.523  17.596   4.080
43255W        W47216   9.339  16.960   4.798
43256W        W47217   8.214  17.755   6.677
43257W        W47218   7.691  16.578   4.373
43258W        W47219   7.576  15.121   5.372
43259W        W47220   9.124  17.086   5.429
43260W        W47221   7.376  14.940   4.449
43261W        W47222  10.040  16.146   6.376
43262W        W47223   9.917  15.532   3.948
43263W        W47224  10.434  17.204   5.596
43264W        W47225   9.095  17.688   5.427
43265W        W47226   8.507  17.792   4.338
43266W        W47227   9.789  14.695   3.768
43267W        W47228   7.589  17.955   5.509
43268W        W47229   9.786  15.713   7.144
43269W        W47230   7.769  15.243   7.143
43270W        W47231   7.500  15.843   4.476
43271W        W47232   8.191  15.832   4.201
43272W        W47233   9.954  16.159   7.018
43273W        W47234   8.297  16.440   5.727
43274W        W47235   9.771  14.726   4.847
43275W        W47236   8.902  18.157   5.350
43276W        W47237  10.116  17.619   6.287
43277W        W47238   9.700  17.768   5.398
43278W        W47239   9.719  16.748   4.992
43279W        W47240   9.181  14.973   4.063
43280W        W47241  10.862  14.601   4.785
43281W        W47242   8.550  16.236   3.948
43282W        W47243  10.716  15.573   4.938
43283W        W47244   9.408  16.743   3.815
43284W        W47245  10.344  16.943   6.563
43285W        W47246   9.998  17.644   4.030
43286W        W47247   8.613  15.319   6.936
43287W        W47248   8.433  15.903   6.177
43288W        W47249  10.525  17.398   6.454
43289W        W47250   9.625  15.348   6.831
43290W        W47251   7.469  15.819   6.608
43291W        W47252   9.229  16.296   6.334
43292W        W47253   7.586  17.054   4.991
43293W        W47254   7.733  16.351   5.881
43294W        W47255  10.050  16.637   6.231
43295W        W47256   9.822  18.017   7.042
43296W        W47257   9.718  15.756   6.595
43297W        W47258   9.995  17.810   5.000
43298W        W47259   8.997  17.530   6.323
43299W        W47260   8.482  17.885   5.592
43300W        W47261  10.287  17.056   6.011
43301W        W47262   9.337  17.128   7.148
43302W        W47263   7.942  17.081   5.487
43303W        W47264  10.288  16.840   5.132
43304W        W47265   9.929  17.906   5.883
43305W        W47266   7.907  17.635   5.753
43306W        W47267   8.928  15.687   6.963
43307W        W47268   9.379  17.853   4.474
43308W        W47269   8.687  17.108   7.112
43309W        W47270   8.813  17.346   4.489
43310W        W47271   8.034  16.086   3.748
43311W        W47272   7.373  18.172  10.648
43312W        W47273   7.749  17.065  10.171
43313W        W47274  10.454  16.795   7.941
43314W        W47275  10.584  17.880   9.968
43315W        W47276   8.502  17.871   7.494
43316W        W47277   8.585  16.023   8.477
43317W        W47278   8.100  15.871   8.641
43318W        W47279   9.091  16.686   8.075
43319W        W47280   8.766  17.778  10.430
43320W        W47281   7.415  15.339  10.393
43321W        W47282   8.177  14.619  10.195
43322W        W47283   9.871  15.007   9.082
43323W        W47284   9.520  15.878   7.652
43324W        W47285  10.090  15.312  10.743
43325W        W47286   7.456  15.104   9.868
43326W        W47287   7.555  17.723  10.889
43327W        W47288   9.077  17.113   7.621
43328W        W47289   7.509  15.896   9.314
43329W        W47290   8.402  15.787  10.551
43330W        W47291  10.861  15.646   9.050
43331W        W47292  10.625  16.689   9.909
43332W        W47293   8.933  16.022   8.936
43333W        W47294   9.479  17.361   9.305
43334W        W47295   7.979  16.795   9.537
43335W        W47296   7.338  16.323   9.108
43336W        W47297   8.374  16.295  10.300
43337W        W47298  10.645  16.078  10.554
43338W        W47299   8.261  17.522   8.999
43339W        W47300   9.382  17.211  10.133
43340W        W47301   8.602  15.851   9.358
43341W        W47302   8.894  16.635   9.001
43342W        W47303   9.891  17.408  10.849
43343W        W47304   8.970  16.728  10.859
43344W        W47305   8.951  16.444  10.337
43345W        W47306   7.360  15.835  10.859
43346W        W47307  10.192  17.370  10.458
43347W        W47308   7.773  14.952   8.456
43348W        W47309   8.300  17.210   9.455
43349W        W47310  10.763  16.993   8.745
43350W        W47311  10.176  15.393   9.312
43351W        W47312  10.461  15.346   7.407
43352W        W47313  10.926  16.147   9.713
43353W        W47314   8.893  17.854   9.466
43354W        W47315  10.667  17.320   7.904
43355W        W47316   7.796  18.106   7.658
43356W        W47317   8.189  18.152   8.334
43357W        W47318   7.986  14.906   9.760
43358W        W47319  10.609  15.924  10.035
43359W        W47320  10.014  16.346   8.494
43360W        W47321   9.980  16.034   7.521
43361W        W47322   9.188  17.178   9.661
43362W        W47323   8.994  15.508   8.860
43363W        W47324   9.594  17.595   9.854
43364W        W47325  10.465  16.386   8.276
43365W        W47326   9.367  15.044   8.292
43366W        W47327   8.024  17.738   7.975
43367W        W47328   7.395  15.237   8.574
43368W        W47329  10.181  15.844   9.048
43369W        W47330   7.639  17.461   8.963
43370W        W47331   8.980  17.811   7.833
43371W        W47332  10.372  15.837   7.297
43372W        W47333   7.395  17.595   9.461
43373W        W47334   8.186  17.167   9.941
43374W        W47335   8.559  16.527   8.560
43375W        W47336   8.581  14.932   9.653
43376W        W47337  10.810  14.694   8.950
43377W        W47338   8.029  16.566   7.418
43378W        W47339   7.684  15.599   7.597
43379W        W47340   7.746  17.555   8.391
43380W        W47341   8.877  17.038   8.639
43381W        W47342  10.209  17.897  10.353
43382W        W47343   9.135  15.539   8.037
43383W        W47344  10.518  17.937   8.809
43384W        W47345  10.195  15.790  10.407
43385W        W47346  10.908  17.446   8.541
43386W        W47347   9.535  16.738  10.025
43387W        W47348   7.301  16.289   8.231
43388W        W47349   8.412  16.704   9.804
43389W        W47350   9.616  15.968   8.182
43390W        W47351   9.493  16.458   8.286
43391W        W47352   7.836  15.878   9.760
43392W        W47353   7.821  15.754  10.682
43393W        W47354   7.711  14.671   8.841
43394W        W47355   9.479  15.018   9.402
43395W        W47356   9.127  15.203  10.565
43396W        W47357   9.482  15.352   7.743
43397W        W47358  10.665  17.745  10.497
43398W        W47359   9.632  14.826  10.536
43399W        W47360  10.651  17.127  10.658
43400W        W47361  10.081  15.294  10.254
43401W        W47362   9.881  15.232   8.524
43402W        W47363  10.274  16.366  10.928
43403W        W47364   8.014  17.942   8.914
43404W        W47365   8.672  15.659   7.900
43405W        W47366   8.241  14.943  10.564
43406W        W47367  10.293  15.427   8.245
43407W        W47368  10.660  15.909   8.190
43408W        W47369   8.403  18.126  10.661
43409W        W47370   8.329  14.662   7.896
43410W        W47371  10.650  15.196   8.931
43411W        W47372  10.800  17.445   7.376
43412W        W47373   7.707  16.648   9.078
43413W        W47374   9.624  15.235   7.308
43414W        W47375  10.758  17.567   9.028
43415W        W47376   9.242  15.973  10.332
43416W        W47377   9.335  17.312   8.035
43417W        W47378   9.735  16.606  10.775
43418W        W47379   9.409  14.583   9.084
43419W        W47380   8.021  15.486   9.147
43420W        W47381   7.575  16.686   9.921
43421W        W47382   9.434  17.879   8.627
43422W        W47383  10.628  15.476   9.499
43423W        W47384   9.265  17.823  10.266
43424W        W47385  10.608  16.882   7.471
43425W        W47386   9.043  16.365   8.532
43426W        W47387  10.895  14.876  10.273
43427W        W47388   9.044  16.711   9.867
43428W        W47389   9.261  15.597   9.312
43429W        W47390  10.113  15.895   8.150
43430W        W47391  10.400  15.628   7.792
43431W        W47392  10.209  17.668   8.181
43432W        W47393  10.043  17.271   8.977
43433W        W47394   9.939  16.350   7.955
43434W        W47395   9.372  16.560   8.941
43435W        W47396  10.253  16.348   9.008
43436W        W47397   7.628  15.363   9.432
43437W        W47398  10.406  16.415  10.259
43438W        W47399  10.757  18.033   9.405
43439W        W47400   8.687  17.477   8.807
43440W        W47401   9.694  18.010  10.131
43441W        W47402   9.688  15.340   9.895
43442W        W47403   8.895  18.048   9.956
43443W        W47404  10.592  15.002   8.422
43444W        W47405  10.383  16.321   9.723
43445W        W47406   7.366  15.642   9.761
43446W        W47407  10.226  15.437   8.779
43447W        W47408  10.637  15.588  10.556
43448W        W47409   9.522  17.287   8.774
43449W        W47410   8.778  17.878   8.387
43450W        W47411   7.893  15.058   7.645
43451W        W47412   8.997  14.712   9.455
43452W        W47413   8.025  17.832   7.303
43453W        W47414   8.399  16.298   8.054
43454W        W47415   9.053  16.927  10.367
43455W        W47416   8.883  15.285   8.357
43456W        W47417  10.239  14.882   8.785
43457W        W47418   9.959  18.164   9.113
43458W        W47419   9.371  17.812   9.453
43459W        W47420   8.767  16.849   9.414
43460W        W47421  10.537  17.572   9.540
43461W        W47422   8.231  15.075   8.309
43462W        W47423   8.753  17.372   9.269
43463W        W47424   8.236  15.303   7.334
43464W        W47425   9.037  15.912   9.728
43465W        W47426   7.305  16.621   9.483
43466W        W47427   9.009  16.439   7.641
43467W        W47428   8.277  14.754   7.411
43468W        W47429   9.015  15.835   8.462
43469W        W47430   9.985  14.811  10.161
43470W        W47431   8.573  16.823  10.270
43471W        W47432   9.377  16.605  10.487
43472W        W47433   9.994  16.635  10.380
43473W        W47434   9.278  14.775  10.885
43474W        W47435   8.500  15.391   9.278
43475W        W47436   7.926  15.347   8.676
43476W        W47437   7.712  18.059   8.352
43477W        W47438   9.044  17.389  10.477
43478W        W47439   8.079  16.874   7.836
43479W        W47440   9.759  16.259   9.057
43480W        W47441  10.039  16.058   9.456
43481W        W47442   9.244  16.732   9.390
43482W        W47443   9.714  17.106   7.522
43483W        W47444   9.386  15.127   8.850
43484W        W47445  10.865  15.405   8.118
43485W        W47446   7.359  17.994  10.149
43486W        W47447   7.776  17.220   9.681
43487W        W47448   7.343  18.066   7.913
43488W        W47449   9.242  15.336   9.719
43489W        W47450   8.605  17.359   7.568
43490W        W47451  10.510  17.741   7.754
43491W        W47452   9.485  16.394   7.768
43492W        W47453   8.328  15.585   8.285
43493W        W47454   9.160  15.495   7.337
43494W        W47455   9.744  17.060  10.515
43495W        W47456  10.097  14.966   8.132
43496W        W47457   7.427  14.814   7.580
43497W        W47458   8.713  17.133   9.870
43498W        W47459   8.512  17.049   8.962
43499W        W47460   8.254  17.001   7.360
43500W        W47461   7.495  17.242   8.128
43501W        W47462   7.999  16.312  10.570
43502W        W47463   8.703  14.872  10.756
43503W        W47464   9.412  15.014  10.112
43504W        W47465   8.607  14.782   8.393
43505W        W47466   9.666  14.859   7.898
43506W        W47467   7.611  14.791   9.475
43507W        W47468   7.659  15.754   8.845
43508W        W47469  10.348  14.862   9.251
43509W        W47470   7.770  15.360   8.065
43510W        W47471  10.341  15.048   9.681
43511W        W47472  10.737  16.251   7.366
43512W        W47473   8.029  15.009   9.185
43513W        W47474   9.143  15.581  10.125
43514W        W47475   7.291  15.271   7.603
43515W        W47476   8.077  16.660  10.164
43516W        W47477   9.435  16.058   9.343
43517W        W47478   9.302  18.137   7.639
43518W        W47479   7.448  16.644   7.336
43519W        W47480   8.183  17.055  10.462
43520W        W47481   7.704  16.222  10.093
43521W        W47482   8.695  16.327   9.887
43522W        W47483  10.463  14.686  10.149
43523W        W47484  10.861  16.296  10.140
43524W        W47485  10.849  16.496   7.826
43525W        W47486   9.712  16.828   7.925
43526W        W47487  10.186  18.128   7.620
43527W        W47488   9.363  16.118  10.762
43528W        W47489   7.693  17.085  10.802
43529W        W47490  10.899  15.007  10.754
43530W        W47491  10.617  15.935   9.375
43531W        W47492   8.925  18.065  10.852
43532W        W47493   8.780  14.694   7.579
43533W        W47494  10.319  17.293   7.522
43534W        W47495   8.088  15.386  10.408
43535W        W47496   8.522  17.380  10.270
43536W        W47497  10.648  15.371  10.068
43537W        W47498   9.859  18.030   8.036
43538W        W47499  10.098  16.649   9.403
43539W        W47500   8.348  15.065  10.070
43540W        W47501   8.817  16.134  10.827
43541W        W47502   8.320  17.313   8.021
43542W        W47503  10.075  16.811   8.285
43543W        W47504   7.843  15.437  10.009
43544W        W47505   9.172  17.499   8.473
43545W        W47506  10.922  16.059   8.654
43546W        W47507   9.144  14.692  10.373
43547W        W47508   9.924  17.397   9.452
43548W        W47509  10.227  17.741   9.160
43549W        W47510   9.446  17.543   7.588
43550W        W47511   7.456  17.435  10.430
43551W        W47512   8.199  15.427   9.668
43552W        W47513   8.169  14.775   8.778
43553W        W47514   9.790  15.617   9.470
43554W        W47515   8.588  16.788   7.670
43555W        W47516  10.586  16.730   9.169
43556W        W47517   7.913  17.488  10.592
43557W        W47518  10.300  18.170   8.389
43558W        W47519   8.399  15.190   8.834
43559W        W47520   8.168  16.683   8.924
43560W        W47521   8.481  18.094   9.674
43561W        W47522  10.548  18.190  10.706
43562W        W47523   9.707  16.378   9.639
43563W        W47524   7.556  16.176   7.554
43564W        W47525  10.690  17.834   8.251
43565W        W47526  10.527  15.158   7.870
43566W        W47527   8.666  14.677  10.273
43567W        W47528  10.372  17.479   8.731
43568W        W47529  10.401  16.035   8.636
43569W        W47530   8.518  15.708   8.852
43570W        W47531   8.763  15.970  10.176
43571W        W47532   9.874  17.123  10.039
43572W        W47533   8.524  15.577  10.151
43573W        W47534   8.503  18.043   8.767
43574W        W47535   7.820  18.002  10.401
43575W        W47536   7.932  17.363   7.531
43576W        W47537  10.449  17.121   8.341
43577W        W47538   8.053  15.913  10.227
43578W        W47539  10.826  15.843   7.708
43579W        W47540   8.571  16.900   8.179
43580W        W47541   9.670  16.282  10.260
43581W        W47542   9.561  15.910   9.804
43582W        W47543   8.121  16.282   9.833
43583W        W47544  10.331  18.170   9.662
43584W        W47545  10.122  14.804  10.656
43585W        W47546   7.786  14.954  10.243
43586W        W47547   8.125  15.977   9.296
43587W        W47548   8.494  15.791   7.418
43588W        W47549   7.297  17.550   9.963
43589W        W47550   8.882  16.259   9.406
43590W        W47551   8.705  15.284   7.511
43591W        W47552   7.840  16.100   8.292
43592W        W47553   7.611  17.952   9.729
43593W        W47554  10.406  16.178   7.837
43594W        W47555  10.501  15.094  10.523
43595W        W47556   9.937  17.303   8.486
43596W        W47557   7.535  16.227  10.663
43597W        W47558  10.501  14.691   7.959
43598W        W47559  10.021  17.166   7.970
43599W        W47560   8.923  16.224   8.055
43600W        W47561  10.110  15.028   7.578
43601W        W47562  10.175  15.635   9.764
43602W        W47563   7.884  16.228   8.971
43603W        W47564   8.178  17.167   8.620
43604W        W47565   9.941  15.787   8.585
43605W        W47566   8.964  15.166   9.281
43606W        W47567  10.926  17.077   9.792
43607W        W47568   7.383  17.894   8.729
43608W        W47569   7.892  17.081   8.265
43609W        W47570   7.807  14.698  10.818
43610W        W47571   8.926  17.551  10.920
43611W        W47572  10.681  16.519   8.710
43612W        W47573  10.035  16.696   7.590
43613W        W47574   9.330  18.217   9.802
43614W        W47575  10.187  16.939  10.839
43615W        W47576   9.002  14.649   8.119
43616W        W47577   9.715  15.518   8.978
43617W        W47578   7.401  17.105   9.310
43618W        W47579   8.654  15.067   7.951
43619W        W47580   8.458  16.551  10.800
43620W        W47581   9.452  15.532   8.514
43621W        W47582   9.657  16.942   9.636
43622W        W47583   7.811  17.547  10.071
43623W        W47584   8.402  17.530  10.794
43624W        W47585   8.253  15.327   7.808
43625W        W47586   9.770  15.469   8.133
43626W        W47587   9.728  17.577  10.370
43627W        W47588   8.413  16.169   8.969
43628W        W47589   8.068  17.867   9.834
43629W        W47590  10.813  17.984   7.435
43630W        W47591   7.676  16.656  10.431
43631W        W47592   9.671  16.918   9.119
43632W        W47593   8.107  16.567   8.361
43633W        W47594   8.478  17.574   9.756
43634W        W47595   8.856  14.993   8.797
43635W        W47596   7.467  16.977   7.727
43636W        W47597   8.986  15.928   7.597
43637W        W47598   7.632  16.477   8.616
43638W        W47599   8.922  15.119  10.080
43639W        W47600  10.594  14.828   7.507
43640W        W47601  10.687  16.574  10.606
43641W        W47602   9.341  17.831  10.758
43642W        W47603  10.899  16.925  10.280
43643W        W47604  10.307  17.723  10.891
43644W        W47605   8.046  18.179   9.369
43645W        W47606  10.905  16.801   8.243
43646W        W47607   9.435  16.068   8.756
43647W        W47608   9.202  14.680   8.646
43648W        W47609   8.261  17.664   8.483
43649W        W47610   8.760  15.405   9.708
43650W        W47611   8.460  14.774   9.177
43651W        W47612   7.523  17.596   7.725
43652W        W47613   9.339  16.960   8.443
43653W        W47614   8.214  17.755  10.322
43654W        W47615   7.691  16.578   8.018
43655W        W47616   7.576  15.121   9.017
43656W        W47617   9.124  17.086   9.074
43657W        W47618   7.376  14.940   8.094
43658W        W47619  10.040  16.146  10.021
43659W        W47620   9.917  15.532   7.593
43660W        W47621  10.434  17.204   9.241
43661W        W47622   9.095  17.688   9.072
43662W        W47623   8.507  17.792   7.983
43663W        W47624   9.789  14.695   7.413
43664W        W47625   7.589  17.955   9.154
43665W        W47626   9.786  15.713  10.789
43666W        W47627   7.769  15.243  10.788
43667W        W47628   7.500  15.843   8.121
43668W        W47629   8.191  15.832   7.846
43669W        W47630   9.954  16.159  10.663
43670W        W47631   8.297  16.440   9.372
43671W        W47632   9.771  14.726   8.492
43672W        W47633   8.902  18.157   8.995
43673W        W47634  10.116  17.619   9.932
43674W        W47635   9.700  17.768   9.043
43675W        W47636   9.719  16.748   8.637
43676W        W47637   9.181  14.973   7.708
43677W        W47638  10.862  14.601   8.430
43678W        W47639   8.550  16.236   7.593
43679W        W47640  10.716  15.573   8.583
43680W        W47641   9.408  16.743   7.460
43681W        W47642  10.344  16.943  10.208
43682W        W47643   9.998  17.644   7.675
43683W        W47644   8.613  15.319  10.581
43684W        W47645   8.433  15.903   9.822
43685W        W47646  10.525  17.398  10.099
43686W        W47647   9.625  15.348  10.476
43687W        W47648   7.469  15.819  10.253
43688W        W47649   9.229  16.296   9.979
43689W        W47650   7.586  17.054   8.636
43690W        W47651   7.733  16.351   9.526
43691W        W47652  10.050  16.637   9.876
43692W        W47653   9.822  18.017  10.687
43693W        W47654   9.718  15.756  10.240
43694W        W47655   9.995  17.810   8.645
43695W        W47656   8.997  17.530   9.968
43696W        W47657   8.482  17.885   9.237
43697W        W47658  10.287  17.056   9.656
43698W        W47659   9.337  17.128  10.793
43699W        W47660   7.942  17.081   9.132
43700W        W47661  10.288  16.840   8.777
43701W        W47662   9.929  17.906   9.528
43702W        W47663   7.907  17.635   9.398
43703W        W47664   8.928  15.687  10.608
43704W        W47665   9.379  17.853   8.119
43705W        W47666   8.687  17.108  10.757
43706W        W47667   8.813  17.346   8.134
43707W        W47668   8.034  16.086   7.393
43708W        W47669   7.373  18.172  14.292
43709W        W47670   7.749  17.065  13.815
43710W        W47671  10.454  16.795  11.585
43711W        W47672  10.584  17.880  13.612
43712W        W47673   8.502  17.871  11.138
43713W        W47674   8.585  16.023  12.121
43714W        W47675   8.100  15.871  12.285
43715W        W47676   9.091  16.686  11.719
43716W        W47677   8.766  17.778  14.074
43717W        W47678   7.415  15.339  14.037
43718W        W47679   8.177  14.619  13.839
43719W        W47680   9.871  15.007  12.726
43720W        W47681   9.520  15.878  11.296
43721W        W47682  10.090  15.312  14.387
43722W        W47683   7.456  15.104  13.512
43723W        W47684   7.555  17.723  14.533
43724W        W47685   9.077  17.113  11.265
43725W        W47686   7.509  15.896  12.958
43726W        W47687   8.402  15.787  14.195
43727W        W47688  10.861  15.646  12.694
43728W        W47689  10.625  16.689  13.553
43729W        W47690   8.933  16.022  12.580
43730W        W47691   9.479  17.361  12.949
43731W        W47692   7.979  16.795  13.181
43732W        W47693   7.338  16.323  12.752
43733W        W47694   8.374  16.295  13.944
43734W        W47695  10.645  16.078  14.198
43735W        W47696   8.261  17.522  12.643
43736W        W47697   9.382  17.211  13.777
43737W        W47698   8.602  15.851  13.002
43738W        W47699   8.894  16.635  12.645
43739W        W47700   9.891  17.408  14.493
43740W        W47701   8.970  16.728  14.503
43741W        W47702   8.951  16.444  13.981
43742W        W47703   7.360  15.835  14.503
43743W        W47704  10.192  17.370  14.102
43744W        W47705   7.773  14.952  12.100
43745W        W47706   8.300  17.210  13.099
43746W        W47707  10.763  16.993  12.389
43747W        W47708  10.176  15.393  12.956
43748W        W47709  10.461  15.346  11.051
43749W        W47710  10.926  16.147  13.357
43750W        W47711   8.893  17.854  13.110
43751W        W47712  10.667  17.320  11.548
43752W        W47713   7.796  18.106  11.302
43753W        W47714   8.189  18.152  11.978
43754W        W47715   7.986  14.906  13.404
43755W        W47716  10.609  15.924  13.679
43756W        W47717  10.014  16.346  12.138
43757W        W47718   9.980  16.034  11.165
43758W        W47719   9.188  17.178  13.305
43759W        W47720   8.994  15.508  12.504
43760W        W47721   9.594  17.595  13.498
43761W        W47722  10.465  16.386  11.920
43762W        W47723   9.367  15.044  11.936
43763W        W47724   8.024  17.738  11.619
43764W        W47725   7.395  15.237  12.218
43765W        W47726  10.181  15.844  12.692
43766W        W47727   7.639  17.461  12.607
43767W        W47728   8.980  17.811  11.477
43768W        W47729  10.372  15.837  10.941
43769W        W47730   7.395  17.595  13.105
43770W        W47731   8.186  17.167  13.585
43771W        W47732   8.559  16.527  12.204
43772W        W47733   8.581  14.932  13.297
43773W        W47734  10.810  14.694  12.594
43774W        W47735   8.029  16.566  11.062
43775W        W47736   7.684  15.599  11.241
43776W        W47737   7.746  17.555  12.035
43777W        W47738   8.877  17.038  12.283
43778W        W47739  10.209  17.897  13.997
43779W        W47740   9.135  15.539  11.681
43780W        W47741  10.518  17.937  12.453
43781W        W47742  10.195  15.790  14.051
43782W        W47743  10.908  17.446  12.185
43783W        W47744   9.535  16.738  13.669
43784W        W47745   7.301  16.289  11.875
43785W        W47746   8.412  16.704  13.448
43786W        W47747   9.616  15.968  11.826
43787W        W47748   9.493  16.458  11.930
43788W        W47749   7.836  15.878  13.404
43789W        W47750   7.821  15.754  14.326
43790W        W47751   7.711  14.671  12.485
43791W        W47752   9.479  15.018  13.046
43792W        W47753   9.127  15.203  14.209
43793W        W47754   9.482  15.352  11.387
43794W        W47755  10.665  17.745  14.141
43795W        W47756   9.632  14.826  14.180
43796W        W47757  10.651  17.127  14.302
43797W        W47758  10.081  15.294  13.898
43798W        W47759   9.881  15.232  12.168
43799W        W47760  10.274  16.366  14.572
43800W        W47761   8.014  17.942  12.558
43801W        W47762   8.672  15.659  11.544
43802W        W47763   8.241  14.943  14.208
43803W        W47764  10.293  15.427  11.889
43804W        W47765  10.660  15.909  11.834
43805W        W47766   8.403  18.126  14.305
43806W        W47767   8.329  14.662  11.540
43807W        W47768  10.650  15.196  12.575
43808W        W47769  10.800  17.445  11.020
43809W        W47770   7.707  16.648  12.722
43810W        W47771   9.624  15.235  10.952
43811W        W47772  10.758  17.567  12.672
43812W        W47773  10.797  14.761  13.422
43813W        W47774   9.242  15.973  13.976
43814W        W47775   9.335  17.312  11.679
43815W        W47776   9.735  16.606  14.419
43816W        W47777   9.409  14.583  12.728
43817W        W47778   8.021  15.486  12.791
43818W        W47779   7.575  16.686  13.565
43819W        W47780   9.434  17.879  12.271
43820W        W47781  10.628  15.476  13.143
43821W        W47782   9.265  17.823  13.910
43822W        W47783  10.608  16.882  11.115
43823W        W47784   9.043  16.365  12.176
43824W        W47785  10.895  14.876  13.917
43825W        W47786   9.044  16.711  13.511
43826W        W47787   9.261  15.597  12.956
43827W        W47788  10.113  15.895  11.794
43828W        W47789  10.400  15.628  11.436
43829W        W47790  10.209  17.668  11.825
43830W        W47791  10.043  17.271  12.621
43831W        W47792   9.939  16.350  11.599
43832W        W47793   9.372  16.560  12.585
43833W        W47794  10.253  16.348  12.652
43834W        W47795   7.628  15.363  13.076
43835W        W47796  10.406  16.415  13.903
43836W        W47797  10.757  18.033  13.049
43837W        W47798   8.687  17.477  12.451
43838W        W47799   9.694  18.010  13.775
43839W        W47800   9.688  15.340  13.539
43840W        W47801   8.895  18.048  13.600
43841W        W47802  10.592  15.002  12.066
43842W        W47803  10.383  16.321  13.367
43843W        W47804   7.366  15.642  13.405
43844W        W47805  10.226  15.437  12.423
43845W        W47806  10.637  15.588  14.200
43846W        W47807   9.522  17.287  12.418
43847W        W47808   8.778  17.878  12.031
43848W        W47809   7.893  15.058  11.289
43849W        W47810   8.997  14.712  13.099
43850W        W47811   8.025  17.832  10.947
43851W        W47812   8.399  16.298  11.698
43852W        W47813   9.053  16.927  14.011
43853W        W47814   8.883  15.285  12.001
43854W        W47815  10.239  14.882  12.429
43855W        W47816   9.959  18.164  12.757
43856W        W47817   9.371  17.812  13.097
43857W        W47818   8.767  16.849  13.058
43858W        W47819  10.537  17.572  13.184
43859W        W47820   8.231  15.075  11.953
43860W        W47821   8.753  17.372  12.913
43861W        W47822   8.236  15.303  10.978
43862W        W47823   9.037  15.912  13.372
43863W        W47824   9.885  14.778  13.242
43864W        W47825   7.305  16.621  13.127
43865W        W47826   9.009  16.439  11.285
43866W        W47827   8.277  14.754  11.055
43867W        W47828   9.015  15.835  12.106
43868W        W47829   9.985  14.811  13.805
43869W        W47830   8.573  16.823  13.914
43870W        W47831   9.377  16.605  14.131
43871W        W47832   9.994  16.635  14.024
43872W        W47833   9.278  14.775  14.529
43873W        W47834   8.500  15.391  12.922
43874W        W47835   7.926  15.347  12.320
43875W        W47836   7.712  18.059  11.996
43876W        W47837   9.044  17.389  14.121
43877W        W47838   8.079  16.874  11.480
43878W        W47839   9.759  16.259  12.701
43879W        W47840  10.039  16.058  13.100
43880W        W47841   9.244  16.732  13.034
43881W        W47842   9.714  17.106  11.166
43882W        W47843   9.386  15.127  12.494
43883W        W47844  10.865  15.405  11.762
43884W        W47845   7.359  17.994  13.793
43885W        W47846   7.776  17.220  13.325
43886W        W47847   7.343  18.066  11.557
43887W        W47848   9.242  15.336  13.363
43888W        W47849   8.605  17.359  11.212
43889W        W47850  10.510  17.741  11.398
43890W        W47851   9.485  16.394  11.412
43891W        W47852   8.328  15.585  11.929
43892W        W47853   9.160  15.495  10.981
43893W        W47854   9.744  17.060  14.159
43894W        W47855  10.097  14.966  11.776
43895W        W47856   7.427  14.814  11.224
43896W        W47857   8.713  17.133  13.514
43897W        W47858   8.512  17.049  12.606
43898W        W47859   8.254  17.001  11.004
43899W        W47860   7.495  17.242  11.772
43900W        W47861   7.999  16.312  14.214
43901W        W47862   8.703  14.872  14.400
43902W        W47863   9.412  15.014  13.756
43903W        W47864   8.607  14.782  12.037
43904W        W47865   9.666  14.859  11.542
43905W        W47866   7.611  14.791  13.119
43906W        W47867   7.659  15.754  12.489
43907W        W47868  10.348  14.862  12.895
43908W        W47869   7.770  15.360  11.709
43909W        W47870  10.341  15.048  13.325
43910W        W47871  10.737  16.251  11.010
43911W        W47872   8.029  15.009  12.829
43912W        W47873   9.143  15.581  13.769
43913W        W47874   7.291  15.271  11.247
43914W        W47875   8.077  16.660  13.808
43915W        W47876   9.435  16.058  12.987
43916W        W47877   9.302  18.137  11.283
43917W        W47878   7.448  16.644  10.980
43918W        W47879   8.183  17.055  14.106
43919W        W47880   7.704  16.222  13.737
43920W        W47881   8.695  16.327  13.531
43921W        W47882  10.463  14.686  13.793
43922W        W47883  10.861  16.296  13.784
43923W        W47884  10.849  16.496  11.470
43924W        W47885   9.712  16.828  11.569
43925W        W47886  10.186  18.128  11.264
43926W        W47887   9.363  16.118  14.406
43927W        W47888   7.693  17.085  14.446
43928W        W47889  10.899  15.007  14.398
43929W        W47890  10.617  15.935  13.019
43930W        W47891   8.925  18.065  14.496
43931W        W47892   8.780  14.694  11.223
43932W        W47893  10.319  17.293  11.166
43933W        W47894   8.088  15.386  14.052
43934W        W47895   8.522  17.380  13.914
43935W        W47896  10.648  15.371  13.712
43936W        W47897   9.859  18.030  11.680
43937W        W47898  10.098  16.649  13.047
43938W        W47899   8.348  15.065  13.714
43939W        W47900   8.817  16.134  14.471
43940W        W47901   8.320  17.313  11.665
43941W        W47902  10.075  16.811  11.929
43942W        W47903   7.843  15.437  13.653
43943W        W47904   9.172  17.499  12.117
43944W        W47905  10.922  16.059  12.298
43945W        W47906   9.144  14.692  14.017
43946W        W47907   9.924  17.397  13.096
43947W        W47908  10.227  17.741  12.804
43948W        W47909   9.446  17.543  11.232
43949W        W47910   7.456  17.435  14.074
43950W        W47911   8.199  15.427  13.312
43951W        W47912   8.169  14.775  12.422
43952W        W47913   9.790  15.617  13.114
43953W        W47914   8.588  16.788  11.314
43954W        W47915  10.586  16.730  12.813
43955W        W47916   7.913  17.488  14.236
43956W        W47917  10.300  18.170  12.033
43957W        W47918   8.399  15.190  12.478
43958W        W47919   8.168  16.683  12.568
43959W        W47920   8.481  18.094  13.318
43960W        W47921  10.548  18.190  14.350
43961W        W47922   9.707  16.378  13.283
43962W        W47923   7.556  16.176  11.198
43963W        W47924  10.690  17.834  11.895
43964W        W47925  10.527  15.158  11.514
43965W        W47926   8.666  14.677  13.917
43966W        W47927  10.372  17.479  12.375
43967W        W47928  10.401  16.035  12.280
43968W        W47929   8.518  15.708  12.496
43969W        W47930   8.763  15.970  13.820
43970W        W47931   9.874  17.123  13.683
43971W        W47932   8.524  15.577  13.795
43972W        W47933   8.503  18.043  12.411
43973W        W47934   7.820  18.002  14.045
43974W        W47935   7.932  17.363  11.175
43975W        W47936  10.449  17.121  11.985
43976W        W47937   8.053  15.913  13.871
43977W        W47938  10.826  15.843  11.352
43978W        W47939   8.571  16.900  11.823
43979W        W47940   9.670  16.282  13.904
43980W        W47941   9.561  15.910  13.448
43981W        W47942   8.121  16.282  13.477
43982W        W47943  10.331  18.170  13.306
43983W        W47944  10.122  14.804  14.300
43984W        W47945   7.786  14.954  13.887
43985W        W47946   8.125  15.977  12.940
43986W        W47947   8.494  15.791  11.062
43987W        W47948   7.297  17.550  13.607
43988W        W47949   8.882  16.259  13.050
43989W        W47950   8.705  15.284  11.155
43990W        W47951   7.840  16.100  11.936
43991W        W47952   7.611  17.952  13.373
43992W        W47953  10.406  16.178  11.481
43993W        W47954  10.501  15.094  14.167
43994W        W47955   9.937  17.303  12.130
43995W        W47956   7.535  16.227  14.307
43996W        W47957  10.501  14.691  11.603
43997W        W47958  10.021  17.166  11.614
43998W        W47959   8.923  16.224  11.699
43999W        W47960  10.110  15.028  11.222
44000W        W47961  10.175  15.635  13.408
44001W        W47962   7.884  16.228  12.615
44002W        W47963   8.178  17.167  12.264
44003W        W47964   9.941  15.787  12.229
44004W        W47965   8.964  15.166  12.925
44005W        W47966  10.926  17.077  13.436
44006W        W47967  10.844  15.064  12.997
44007W        W47968   7.383  17.894  12.373
44008W        W47969   7.892  17.081  11.909
44009W        W47970   7.807  14.698  14.462
44010W        W47971   8.926  17.551  14.564
44011W        W47972  10.681  16.519  12.354
44012W        W47973  10.035  16.696  11.234
44013W        W47974   9.330  18.217  13.446
44014W        W47975  10.187  16.939  14.483
44015W        W47976   9.002  14.649  11.763
44016W        W47977   9.715  15.518  12.622
44017W        W47978   7.401  17.105  12.954
44018W        W47979   8.654  15.067  11.595
44019W        W47980   8.458  16.551  14.444
44020W        W47981   9.452  15.532  12.158
44021W        W47982   9.657  16.942  13.280
44022W        W47983   7.811  17.547  13.715
44023W        W47984   8.402  17.530  14.438
44024W        W47985   8.253  15.327  11.452
44025W        W47986   9.770  15.469  11.777
44026W        W47987   9.728  17.577  14.014
44027W        W47988   8.413  16.169  12.613
44028W        W47989   8.068  17.867  13.478
44029W        W47990  10.813  17.984  11.079
44030W        W47991   7.676  16.656  14.075
44031W        W47992   9.671  16.918  12.763
44032W        W47993   8.107  16.567  12.005
44033W        W47994   8.478  17.574  13.400
44034W        W47995   8.856  14.993  12.441
44035W        W47996   7.467  16.977  11.371
44036W        W47997   8.986  15.928  11.241
44037W        W47998   7.632  16.477  12.260
44038W        W47999   8.922  15.119  13.724
44039W        W48000  10.594  14.828  11.151
44040W        W48001  10.687  16.574  14.250
44041W        W48002   9.341  17.831  14.402
44042W        W48003  10.899  16.925  13.924
44043W        W48004  10.307  17.723  14.535
44044W        W48005   8.046  18.179  13.013
44045W        W48006  10.905  16.801  11.887
44046W        W48007   9.435  16.068  12.400
44047W        W48008   9.202  14.680  12.290
44048W        W48009   8.261  17.664  12.127
44049W        W48010   8.760  15.405  13.352
44050W        W48011   8.460  14.774  12.821
44051W        W48012   7.523  17.596  11.369
44052W        W48013   9.339  16.960  12.087
44053W        W48014   8.214  17.755  13.966
44054W        W48015   7.691  16.578  11.662
44055W        W48016   7.576  15.121  12.661
44056W        W48017   9.124  17.086  12.718
44057W        W48018   7.376  14.940  11.738
44058W        W48019  10.040  16.146  13.665
44059W        W48020   9.917  15.532  11.237
44060W        W48021  10.434  17.204  12.885
44061W        W48022   9.095  17.688  12.716
44062W        W48023   8.507  17.792  11.627
44063W        W48024   9.789  14.695  11.057
44064W        W48025   7.589  17.955  12.798
44065W        W48026   9.786  15.713  14.433
44066W        W48027   7.769  15.243  14.432
44067W        W48028   7.500  15.843  11.765
44068W        W48029   8.191  15.832  11.490
44069W        W48030   9.954  16.159  14.307
44070W        W48031   8.297  16.440  13.016
44071W        W48032   9.771  14.726  12.136
44072W        W48033   8.902  18.157  12.639
44073W        W48034  10.116  17.619  13.576
44074W        W48035   9.700  17.768  12.687
44075W        W48036   9.719  16.748  12.281
44076W        W48037   9.181  14.973  11.352
44077W        W48038  10.862  14.601  12.074
44078W        W48039   8.550  16.236  11.237
44079W        W48040  10.716  15.573  12.227
44080W        W48041   9.408  16.743  11.104
44081W        W48042  10.344  16.943  13.852
44082W        W48043   9.998  17.644  11.319
44083W        W48044   8.613  15.319  14.225
44084W        W48045   8.433  15.903  13.466
44085W        W48046  10.525  17.398  13.743
44086W        W48047   9.625  15.348  14.120
44087W        W48048   7.469  15.819  13.897
44088W        W48049   9.229  16.296  13.623
44089W        W48050   7.586  17.054  12.280
44090W        W48051   7.733  16.351  13.170
44091W        W48052  10.050  16.637  13.520
44092W        W48053   9.822  18.017  14.331
44093W        W48054   9.718  15.756  13.884
44094W        W48055   9.995  17.810  12.289
44095W        W48056   8.997  17.530  13.612
44096W        W48057   8.482  17.885  12.881
44097W        W48058  10.287  17.056  13.300
44098W        W48059   9.337  17.128  14.437
44099W        W48060   7.942  17.081  12.776
44100W        W48061  10.288  16.840  12.421
44101W        W48062   9.929  17.906  13.172
44102W        W48063   7.907  17.635  13.042
44103W        W48064   8.928  15.687  14.252
44104W        W48065   9.379  17.853  11.763
44105W        W48066   8.687  17.108  14.401
44106W        W48067   8.813  17.346  11.778
44107W        W48068   8.034  16.086  11.037
44108W        W48069   7.373  18.172  17.936
44109W        W48070   7.749  17.065  17.459
44110W        W48071  10.454  16.795  15.229
44111W        W48072  10.584  17.880  17.256
44112W        W48073   8.502  17.871  14.782
44113W        W48074   8.585  16.023  15.765
44114W        W48075   8.100  15.871  15.929
44115W        W48076   9.091  16.686  15.363
44116W        W48077   8.766  17.778  17.718
44117W        W48078   7.415  15.339  17.681
44118W        W48079   8.177  14.619  17.483
44119W        W48080   9.871  15.007  16.370
44120W        W48081   9.520  15.878  14.940
44121W        W48082  10.090  15.312  18.031
44122W        W48083   7.456  15.104  17.156
44123W        W48084   7.555  17.723  18.177
44124W        W48085   9.077  17.113  14.909
44125W        W48086   7.509  15.896  16.602
44126W        W48087   8.402  15.787  17.839
44127W        W48088  10.861  15.646  16.338
44128W        W48089  10.625  16.689  17.197
44129W        W48090   8.933  16.022  16.224
44130W        W48091   9.479  17.361  16.593
44131W        W48092   7.979  16.795  16.825
44132W        W48093   7.338  16.323  16.396
44133W        W48094   8.374  16.295  17.588
44134W        W48095  10.645  16.078  17.842
44135W        W48096   8.261  17.522  16.287
44136W        W48097   9.382  17.211  17.421
44137W        W48098   8.602  15.851  16.646
44138W        W48099   8.894  16.635  16.289
44139W        W48100   9.891  17.408  18.137
44140W        W48101   8.970  16.728  18.147
44141W        W48102   8.951  16.444  17.625
44142W        W48103   7.360  15.835  18.147
44143W        W48104  10.192  17.370  17.746
44144W        W48105   7.773  14.952  15.744
44145W        W48106   8.300  17.210  16.743
44146W        W48107  10.763  16.993  16.033
44147W        W48108  10.176  15.393  16.600
44148W        W48109  10.461  15.346  14.695
44149W        W48110  10.926  16.147  17.001
44150W        W48111   8.893  17.854  16.754
44151W        W48112  10.667  17.320  15.192
44152W        W48113   7.796  18.106  14.946
44153W        W48114   8.189  18.152  15.622
44154W        W48115   7.986  14.906  17.048
44155W        W48116  10.609  15.924  17.323
44156W        W48117  10.014  16.346  15.782
44157W        W48118   9.980  16.034  14.809
44158W        W48119   9.188  17.178  16.949
44159W        W48120   8.994  15.508  16.148
44160W        W48121   9.594  17.595  17.142
44161W        W48122  10.465  16.386  15.564
44162W        W48123   9.367  15.044  15.580
44163W        W48124   8.024  17.738  15.263
44164W        W48125   7.395  15.237  15.862
44165W        W48126  10.181  15.844  16.336
44166W        W48127   7.639  17.461  16.251
44167W        W48128   8.980  17.811  15.121
44168W        W48129  10.372  15.837  14.585
44169W        W48130   7.395  17.595  16.749
44170W        W48131   8.186  17.167  17.229
44171W        W48132   8.559  16.527  15.848
44172W        W48133   8.581  14.932  16.941
44173W        W48134  10.810  14.694  16.238
44174W        W48135   8.029  16.566  14.706
44175W        W48136   7.684  15.599  14.885
44176W        W48137   7.746  17.555  15.679
44177W        W48138   8.877  17.038  15.927
44178W        W48139  10.209  17.897  17.641
44179W        W48140   9.135  15.539  15.325
44180W        W48141  10.518  17.937  16.097
44181W        W48142  10.195  15.790  17.695
44182W        W48143  10.908  17.446  15.829
44183W        W48144   9.535  16.738  17.313
44184W        W48145   7.301  16.289  15.519
44185W        W48146   8.412  16.704  17.092
44186W        W48147   9.616  15.968  15.470
44187W        W48148   9.493  16.458  15.574
44188W        W48149   7.836  15.878  17.048
44189W        W48150   7.821  15.754  17.970
44190W        W48151   7.711  14.671  16.129
44191W        W48152   9.479  15.018  16.690
44192W        W48153   9.127  15.203  17.853
44193W        W48154   9.482  15.352  15.031
44194W        W48155  10.665  17.745  17.785
44195W        W48156   9.632  14.826  17.824
44196W        W48157  10.651  17.127  17.946
44197W        W48158  10.081  15.294  17.542
44198W        W48159   9.881  15.232  15.812
44199W        W48160  10.274  16.366  18.216
44200W        W48161   8.014  17.942  16.202
44201W        W48162   8.672  15.659  15.188
44202W        W48163   8.241  14.943  17.852
44203W        W48164  10.293  15.427  15.533
44204W        W48165  10.660  15.909  15.478
44205W        W48166   8.403  18.126  17.949
44206W        W48167   8.329  14.662  15.184
44207W        W48168  10.650  15.196  16.219
44208W        W48169  10.800  17.445  14.664
44209W        W48170   7.707  16.648  16.366
44210W        W48171   9.624  15.235  14.596
44211W        W48172  10.758  17.567  16.316
44212W        W48173  10.797  14.761  17.066
44213W        W48174   9.242  15.973  17.620
44214W        W48175   9.335  17.312  15.323
44215W        W48176   9.735  16.606  18.063
44216W        W48177   9.409  14.583  16.372
44217W        W48178   8.021  15.486  16.435
44218W        W48179   7.575  16.686  17.209
44219W        W48180   9.434  17.879  15.915
44220W        W48181  10.628  15.476  16.787
44221W        W48182   9.265  17.823  17.554
44222W        W48183  10.608  16.882  14.759
44223W        W48184   9.043  16.365  15.820
44224W        W48185  10.895  14.876  17.561
44225W        W48186   9.044  16.711  17.155
44226W        W48187   9.261  15.597  16.600
44227W        W48188  10.113  15.895  15.438
44228W        W48189  10.400  15.628  15.080
44229W        W48190  10.209  17.668  15.469
44230W        W48191  10.043  17.271  16.265
44231W        W48192   9.939  16.350  15.243
44232W        W48193   9.372  16.560  16.229
44233W        W48194  10.253  16.348  16.296
44234W        W48195   7.628  15.363  16.720
44235W        W48196  10.406  16.415  17.547
44236W        W48197  10.757  18.033  16.693
44237W        W48198   8.687  17.477  16.095
44238W        W48199   9.694  18.010  17.419
44239W        W48200   9.688  15.340  17.183
44240W        W48201   8.895  18.048  17.244
44241W        W48202  10.592  15.002  15.710
44242W        W48203  10.383  16.321  17.011
44243W        W48204   7.366  15.642  17.049
44244W        W48205  10.226  15.437  16.067
44245W        W48206  10.637  15.588  17.844
44246W        W48207   9.522  17.287  16.062
44247W        W48208   8.778  17.878  15.675
44248W        W48209   7.893  15.058  14.933
44249W        W48210   8.997  14.712  16.743
44250W        W48211   8.025  17.832  14.591
44251W        W48212   8.399  16.298  15.342
44252W        W48213   9.053  16.927  17.655
44253W        W48214   8.883  15.285  15.645
44254W        W48215  10.239  14.882  16.073
44255W        W48216   9.959  18.164  16.401
44256W        W48217   9.371  17.812  16.741
44257W        W48218   8.767  16.849  16.702
44258W        W48219  10.537  17.572  16.828
44259W        W48220   8.231  15.075  15.597
44260W        W48221   8.753  17.372  16.557
44261W        W48222   8.236  15.303  14.622
44262W        W48223   9.037  15.912  17.016
44263W        W48224   9.885  14.778  16.886
44264W        W48225   7.305  16.621  16.771
44265W        W48226   9.009  16.439  14.929
44266W        W48227   8.277  14.754  14.699
44267W        W48228   9.015  15.835  15.750
44268W        W48229   9.985  14.811  17.449
44269W        W48230   8.573  16.823  17.558
44270W        W48231   9.377  16.605  17.775
44271W        W48232   9.994  16.635  17.668
44272W        W48233   9.278  14.775  18.173
44273W        W48234   8.500  15.391  16.566
44274W        W48235   7.926  15.347  15.964
44275W        W48236   7.712  18.059  15.640
44276W        W48237   9.044  17.389  17.765
44277W        W48238   8.079  16.874  15.124
44278W        W48239   9.759  16.259  16.345
44279W        W48240  10.039  16.058  16.744
44280W        W48241   9.244  16.732  16.678
44281W        W48242   9.714  17.106  14.810
44282W        W48243   9.386  15.127  16.138
44283W        W48244  10.865  15.405  15.406
44284W        W48245   7.359  17.994  17.437
44285W        W48246   7.776  17.220  16.969
44286W        W48247   7.343  18.066  15.201
44287W        W48248   9.242  15.336  17.007
44288W        W48249   8.605  17.359  14.856
44289W        W48250  10.510  17.741  15.042
44290W        W48251   9.485  16.394  15.056
44291W        W48252   8.328  15.585  15.573
44292W        W48253   9.160  15.495  14.625
44293W        W48254   9.744  17.060  17.803
44294W        W48255  10.097  14.966  15.420
44295W        W48256   7.427  14.814  14.868
44296W        W48257   8.713  17.133  17.158
44297W        W48258   8.512  17.049  16.250
44298W        W48259   8.254  17.001  14.648
44299W        W48260   7.495  17.242  15.416
44300W        W48261   7.999  16.312  17.858
44301W        W48262   8.703  14.872  18.044
44302W        W48263   9.412  15.014  17.400
44303W        W48264   8.607  14.782  15.681
44304W        W48265   9.666  14.859  15.186
44305W        W48266   7.611  14.791  16.763
44306W        W48267   7.659  15.754  16.133
44307W        W48268  10.348  14.862  16.539
44308W        W48269   7.770  15.360  15.353
44309W        W48270  10.341  15.048  16.969
44310W        W48271  10.737  16.251  14.654
44311W        W48272   8.029  15.009  16.473
44312W        W48273   9.143  15.581  17.413
44313W        W48274   7.291  15.271  14.891
44314W        W48275   8.077  16.660  17.452
44315W        W48276   9.435  16.058  16.631
44316W        W48277   9.302  18.137  14.927
44317W        W48278   7.448  16.644  14.624
44318W        W48279   8.183  17.055  17.750
44319W        W48280   7.704  16.222  17.381
44320W        W48281   8.695  16.327  17.175
44321W        W48282  10.463  14.686  17.437
44322W        W48283  10.861  16.296  17.428
44323W        W48284  10.849  16.496  15.114
44324W        W48285   9.712  16.828  15.213
44325W        W48286  10.186  18.128  14.908
44326W        W48287   9.363  16.118  18.050
44327W        W48288   7.693  17.085  18.090
44328W        W48289  10.899  15.007  18.042
44329W        W48290  10.617  15.935  16.663
44330W        W48291   8.925  18.065  18.140
44331W        W48292   8.780  14.694  14.867
44332W        W48293  10.319  17.293  14.810
44333W        W48294   8.088  15.386  17.696
44334W        W48295   8.522  17.380  17.558
44335W        W48296  10.648  15.371  17.356
44336W        W48297   9.859  18.030  15.324
44337W        W48298  10.098  16.649  16.691
44338W        W48299   8.348  15.065  17.358
44339W        W48300   8.817  16.134  18.115
44340W        W48301   8.320  17.313  15.309
44341W        W48302  10.075  16.811  15.573
44342W        W48303   7.843  15.437  17.297
44343W        W48304   9.172  17.499  15.761
44344W        W48305  10.922  16.059  15.942
44345W        W48306   9.144  14.692  17.661
44346W        W48307   9.924  17.397  16.740
44347W        W48308  10.227  17.741  16.448
44348W        W48309   9.446  17.543  14.876
44349W        W48310   7.456  17.435  17.718
44350W        W48311   8.199  15.427  16.956
44351W        W48312   8.169  14.775  16.066
44352W        W48313   9.790  15.617  16.758
44353W        W48314   8.588  16.788  14.958
44354W        W48315  10.586  16.730  16.457
44355W        W48316   7.913  17.488  17.880
44356W        W48317  10.300  18.170  15.677
44357W        W48318   8.399  15.190  16.122
44358W        W48319   8.168  16.683  16.212
44359W        W48320   8.481  18.094  16.962
44360W        W48321  10.548  18.190  17.994
44361W        W48322   9.707  16.378  16.927
44362W        W48323   7.556  16.176  14.842
44363W        W48324  10.690  17.834  15.539
44364W        W48325  10.527  15.158  15.158
44365W        W48326   8.666  14.677  17.561
44366W        W48327  10.372  17.479  16.019
44367W        W48328  10.401  16.035  15.924
44368W        W48329   8.518  15.708  16.140
44369W        W48330   8.763  15.970  17.464
44370W        W48331   9.874  17.123  17.327
44371W        W48332   8.524  15.577  17.439
44372W        W48333   8.503  18.043  16.055
44373W        W48334   7.820  18.002  17.689
44374W        W48335   7.932  17.363  14.819
44375W        W48336  10.449  17.121  15.629
44376W        W48337   8.053  15.913  17.515
44377W        W48338  10.826  15.843  14.996
44378W        W48339   8.571  16.900  15.467
44379W        W48340   9.670  16.282  17.548
44380W        W48341   9.561  15.910  17.092
44381W        W48342   8.121  16.282  17.121
44382W        W48343  10.331  18.170  16.950
44383W        W48344  10.122  14.804  17.944
44384W        W48345   7.786  14.954  17.531
44385W        W48346   8.125  15.977  16.584
44386W        W48347   8.494  15.791  14.706
44387W        W48348   7.297  17.550  17.251
44388W        W48349   8.882  16.259  16.694
44389W        W48350   8.705  15.284  14.799
44390W        W48351   7.840  16.100  15.580
44391W        W48352   7.611  17.952  17.017
44392W        W48353  10.406  16.178  15.125
44393W        W48354  10.501  15.094  17.811
44394W        W48355   9.937  17.303  15.774
44395W        W48356   7.535  16.227  17.951
44396W        W48357  10.501  14.691  15.247
44397W        W48358  10.021  17.166  15.258
44398W        W48359   8.923  16.224  15.343
44399W        W48360  10.110  15.028  14.866
44400W        W48361  10.175  15.635  17.052
44401W        W48362   7.884  16.228  16.259
44402W        W48363   8.178  17.167  15.908
44403W        W48364   9.941  15.787  15.873
44404W        W48365   8.964  15.166  16.569
44405W        W48366  10.926  17.077  17.080
44406W        W48367  10.844  15.064  16.641
44407W        W48368   7.383  17.894  16.017
44408W        W48369   7.892  17.081  15.553
44409W        W48370   7.807  14.698  18.106
44410W        W48371   8.926  17.551  18.208
44411W        W48372  10.681  16.519  15.998
44412W        W48373  10.035  16.696  14.878
44413W        W48374   9.330  18.217  17.090
44414W        W48375  10.187  16.939  18.127
44415W        W48376   9.002  14.649  15.407
44416W        W48377   9.715  15.518  16.266
44417W        W48378   7.401  17.105  16.598
44418W        W48379   8.654  15.067  15.239
44419W        W48380   8.458  16.551  18.088
44420W        W48381   9.452  15.532  15.802
44421W        W48382   9.657  16.942  16.924
44422W        W48383   7.811  17.547  17.359
44423W        W48384   8.402  17.530  18.082
44424W        W48385   8.253  15.327  15.096
44425W        W48386   9.770  15.469  15.421
44426W        W48387   9.728  17.577  17.658
44427W        W48388   8.413  16.169  16.257
44428W        W48389   8.068  17.867  17.122
44429W        W48390  10.813  17.984  14.723
44430W        W48391   7.676  16.656  17.719
44431W        W48392   9.671  16.918  16.407
44432W        W48393   8.107  16.567  15.649
44433W        W48394   8.478  17.574  17.044
44434W        W48395   8.856  14.993  16.085
44435W        W48396   7.467  16.977  15.015
44436W        W48397   8.986  15.928  14.885
44437W        W48398   7.632  16.477  15.904
44438W        W48399   8.922  15.119  17.368
44439W        W48400  10.594  14.828  14.795
44440W        W48401  10.687  16.574  17.894
44441W        W48402   9.341  17.831  18.046
44442W        W48403  10.899  16.925  17.568
44443W        W48404  10.307  17.723  18.179
44444W        W48405   8.046  18.179  16.657
44445W        W48406  10.905  16.801  15.531
44446W        W48407   9.435  16.068  16.044
44447W        W48408   9.202  14.680  15.934
44448W        W48409   8.261  17.664  15.771
44449W        W48410   8.760  15.405  16.996
44450W        W48411   8.460  14.774  16.465
44451W        W48412   7.523  17.596  15.013
44452W        W48413   9.339  16.960  15.731
44453W        W48414   8.214  17.755  17.610
44454W        W48415   7.691  16.578  15.306
44455W        W48416   7.576  15.121  16.305
44456W        W48417   9.124  17.086  16.362
44457W        W48418   7.376  14.940  15.382
44458W        W48419  10.040  16.146  17.309
44459W        W48420   9.917  15.532  14.881
44460W        W48421  10.434  17.204  16.529
44461W        W48422   9.095  17.688  16.360
44462W        W48423   8.507  17.792  15.271
44463W        W48424   9.789  14.695  14.701
44464W        W48425   7.589  17.955  16.442
44465W        W48426   9.786  15.713  18.077
44466W        W48427   7.769  15.243  18.076
44467W        W48428   7.500  15.843  15.409
44468W        W48429   8.191  15.832  15.134
44469W        W48430   9.954  16.159  17.951
44470W        W48431   8.297  16.440  16.660
44471W        W48432   9.771  14.726  15.780
44472W        W48433   8.902  18.157  16.283
44473W        W48434  10.116  17.619  17.220
44474W        W48435   9.700  17.768  16.331
44475W        W48436   9.719  16.748  15.925
44476W        W48437   9.181  14.973  14.996
44477W        W48438  10.862  14.601  15.718
44478W        W48439   8.550  16.236  14.881
44479W        W48440  10.716  15.573  15.871
44480W        W48441   9.408  16.743  14.748
44481W        W48442  10.344  16.943  17.496
44482W        W48443   9.998  17.644  14.963
44483W        W48444   8.613  15.319  17.869
44484W        W48445   8.433  15.903  17.110
44485W        W48446  10.525  17.398  17.387
44486W        W48447   9.625  15.348  17.764
44487W        W48448   7.469  15.819  17.541
44488W        W48449   9.229  16.296  17.267
44489W        W48450   7.586  17.054  15.924
44490W        W48451   7.733  16.351  16.814
44491W        W48452  10.050  16.637  17.164
44492W        W48453   9.822  18.017  17.975
44493W        W48454   9.718  15.756  17.528
44494W        W48455   9.995  17.810  15.933
44495W        W48456   8.997  17.530  17.256
44496W        W48457   8.482  17.885  16.525
44497W        W48458  10.287  17.056  16.944
44498W        W48459   9.337  17.128  18.081
44499W        W48460   7.942  17.081  16.420
44500W        W48461  10.288  16.840  16.065
44501W        W48462   9.929  17.906  16.816
44502W        W48463   7.907  17.635  16.686
44503W        W48464   8.928  15.687  17.896
44504W        W48465   9.379  17.853  15.407
44505W        W48466   8.687  17.108  18.045
44506W        W48467   8.813  17.346  15.422
44507W        W48468   8.034  16.086  14.681
44508W        W48469   7.373  18.172  21.580
44509W        W48470   7.749  17.065  21.103
44510W        W48471  10.454  16.795  18.873
44511W        W48472  10.584  17.880  20.900
44512W        W48473   8.502  17.871  18.426
44513W        W48474   8.585  16.023  19.409
44514W        W48475   8.100  15.871  19.573
44515W        W48476   9.091  16.686  19.007
44516W        W48477   8.766  17.778  21.362
44517W        W48478   7.415  15.339  21.325
44518W        W48479   8.177  14.619  21.127
44519W        W48480   9.871  15.007  20.014
44520W        W48481   9.520  15.878  18.584
44521W        W48482  10.090  15.312  21.675
44522W        W48483   7.456  15.104  20.800
44523W        W48484   7.555  17.723  21.821
44524W        W48485   9.077  17.113  18.553
44525W        W48486   7.509  15.896  20.246
44526W        W48487   8.402  15.787  21.483
44527W        W48488  10.861  15.646  19.982
44528W        W48489  10.625  16.689  20.841
44529W        W48490   8.933  16.022  19.868
44530W        W48491   9.479  17.361  20.237
44531W        W48492   7.979  16.795  20.469
44532W        W48493   7.338  16.323  20.040
44533W        W48494   8.374  16.295  21.232
44534W        W48495  10.645  16.078  21.486
44535W        W48496   8.261  17.522  19.931
44536W        W48497   9.382  17.211  21.065
44537W        W48498   8.602  15.851  20.290
44538W        W48499   8.894  16.635  19.933
44539W        W48500   9.891  17.408  21.781
44540W        W48501   8.970  16.728  21.791
44541W        W48502   8.951  16.444  21.269
44542W        W48503   7.360  15.835  21.791
44543W        W48504  10.192  17.370  21.390
44544W        W48505   7.773  14.952  19.388
44545W        W48506   8.300  17.210  20.387
44546W        W48507  10.763  16.993  19.677
44547W        W48508  10.176  15.393  20.244
44548W        W48509  10.461  15.346  18.339
44549W        W48510  10.926  16.147  20.645
44550W        W48511   8.893  17.854  20.398
44551W        W48512  10.667  17.320  18.836
44552W        W48513   7.796  18.106  18.590
44553W        W48514   8.189  18.152  19.266
44554W        W48515   7.986  14.906  20.692
44555W        W48516  10.609  15.924  20.967
44556W        W48517  10.014  16.346  19.426
44557W        W48518   9.980  16.034  18.453
44558W        W48519   9.188  17.178  20.593
44559W        W48520   8.994  15.508  19.792
44560W        W48521   9.594  17.595  20.786
44561W        W48522  10.465  16.386  19.208
44562W        W48523   9.367  15.044  19.224
44563W        W48524   8.024  17.738  18.907
44564W        W48525   7.395  15.237  19.506
44565W        W48526  10.181  15.844  19.980
44566W        W48527   7.639  17.461  19.895
44567W        W48528   8.980  17.811  18.765
44568W        W48529  10.372  15.837  18.229
44569W        W48530   7.395  17.595  20.393
44570W        W48531   8.186  17.167  20.873
44571W        W48532   8.559  16.527  19.492
44572W        W48533   8.581  14.932  20.585
44573W        W48534  10.810  14.694  19.882
44574W        W48535   8.029  16.566  18.350
44575W        W48536   7.684  15.599  18.529
44576W        W48537   7.746  17.555  19.323
44577W        W48538   8.877  17.038  19.571
44578W        W48539  10.209  17.897  21.285
44579W        W48540   9.135  15.539  18.969
44580W        W48541  10.518  17.937  19.741
44581W        W48542  10.195  15.790  21.339
44582W        W48543  10.908  17.446  19.473
44583W        W48544   9.535  16.738  20.957
44584W        W48545   7.301  16.289  19.163
44585W        W48546   8.412  16.704  20.736
44586W        W48547   9.616  15.968  19.114
44587W        W48548   9.493  16.458  19.218
44588W        W48549   7.836  15.878  20.692
44589W        W48550   7.821  15.754  21.614
44590W        W48551   7.711  14.671  19.773
44591W        W48552   9.479  15.018  20.334
44592W        W48553   9.127  15.203  21.497
44593W        W48554   9.482  15.352  18.675
44594W        W48555  10.665  17.745  21.429
44595W        W48556   9.632  14.826  21.468
44596W        W48557  10.651  17.127  21.590
44597W        W48558  10.081  15.294  21.186
44598W        W48559   9.881  15.232  19.456
44599W        W48560  10.274  16.366  21.860
44600W        W48561   8.014  17.942  19.846
44601W        W48562   8.672  15.659  18.832
44602W        W48563   8.241  14.943  21.496
44603W        W48564  10.293  15.427  19.177
44604W        W48565  10.660  15.909  19.122
44605W        W48566   8.403  18.126  21.593
44606W        W48567   8.329  14.662  18.828
44607W        W48568  10.650  15.196  19.863
44608W        W48569  10.800  17.445  18.308
44609W        W48570   7.707  16.648  20.010
44610W        W48571   9.624  15.235  18.240
44611W        W48572  10.758  17.567  19.960
44612W        W48573  10.797  14.761  20.710
44613W        W48574   9.242  15.973  21.264
44614W        W48575   9.335  17.312  18.967
44615W        W48576   9.735  16.606  21.707
44616W        W48577   9.409  14.583  20.016
44617W        W48578   8.021  15.486  20.079
44618W        W48579   7.575  16.686  20.853
44619W        W48580   9.434  17.879  19.559
44620W        W48581  10.628  15.476  20.431
44621W        W48582   9.265  17.823  21.198
44622W        W48583  10.608  16.882  18.403
44623W        W48584   9.043  16.365  19.464
44624W        W48585  10.895  14.876  21.205
44625W        W48586   9.044  16.711  20.799
44626W        W48587   9.261  15.597  20.244
44627W        W48588  10.113  15.895  19.082
44628W        W48589  10.400  15.628  18.724
44629W        W48590  10.209  17.668  19.113
44630W        W48591  10.043  17.271  19.909
44631W        W48592   9.939  16.350  18.887
44632W        W48593   9.372  16.560  19.873
44633W        W48594  10.253  16.348  19.940
44634W        W48595   7.628  15.363  20.364
44635W        W48596  10.406  16.415  21.191
44636W        W48597  10.757  18.033  20.337
44637W        W48598   8.687  17.477  19.739
44638W        W48599   9.694  18.010  21.063
44639W        W48600   9.688  15.340  20.827
44640W        W48601   8.895  18.048  20.888
44641W        W48602  10.592  15.002  19.354
44642W        W48603  10.383  16.321  20.655
44643W        W48604   7.366  15.642  20.693
44644W        W48605  10.226  15.437  19.711
44645W        W48606  10.637  15.588  21.488
44646W        W48607   9.522  17.287  19.706
44647W        W48608   8.778  17.878  19.319
44648W        W48609   7.893  15.058  18.577
44649W        W48610   8.997  14.712  20.387
44650W        W48611   8.025  17.832  18.235
44651W        W48612   8.399  16.298  18.986
44652W        W48613   9.053  16.927  21.299
44653W        W48614   8.883  15.285  19.289
44654W        W48615  10.239  14.882  19.717
44655W        W48616   9.959  18.164  20.045
44656W        W48617   9.371  17.812  20.385
44657W        W48618   8.767  16.849  20.346
44658W        W48619  10.537  17.572  20.472
44659W        W48620   8.231  15.075  19.241
44660W        W48621   8.753  17.372  20.201
44661W        W48622   8.236  15.303  18.266
44662W        W48623   9.037  15.912  20.660
44663W        W48624   9.885  14.778  20.530
44664W        W48625   7.305  16.621  20.415
44665W        W48626   9.009  16.439  18.573
44666W        W48627   8.277  14.754  18.343
44667W        W48628   9.015  15.835  19.394
44668W        W48629   9.985  14.811  21.093
44669W        W48630   8.573  16.823  21.202
44670W        W48631   9.377  16.605  21.419
44671W        W48632   9.994  16.635  21.312
44672W        W48633   9.278  14.775  21.817
44673W        W48634   8.500  15.391  20.210
44674W        W48635   7.926  15.347  19.608
44675W        W48636   7.712  18.059  19.284
44676W        W48637   9.044  17.389  21.409
44677W        W48638   8.079  16.874  18.768
44678W        W48639   9.759  16.259  19.989
44679W        W48640  10.039  16.058  20.388
44680W        W48641   9.244  16.732  20.322
44681W        W48642   9.714  17.106  18.454
44682W        W48643   9.386  15.127  19.782
44683W        W48644  10.865  15.405  19.050
44684W        W48645   7.359  17.994  21.081
44685W        W48646   7.776  17.220  20.613
44686W        W48647   7.343  18.066  18.845
44687W        W48648   9.242  15.336  20.651
44688W        W48649   8.605  17.359  18.500
44689W        W48650  10.510  17.741  18.686
44690W        W48651   9.485  16.394  18.700
44691W        W48652   8.328  15.585  19.217
44692W        W48653   9.160  15.495  18.269
44693W        W48654   9.744  17.060  21.447
44694W        W48655  10.097  14.966  19.064
44695W        W48656   7.427  14.814  18.512
44696W        W48657   8.713  17.133  20.802
44697W        W48658   8.512  17.049  19.894
44698W        W48659   8.254  17.001  18.292
44699W        W48660   7.495  17.242  19.060
44700W        W48661   7.999  16.312  21.502
44701W        W48662   8.703  14.872  21.688
44702W        W48663   9.412  15.014  21.044
44703W        W48664   8.607  14.782  19.325
44704W        W48665   9.666  14.859  18.830
44705W        W48666   7.611  14.791  20.407
44706W        W48667   7.659  15.754  19.777
44707W        W48668  10.348  14.862  20.183
44708W        W48669   7.770  15.360  18.997
44709W        W48670  10.341  15.048  20.613
44710W        W48671  10.737  16.251  18.298
44711W        W48672   8.029  15.009  20.117
44712W        W48673   9.143  15.581  21.057
44713W        W48674   7.291  15.271  18.535
44714W        W48675   8.077  16.660  21.096
44715W        W48676   9.435  16.058  20.275
44716W        W48677   9.302  18.137  18.571
44717W        W48678   7.448  16.644  18.268
44718W        W48679   8.183  17.055  21.394
44719W        W48680   7.704  16.222  21.025
44720W        W48681   8.695  16.327  20.819
44721W        W48682  10.463  14.686  21.081
44722W        W48683  10.861  16.296  21.072
44723W        W48684  10.849  16.496  18.758
44724W        W48685   9.712  16.828  18.857
44725W        W48686  10.186  18.128  18.552
44726W        W48687   9.363  16.118  21.694
44727W        W48688   7.693  17.085  21.734
44728W        W48689  10.899  15.007  21.686
44729W        W48690  10.617  15.935  20.307
44730W        W48691   8.925  18.065  21.784
44731W        W48692   8.780  14.694  18.511
44732W        W48693  10.319  17.293  18.454
44733W        W48694   8.088  15.386  21.340
44734W        W48695   8.522  17.380  21.202
44735W        W48696  10.648  15.371  21.000
44736W        W48697   9.859  18.030  18.968
44737W        W48698  10.098  16.649  20.335
44738W        W48699   8.348  15.065  21.002
44739W        W48700   8.817  16.134  21.759
44740W        W48701   8.320  17.313  18.953
44741W        W48702  10.075  16.811  19.217
44742W        W48703   7.843  15.437  20.941
44743W        W48704   9.172  17.499  19.405
44744W        W48705  10.922  16.059  19.586
44745W        W48706   9.144  14.692  21.305
44746W        W48707   9.924  17.397  20.384
44747W        W48708  10.227  17.741  20.092
44748W        W48709   9.446  17.543  18.520
44749W        W48710   7.456  17.435  21.362
44750W        W48711   8.199  15.427  20.600
44751W        W48712   8.169  14.775  19.710
44752W        W48713   9.790  15.617  20.402
44753W        W48714   8.588  16.788  18.602
44754W        W48715  10.586  16.730  20.101
44755W        W48716   7.913  17.488  21.524
44756W        W48717  10.300  18.170  19.321
44757W        W48718   8.399  15.190  19.766
44758W        W48719   8.168  16.683  19.856
44759W        W48720   8.481  18.094  20.606
44760W        W48721  10.548  18.190  21.638
44761W        W48722   9.707  16.378  20.571
44762W        W48723   7.556  16.176  18.486
44763W        W48724  10.690  17.834  19.183
44764W        W48725  10.527  15.158  18.802
44765W        W48726   8.666  14.677  21.205
44766W        W48727  10.372  17.479  19.663
44767W        W48728  10.401  16.035  19.568
44768W        W48729   8.518  15.708  19.784
44769W        W48730   8.763  15.970  21.108
44770W        W48731   9.874  17.123  20.971
44771W        W48732   8.524  15.577  21.083
44772W        W48733   8.503  18.043  19.699
44773W        W48734   7.820  18.002  21.333
44774W        W48735   7.932  17.363  18.463
44775W        W48736  10.449  17.121  19.273
44776W        W48737   8.053  15.913  21.159
44777W        W48738  10.826  15.843  18.640
44778W        W48739   8.571  16.900  19.111
44779W        W48740   9.670  16.282  21.192
44780W        W48741   9.561  15.910  20.736
44781W        W48742   8.121  16.282  20.765
44782W        W48743  10.331  18.170  20.594
44783W        W48744  10.122  14.804  21.588
44784W        W48745   7.786  14.954  21.175
44785W        W48746   8.125  15.977  20.228
44786W        W48747   8.494  15.791  18.350
44787W        W48748   7.297  17.550  20.895
44788W        W48749   8.882  16.259  20.338
44789W        W48750   8.705  15.284  18.443
44790W        W48751   7.840  16.100  19.224
44791W        W48752   7.611  17.952  20.661
44792W        W48753  10.406  16.178  18.769
44793W        W48754  10.501  15.094  21.455
44794W        W48755   9.937  17.303  19.418
44795W        W48756   7.535  16.227  21.595
44796W        W48757  10.501  14.691  18.891
44797W        W48758  10.021  17.166  18.902
44798W        W48759   8.923  16.224  18.987
44799W        W48760  10.110  15.028  18.510
44800W        W48761  10.175  15.635  20.696
44801W        W48762   7.884  16.228  19.903
44802W        W48763   8.178  17.167  19.552
44803W        W48764   9.941  15.787  19.517
44804W        W48765   8.964  15.166  20.213
44805W        W48766  10.926  17.077  20.724
44806W        W48767  10.844  15.064  20.285
44807W        W48768   7.383  17.894  19.661
44808W        W48769   7.892  17.081  19.197
44809W        W48770   7.807  14.698  21.750
44810W        W48771   8.926  17.551  21.852
44811W        W48772  10.681  16.519  19.642
44812W        W48773  10.035  16.696  18.522
44813W        W48774   9.330  18.217  20.734
44814W        W48775  10.187  16.939  21.771
44815W        W48776   9.002  14.649  19.051
44816W        W48777   9.715  15.518  19.910
44817W        W48778   7.401  17.105  20.242
44818W        W48779   8.654  15.067  18.883
44819W        W48780   8.458  16.551  21.732
44820W        W48781   9.452  15.532  19.446
44821W        W48782   9.657  16.942  20.568
44822W        W48783   7.811  17.547  21.003
44823W        W48784   8.402  17.530  21.726
44824W        W48785   8.253  15.327  18.740
44825W        W48786   9.770  15.469  19.065
44826W        W48787   9.728  17.577  21.302
44827W        W48788   8.413  16.169  19.901
44828W        W48789   8.068  17.867  20.766
44829W        W48790  10.813  17.984  18.367
44830W        W48791   7.676  16.656  21.363
44831W        W48792   9.671  16.918  20.051
44832W        W48793   8.107  16.567  19.293
44833W        W48794   8.478  17.574  20.688
44834W        W48795   8.856  14.993  19.729
44835W        W48796   7.467  16.977  18.659
44836W        W48797   8.986  15.928  18.529
44837W        W48798   7.632  16.477  19.548
44838W        W48799   8.922  15.119  21.012
44839W        W48800  10.594  14.828  18.439
44840W        W48801  10.687  16.574  21.538
44841W        W48802   9.341  17.831  21.690
44842W        W48803  10.899  16.925  21.212
44843W        W48804  10.307  17.723  21.823
44844W        W48805   8.046  18.179  20.301
44845W        W48806  10.905  16.801  19.175
44846W        W48807   9.435  16.068  19.688
44847W        W48808   9.202  14.680  19.578
44848W        W48809   8.261  17.664  19.415
44849W        W48810   8.760  15.405  20.640
44850W        W48811   8.460  14.774  20.109
44851W        W48812   7.523  17.596  18.657
44852W        W48813   9.339  16.960  19.375
44853W        W48814   8.214  17.755  21.254
44854W        W48815   7.691  16.578  18.950
44855W        W48816   7.576  15.121  19.949
44856W        W48817   9.124  17.086  20.006
44857W        W48818   7.376  14.940  19.026
44858W        W48819  10.040  16.146  20.953
44859W        W48820   9.917  15.532  18.525
44860W        W48821  10.434  17.204  20.173
44861W        W48822   9.095  17.688  20.004
44862W        W48823   8.507  17.792  18.915
44863W        W48824   9.789  14.695  18.345
44864W        W48825   7.589  17.955  20.086
44865W        W48826   9.786  15.713  21.721
44866W        W48827   7.769  15.243  21.720
44867W        W48828   7.500  15.843  19.053
44868W        W48829   8.191  15.832  18.778
44869W        W48830   9.954  16.159  21.595
44870W        W48831   8.297  16.440  20.304
44871W        W48832   9.771  14.726  19.424
44872W        W48833   8.902  18.157  19.927
44873W        W48834  10.116  17.619  20.864
44874W        W48835   9.700  17.768  19.975
44875W        W48836   9.719  16.748  19.569
44876W        W48837   9.181  14.973  18.640
44877W        W48838  10.862  14.601  19.362
44878W        W48839   8.550  16.236  18.525
44879W        W48840  10.716  15.573  19.515
44880W        W48841   9.408  16.743  18.392
44881W        W48842  10.344  16.943  21.140
44882W        W48843   9.998  17.644  18.607
44883W        W48844   8.613  15.319  21.513
44884W        W48845   8.433  15.903  20.754
44885W        W48846  10.525  17.398  21.031
44886W        W48847   9.625  15.348  21.408
44887W        W48848   7.469  15.819  21.185
44888W        W48849   9.229  16.296  20.911
44889W        W48850   7.586  17.054  19.568
44890W        W48851   7.733  16.351  20.458
44891W        W48852  10.050  16.637  20.808
44892W        W48853   9.822  18.017  21.619
44893W        W48854   9.718  15.756  21.172
44894W        W48855   9.995  17.810  19.577
44895W        W48856   8.997  17.530  20.900
44896W        W48857   8.482  17.885  20.169
44897W        W48858  10.287  17.056  20.588
44898W        W48859   9.337  17.128  21.725
44899W        W48860   7.942  17.081  20.064
44900W        W48861  10.288  16.840  19.709
44901W        W48862   9.929  17.906  20.460
44902W        W48863   7.907  17.635  20.330
44903W        W48864   8.928  15.687  21.540
44904W        W48865   9.379  17.853  19.051
44905W        W48866   8.687  17.108  21.689
44906W        W48867   8.813  17.346  19.066
44907W        W48868   8.034  16.086  18.325
44908W        W48869  10.454  16.795  22.518
44909W        W48870   8.502  17.871  22.071
44910W        W48871   8.585  16.023  23.054
44911W        W48872   8.100  15.871  23.218
44912W        W48873   9.091  16.686  22.652
44913W        W48874   9.520  15.878  22.229
44914W        W48875   9.077  17.113  22.198
44915W        W48876   7.773  14.952  23.033
44916W        W48877  10.461  15.346  21.984
44917W        W48878  10.667  17.320  22.481
44918W        W48879   7.796  18.106  22.235
44919W        W48880   8.189  18.152  22.911
44920W        W48881  10.014  16.346  23.071
44921W        W48882   9.980  16.034  22.098
44922W        W48883  10.465  16.386  22.853
44923W        W48884   9.367  15.044  22.869
44924W        W48885   8.024  17.738  22.552
44925W        W48886   8.980  17.811  22.410
44926W        W48887  10.372  15.837  21.874
44927W        W48888   8.559  16.527  23.137
44928W        W48889   8.029  16.566  21.995
44929W        W48890   7.684  15.599  22.174
44930W        W48891   7.746  17.555  22.968
44931W        W48892   8.877  17.038  23.216
44932W        W48893   9.135  15.539  22.614
44933W        W48894   7.301  16.289  22.808
44934W        W48895   9.616  15.968  22.759
44935W        W48896   9.493  16.458  22.863
44936W        W48897   9.482  15.352  22.320
44937W        W48898   9.881  15.232  23.101
44938W        W48899   8.672  15.659  22.477
44939W        W48900  10.293  15.427  22.822
44940W        W48901  10.660  15.909  22.767
44941W        W48902   8.329  14.662  22.473
44942W        W48903  10.800  17.445  21.953
44943W        W48904   9.624  15.235  21.885
44944W        W48905   9.335  17.312  22.612
44945W        W48906   9.434  17.879  23.204
44946W        W48907  10.608  16.882  22.048
44947W        W48908   9.043  16.365  23.109
44948W        W48909  10.113  15.895  22.727
44949W        W48910  10.400  15.628  22.369
44950W        W48911  10.209  17.668  22.758
44951W        W48912   9.939  16.350  22.532
44952W        W48913  10.592  15.002  22.999
44953W        W48914   8.778  17.878  22.964
44954W        W48915   7.893  15.058  22.222
44955W        W48916   8.025  17.832  21.880
44956W        W48917   8.399  16.298  22.631
44957W        W48918   8.883  15.285  22.934
44958W        W48919   8.231  15.075  22.886
44959W        W48920   8.236  15.303  21.911
44960W        W48921   9.009  16.439  22.218
44961W        W48922   8.277  14.754  21.988
44962W        W48923   9.015  15.835  23.039
44963W        W48924   7.926  15.347  23.253
44964W        W48925   7.712  18.059  22.929
44965W        W48926   8.079  16.874  22.413
44966W        W48927   9.714  17.106  22.099
44967W        W48928  10.865  15.405  22.695
44968W        W48929   7.343  18.066  22.490
44969W        W48930   8.605  17.359  22.145
44970W        W48931  10.510  17.741  22.331
44971W        W48932   9.485  16.394  22.345
44972W        W48933   8.328  15.585  22.862
44973W        W48934   9.160  15.495  21.914
44974W        W48935  10.097  14.966  22.709
44975W        W48936   7.427  14.814  22.157
44976W        W48937   8.254  17.001  21.937
44977W        W48938   7.495  17.242  22.705
44978W        W48939   8.607  14.782  22.970
44979W        W48940   9.666  14.859  22.475
44980W        W48941   7.770  15.360  22.642
44981W        W48942  10.737  16.251  21.943
44982W        W48943   7.291  15.271  22.180
44983W        W48944   9.302  18.137  22.216
44984W        W48945   7.448  16.644  21.913
44985W        W48946  10.849  16.496  22.403
44986W        W48947   9.712  16.828  22.502
44987W        W48948  10.186  18.128  22.197
44988W        W48949   8.780  14.694  22.156
44989W        W48950  10.319  17.293  22.099
44990W        W48951   9.859  18.030  22.613
44991W        W48952   8.320  17.313  22.598
44992W        W48953  10.075  16.811  22.862
44993W        W48954   9.172  17.499  23.050
44994W        W48955  10.922  16.059  23.231
44995W        W48956   9.446  17.543  22.165
44996W        W48957   8.588  16.788  22.247
44997W        W48958  10.300  18.170  22.966
44998W        W48959   7.556  16.176  22.131
44999W        W48960  10.690  17.834  22.828
45000W        W48961  10.527  15.158  22.447
45001W        W48962  10.401  16.035  23.213
45002W        W48963   7.932  17.363  22.108
45003W        W48964  10.449  17.121  22.918
45004W        W48965  10.826  15.843  22.285
45005W        W48966   8.571  16.900  22.756
45006W        W48967   8.494  15.791  21.995
45007W        W48968   8.705  15.284  22.088
45008W        W48969   7.840  16.100  22.869
45009W        W48970  10.406  16.178  22.414
45010W        W48971   9.937  17.303  23.063
45011W        W48972  10.501  14.691  22.536
45012W        W48973  10.021  17.166  22.547
45013W        W48974   8.923  16.224  22.632
45014W        W48975  10.110  15.028  22.155
45015W        W48976   8.178  17.167  23.197
45016W        W48977   9.941  15.787  23.162
45017W        W48978   7.383  17.894  23.306
45018W        W48979   7.892  17.081  22.842
45019W        W48980  10.681  16.519  23.287
45020W        W48981  10.035  16.696  22.167
45021W        W48982   9.002  14.649  22.696
45022W        W48983   8.654  15.067  22.528
45023W        W48984   9.452  15.532  23.091
45024W        W48985   8.253  15.327  22.385
45025W        W48986   9.770  15.469  22.710
45026W        W48987  10.813  17.984  22.012
45027W        W48988   7.467  16.977  22.304
45028W        W48989   8.986  15.928  22.174
45029W        W48990   7.632  16.477  23.193
45030W        W48991  10.594  14.828  22.084
45031W        W48992  10.905  16.801  22.820
45032W        W48993   9.202  14.680  23.223
45033W        W48994   8.261  17.664  23.060
45034W        W48995   7.523  17.596  22.302
45035W        W48996   9.339  16.960  23.020
45036W        W48997   7.691  16.578  22.595
45037W        W48998   7.376  14.940  22.671
45038W        W48999   9.917  15.532  22.170
45039W        W49000   8.507  17.792  22.560
45040W        W49001   9.789  14.695  21.990
45041W        W49002   7.500  15.843  22.698
45042W        W49003   8.191  15.832  22.423
45043W        W49004   9.719  16.748  23.214
45044W        W49005   9.181  14.973  22.285
45045W        W49006  10.862  14.601  23.007
45046W        W49007   8.550  16.236  22.170
45047W        W49008  10.716  15.573  23.160
45048W        W49009   9.408  16.743  22.037
45049W        W49010   9.998  17.644  22.252
45050W        W49011   7.586  17.054  23.213
45051W        W49012   9.995  17.810  23.222
45052W        W49013   9.379  17.853  22.696
45053W        W49014   8.813  17.346  22.711
45054W        W49015   8.034  16.086  21.970
45055W        W49016   7.373  21.816   3.359
45056W        W49017   7.749  20.709   2.882
45057W        W49018  10.454  20.439   0.652
45058W        W49019  10.584  21.524   2.679
45059W        W49020   8.502  21.515   0.205
45060W        W49021   8.585  19.667   1.188
45061W        W49022   8.100  19.515   1.352
45062W        W49023   9.091  20.330   0.786
45063W        W49024   8.766  21.422   3.141
45064W        W49025   7.415  18.983   3.104
45065W        W49026   8.177  18.263   2.906
45066W        W49027   9.871  18.651   1.793
45067W        W49028   9.520  19.522   0.363
45068W        W49029  10.090  18.956   3.454
45069W        W49030   7.456  18.748   2.579
45070W        W49031   7.555  21.367   3.600
45071W        W49032   9.077  20.757   0.332
45072W        W49033   7.509  19.540   2.025
45073W        W49034   8.402  19.431   3.262
45074W        W49035  10.861  19.290   1.761
45075W        W49036  10.625  20.333   2.620
45076W        W49037   8.933  19.666   1.647
45077W        W49038   9.479  21.005   2.016
45078W        W49039   7.979  20.439   2.248
45079W        W49040   7.338  19.967   1.819
45080W        W49041   8.374  19.939   3.011
45081W        W49042  10.645  19.722   3.265
45082W        W49043   8.261  21.166   1.710
45083W        W49044   9.382  20.855   2.844
45084W        W49045   8.602  19.495   2.069
45085W        W49046   8.894  20.279   1.712
45086W        W49047   9.891  21.052   3.560
45087W        W49048   8.970  20.372   3.570
45088W        W49049   8.951  20.088   3.048
45089W        W49050   7.360  19.479   3.570
45090W        W49051  10.192  21.014   3.169
45091W        W49052   7.773  18.596   1.167
45092W        W49053   8.300  20.854   2.166
45093W        W49054  10.763  20.637   1.456
45094W        W49055  10.176  19.037   2.023
45095W        W49056  10.461  18.990   0.118
45096W        W49057  10.926  19.791   2.424
45097W        W49058   8.893  21.498   2.177
45098W        W49059  10.667  20.964   0.615
45099W        W49060   7.796  21.750   0.369
45100W        W49061   8.189  21.796   1.045
45101W        W49062   7.986  18.550   2.471
45102W        W49063  10.609  19.568   2.746
45103W        W49064  10.014  19.990   1.205
45104W        W49065   9.980  19.678   0.232
45105W        W49066   9.188  20.822   2.372
45106W        W49067   8.994  19.152   1.571
45107W        W49068   9.594  21.239   2.565
45108W        W49069  10.465  20.030   0.987
45109W        W49070   9.367  18.688   1.003
45110W        W49071   8.024  21.382   0.686
45111W        W49072   7.395  18.881   1.285
45112W        W49073  10.181  19.488   1.759
45113W        W49074   7.639  21.105   1.674
45114W        W49075   8.980  21.455   0.544
45115W        W49076  10.372  19.481   0.008
45116W        W49077   7.395  21.239   2.172
45117W        W49078   8.186  20.811   2.652
45118W        W49079   8.559  20.171   1.271
45119W        W49080   8.581  18.576   2.364
45120W        W49081  10.810  18.338   1.661
45121W        W49082   8.029  20.210   0.129
45122W        W49083   7.684  19.243   0.308
45123W        W49084   7.746  21.199   1.102
45124W        W49085   8.877  20.682   1.350
45125W        W49086  10.209  21.541   3.064
45126W        W49087   9.135  19.183   0.748
45127W        W49088  10.518  21.581   1.520
45128W        W49089  10.195  19.434   3.118
45129W        W49090  10.908  21.090   1.252
45130W        W49091   9.535  20.382   2.736
45131W        W49092   7.301  19.933   0.942
45132W        W49093   8.412  20.348   2.515
45133W        W49094   9.616  19.612   0.893
45134W        W49095   9.493  20.102   0.997
45135W        W49096   7.836  19.522   2.471
45136W        W49097   7.821  19.398   3.393
45137W        W49098   7.711  18.315   1.552
45138W        W49099   9.479  18.662   2.113
45139W        W49100   9.127  18.847   3.276
45140W        W49101   9.482  18.996   0.454
45141W        W49102  10.665  21.389   3.208
45142W        W49103   9.632  18.470   3.247
45143W        W49104  10.651  20.771   3.369
45144W        W49105  10.081  18.938   2.965
45145W        W49106   9.881  18.876   1.235
45146W        W49107  10.274  20.010   3.639
45147W        W49108   8.014  21.586   1.625
45148W        W49109   8.672  19.303   0.611
45149W        W49110   8.241  18.587   3.275
45150W        W49111  10.293  19.071   0.956
45151W        W49112  10.660  19.553   0.901
45152W        W49113   8.403  21.770   3.372
45153W        W49114   8.329  18.306   0.607
45154W        W49115  10.650  18.840   1.642
45155W        W49116  10.800  21.089   0.087
45156W        W49117   7.707  20.292   1.789
45157W        W49118   9.624  18.879   0.019
45158W        W49119  10.758  21.211   1.739
45159W        W49120  10.797  18.405   2.489
45160W        W49121   9.242  19.617   3.043
45161W        W49122   9.335  20.956   0.746
45162W        W49123   9.735  20.250   3.486
45163W        W49124   9.409  18.227   1.795
45164W        W49125   8.021  19.130   1.858
45165W        W49126   7.575  20.330   2.632
45166W        W49127   9.434  21.523   1.338
45167W        W49128  10.628  19.120   2.210
45168W        W49129   9.265  21.467   2.977
45169W        W49130  10.608  20.526   0.182
45170W        W49131   9.043  20.009   1.243
45171W        W49132  10.895  18.520   2.984
45172W        W49133   9.044  20.355   2.578
45173W        W49134   9.261  19.241   2.023
45174W        W49135  10.113  19.539   0.861
45175W        W49136  10.400  19.272   0.503
45176W        W49137  10.209  21.312   0.892
45177W        W49138  10.043  20.915   1.688
45178W        W49139   9.939  19.994   0.666
45179W        W49140   9.372  20.204   1.652
45180W        W49141  10.253  19.992   1.719
45181W        W49142   7.628  19.007   2.143
45182W        W49143  10.406  20.059   2.970
45183W        W49144  10.757  21.677   2.116
45184W        W49145   8.687  21.121   1.518
45185W        W49146   9.694  21.654   2.842
45186W        W49147   9.688  18.984   2.606
45187W        W49148   8.895  21.692   2.667
45188W        W49149  10.592  18.646   1.133
45189W        W49150  10.383  19.965   2.434
45190W        W49151   7.366  19.286   2.472
45191W        W49152  10.226  19.081   1.490
45192W        W49153  10.637  19.232   3.267
45193W        W49154   9.522  20.931   1.485
45194W        W49155   8.778  21.522   1.098
45195W        W49156   7.893  18.702   0.356
45196W        W49157   8.997  18.356   2.166
45197W        W49158   8.025  21.476   0.014
45198W        W49159   8.399  19.942   0.765
45199W        W49160   9.053  20.571   3.078
45200W        W49161   8.883  18.929   1.068
45201W        W49162  10.239  18.526   1.496
45202W        W49163   9.959  21.808   1.824
45203W        W49164   9.371  21.456   2.164
45204W        W49165   8.767  20.493   2.125
45205W        W49166  10.537  21.216   2.251
45206W        W49167   8.231  18.719   1.020
45207W        W49168   8.753  21.016   1.980
45208W        W49169   8.236  18.947   0.045
45209W        W49170   9.037  19.556   2.439
45210W        W49171   9.885  18.422   2.309
45211W        W49172   7.305  20.265   2.194
45212W        W49173   9.009  20.083   0.352
45213W        W49174   8.277  18.398   0.122
45214W        W49175   9.015  19.479   1.173
45215W        W49176   9.985  18.455   2.872
45216W        W49177   8.573  20.467   2.981
45217W        W49178   9.377  20.249   3.198
45218W        W49179   9.994  20.279   3.091
45219W        W49180   9.278  18.419   3.596
45220W        W49181   8.500  19.035   1.989
45221W        W49182   7.926  18.991   1.387
45222W        W49183   7.712  21.703   1.063
45223W        W49184   9.044  21.033   3.188
45224W        W49185   8.079  20.518   0.547
45225W        W49186   9.759  19.903   1.768
45226W        W49187  10.039  19.702   2.167
45227W        W49188   9.244  20.376   2.101
45228W        W49189   9.714  20.750   0.233
45229W        W49190   9.386  18.771   1.561
45230W        W49191  10.865  19.049   0.829
45231W        W49192   7.359  21.638   2.860
45232W        W49193   7.776  20.864   2.392
45233W        W49194   7.343  21.710   0.624
45234W        W49195   9.242  18.980   2.430
45235W        W49196   8.605  21.003   0.279
45236W        W49197  10.510  21.385   0.465
45237W        W49198   9.485  20.038   0.479
45238W        W49199   8.328  19.229   0.996
45239W        W49200   9.160  19.139   0.048
45240W        W49201   9.744  20.704   3.226
45241W        W49202  10.097  18.610   0.843
45242W        W49203   7.427  18.458   0.291
45243W        W49204   8.713  20.777   2.581
45244W        W49205   8.512  20.693   1.673
45245W        W49206   8.254  20.645   0.071
45246W        W49207   7.495  20.886   0.839
45247W        W49208   7.999  19.956   3.281
45248W        W49209   8.703  18.516   3.467
45249W        W49210   9.412  18.658   2.823
45250W        W49211   8.607  18.426   1.104
45251W        W49212   9.666  18.503   0.609
45252W        W49213   7.611  18.435   2.186
45253W        W49214   7.659  19.398   1.556
45254W        W49215  10.348  18.506   1.962
45255W        W49216   7.770  19.004   0.776
45256W        W49217  10.341  18.692   2.392
45257W        W49218  10.737  19.895   0.077
45258W        W49219   8.029  18.653   1.896
45259W        W49220   9.143  19.225   2.836
45260W        W49221   7.291  18.915   0.314
45261W        W49222   8.077  20.304   2.875
45262W        W49223   9.435  19.702   2.054
45263W        W49224   9.302  21.781   0.350
45264W        W49225   7.448  20.288   0.047
45265W        W49226   8.183  20.699   3.173
45266W        W49227   7.704  19.866   2.804
45267W        W49228   8.695  19.971   2.598
45268W        W49229  10.463  18.330   2.860
45269W        W49230  10.861  19.940   2.851
45270W        W49231  10.849  20.140   0.537
45271W        W49232   9.712  20.472   0.636
45272W        W49233  10.186  21.772   0.331
45273W        W49234   9.363  19.762   3.473
45274W        W49235   7.693  20.729   3.513
45275W        W49236  10.899  18.651   3.465
45276W        W49237  10.617  19.579   2.086
45277W        W49238   8.925  21.709   3.563
45278W        W49239   8.780  18.338   0.290
45279W        W49240  10.319  20.937   0.233
45280W        W49241   8.088  19.030   3.119
45281W        W49242   8.522  21.024   2.981
45282W        W49243  10.648  19.015   2.779
45283W        W49244   9.859  21.674   0.747
45284W        W49245  10.098  20.293   2.114
45285W        W49246   8.348  18.709   2.781
45286W        W49247   8.817  19.778   3.538
45287W        W49248   8.320  20.957   0.732
45288W        W49249  10.075  20.455   0.996
45289W        W49250   7.843  19.081   2.720
45290W        W49251   9.172  21.143   1.184
45291W        W49252  10.922  19.703   1.365
45292W        W49253   9.144  18.336   3.084
45293W        W49254   9.924  21.041   2.163
45294W        W49255  10.227  21.385   1.871
45295W        W49256   9.446  21.187   0.299
45296W        W49257   7.456  21.079   3.141
45297W        W49258   8.199  19.071   2.379
45298W        W49259   8.169  18.419   1.489
45299W        W49260   9.790  19.261   2.181
45300W        W49261   8.588  20.432   0.381
45301W        W49262  10.586  20.374   1.880
45302W        W49263   7.913  21.132   3.303
45303W        W49264  10.300  21.814   1.100
45304W        W49265   8.399  18.834   1.545
45305W        W49266   8.168  20.327   1.635
45306W        W49267   8.481  21.738   2.385
45307W        W49268  10.548  21.834   3.417
45308W        W49269   9.707  20.022   2.350
45309W        W49270   7.556  19.820   0.265
45310W        W49271  10.690  21.478   0.962
45311W        W49272  10.527  18.802   0.581
45312W        W49273   8.666  18.321   2.984
45313W        W49274  10.372  21.123   1.442
45314W        W49275  10.401  19.679   1.347
45315W        W49276   8.518  19.352   1.563
45316W        W49277   8.763  19.614   2.887
45317W        W49278   9.874  20.767   2.750
45318W        W49279   8.524  19.221   2.862
45319W        W49280   8.503  21.687   1.478
45320W        W49281   7.820  21.646   3.112
45321W        W49282   7.932  21.007   0.242
45322W        W49283  10.449  20.765   1.052
45323W        W49284   8.053  19.557   2.938
45324W        W49285  10.826  19.487   0.419
45325W        W49286   8.571  20.544   0.890
45326W        W49287   9.670  19.926   2.971
45327W        W49288   9.561  19.554   2.515
45328W        W49289   8.121  19.926   2.544
45329W        W49290  10.331  21.814   2.373
45330W        W49291  10.122  18.448   3.367
45331W        W49292   7.786  18.598   2.954
45332W        W49293   8.125  19.621   2.007
45333W        W49294   8.494  19.435   0.129
45334W        W49295   7.297  21.194   2.674
45335W        W49296   8.882  19.903   2.117
45336W        W49297   8.705  18.928   0.222
45337W        W49298   7.840  19.744   1.003
45338W        W49299   7.611  21.596   2.440
45339W        W49300  10.406  19.822   0.548
45340W        W49301  10.501  18.738   3.234
45341W        W49302   9.937  20.947   1.197
45342W        W49303   7.535  19.871   3.374
45343W        W49304  10.501  18.335   0.670
45344W        W49305  10.021  20.810   0.681
45345W        W49306   8.923  19.868   0.766
45346W        W49307  10.110  18.672   0.289
45347W        W49308  10.175  19.279   2.475
45348W        W49309   7.884  19.872   1.682
45349W        W49310   8.178  20.811   1.331
45350W        W49311   9.941  19.431   1.296
45351W        W49312   8.964  18.810   1.992
45352W        W49313  10.926  20.721   2.503
45353W        W49314  10.844  18.708   2.064
45354W        W49315   7.383  21.538   1.440
45355W        W49316   7.892  20.725   0.976
45356W        W49317   7.807  18.342   3.529
45357W        W49318   8.926  21.195   3.631
45358W        W49319  10.681  20.163   1.421
45359W        W49320  10.035  20.340   0.301
45360W        W49321   9.330  21.861   2.513
45361W        W49322  10.187  20.583   3.550
45362W        W49323   9.002  18.293   0.830
45363W        W49324   9.715  19.162   1.689
45364W        W49325   7.401  20.749   2.021
45365W        W49326   8.654  18.711   0.662
45366W        W49327   8.458  20.195   3.511
45367W        W49328   9.452  19.176   1.225
45368W        W49329   9.657  20.586   2.347
45369W        W49330   7.811  21.191   2.782
45370W        W49331   8.402  21.174   3.505
45371W        W49332   8.253  18.971   0.519
45372W        W49333   9.770  19.113   0.844
45373W        W49334   9.728  21.221   3.081
45374W        W49335   8.413  19.813   1.680
45375W        W49336   8.068  21.511   2.545
45376W        W49337  10.813  21.628   0.146
45377W        W49338   7.676  20.300   3.142
45378W        W49339   9.671  20.562   1.830
45379W        W49340   8.107  20.211   1.072
45380W        W49341   8.478  21.218   2.467
45381W        W49342   8.856  18.637   1.508
45382W        W49343   7.467  20.621   0.438
45383W        W49344   8.986  19.572   0.308
45384W        W49345   7.632  20.121   1.327
45385W        W49346   8.922  18.763   2.791
45386W        W49347  10.594  18.472   0.218
45387W        W49348  10.687  20.218   3.317
45388W        W49349   9.341  21.475   3.469
45389W        W49350  10.899  20.569   2.991
45390W        W49351  10.307  21.367   3.602
45391W        W49352   8.046  21.823   2.080
45392W        W49353  10.905  20.445   0.954
45393W        W49354   9.435  19.712   1.467
45394W        W49355   9.202  18.324   1.357
45395W        W49356   8.261  21.308   1.194
45396W        W49357   8.760  19.049   2.419
45397W        W49358   8.460  18.418   1.888
45398W        W49359   7.523  21.240   0.436
45399W        W49360   9.339  20.604   1.154
45400W        W49361   8.214  21.399   3.033
45401W        W49362   7.691  20.222   0.729
45402W        W49363   7.576  18.765   1.728
45403W        W49364   9.124  20.730   1.785
45404W        W49365   7.376  18.584   0.805
45405W        W49366  10.040  19.790   2.732
45406W        W49367   9.917  19.176   0.304
45407W        W49368  10.434  20.848   1.952
45408W        W49369   9.095  21.332   1.783
45409W        W49370   8.507  21.436   0.694
45410W        W49371   9.789  18.339   0.124
45411W        W49372   7.589  21.599   1.865
45412W        W49373   9.786  19.357   3.500
45413W        W49374   7.769  18.887   3.499
45414W        W49375   7.500  19.487   0.832
45415W        W49376   8.191  19.476   0.557
45416W        W49377   9.954  19.803   3.374
45417W        W49378   8.297  20.084   2.083
45418W        W49379   9.771  18.370   1.203
45419W        W49380   8.902  21.801   1.706
45420W        W49381  10.116  21.263   2.643
45421W        W49382   9.700  21.412   1.754
45422W        W49383   9.719  20.392   1.348
45423W        W49384   9.181  18.617   0.419
45424W        W49385  10.862  18.245   1.141
45425W        W49386   8.550  19.880   0.304
45426W        W49387  10.716  19.217   1.294
45427W        W49388   9.408  20.387   0.171
45428W        W49389  10.344  20.587   2.919
45429W        W49390   9.998  21.288   0.386
45430W        W49391   8.613  18.963   3.292
45431W        W49392   8.433  19.547   2.533
45432W        W49393  10.525  21.042   2.810
45433W        W49394   9.625  18.992   3.187
45434W        W49395   7.469  19.463   2.964
45435W        W49396   9.229  19.940   2.690
45436W        W49397   7.586  20.698   1.347
45437W        W49398   7.733  19.995   2.237
45438W        W49399  10.050  20.281   2.587
45439W        W49400   9.822  21.661   3.398
45440W        W49401   9.718  19.400   2.951
45441W        W49402   9.995  21.454   1.356
45442W        W49403   8.997  21.174   2.679
45443W        W49404   8.482  21.529   1.948
45444W        W49405  10.287  20.700   2.367
45445W        W49406   9.337  20.772   3.504
45446W        W49407   7.942  20.725   1.843
45447W        W49408  10.288  20.484   1.488
45448W        W49409   9.929  21.550   2.239
45449W        W49410   7.907  21.279   2.109
45450W        W49411   8.928  19.331   3.319
45451W        W49412   9.379  21.497   0.830
45452W        W49413   8.687  20.752   3.468
45453W        W49414   8.813  20.990   0.845
45454W        W49415   8.034  19.730   0.104
45455W        W49416   7.373  21.816   7.003
45456W        W49417   7.749  20.709   6.526
45457W        W49418  10.454  20.439   4.296
45458W        W49419  10.584  21.524   6.323
45459W        W49420   8.502  21.515   3.849
45460W        W49421   8.585  19.667   4.832
45461W        W49422   8.100  19.515   4.996
45462W        W49423   9.091  20.330   4.430
45463W        W49424   8.766  21.422   6.785
45464W        W49425   7.415  18.983   6.748
45465W        W49426   8.177  18.263   6.550
45466W        W49427   9.871  18.651   5.437
45467W        W49428   9.520  19.522   4.007
45468W        W49429  10.090  18.956   7.098
45469W        W49430   7.456  18.748   6.223
45470W        W49431   7.555  21.367   7.244
45471W        W49432   9.077  20.757   3.976
45472W        W49433   7.509  19.540   5.669
45473W        W49434   8.402  19.431   6.906
45474W        W49435  10.861  19.290   5.405
45475W        W49436  10.625  20.333   6.264
45476W        W49437   8.933  19.666   5.291
45477W        W49438   9.479  21.005   5.660
45478W        W49439   7.979  20.439   5.892
45479W        W49440   7.338  19.967   5.463
45480W        W49441   8.374  19.939   6.655
45481W        W49442  10.645  19.722   6.909
45482W        W49443   8.261  21.166   5.354
45483W        W49444   9.382  20.855   6.488
45484W        W49445   8.602  19.495   5.713
45485W        W49446   8.894  20.279   5.356
45486W        W49447   9.891  21.052   7.204
45487W        W49448   8.970  20.372   7.214
45488W        W49449   8.951  20.088   6.692
45489W        W49450   7.360  19.479   7.214
45490W        W49451  10.192  21.014   6.813
45491W        W49452   7.773  18.596   4.811
45492W        W49453   8.300  20.854   5.810
45493W        W49454  10.763  20.637   5.100
45494W        W49455  10.176  19.037   5.667
45495W        W49456  10.461  18.990   3.762
45496W        W49457  10.926  19.791   6.068
45497W        W49458   8.893  21.498   5.821
45498W        W49459  10.667  20.964   4.259
45499W        W49460   7.796  21.750   4.013
45500W        W49461   8.189  21.796   4.689
45501W        W49462   7.986  18.550   6.115
45502W        W49463  10.609  19.568   6.390
45503W        W49464  10.014  19.990   4.849
45504W        W49465   9.980  19.678   3.876
45505W        W49466   9.188  20.822   6.016
45506W        W49467   8.994  19.152   5.215
45507W        W49468   9.594  21.239   6.209
45508W        W49469  10.465  20.030   4.631
45509W        W49470   9.367  18.688   4.647
45510W        W49471   8.024  21.382   4.330
45511W        W49472   7.395  18.881   4.929
45512W        W49473  10.181  19.488   5.403
45513W        W49474   7.639  21.105   5.318
45514W        W49475   8.980  21.455   4.188
45515W        W49476  10.372  19.481   3.652
45516W        W49477   7.395  21.239   5.816
45517W        W49478   8.186  20.811   6.296
45518W        W49479   8.559  20.171   4.915
45519W        W49480   8.581  18.576   6.008
45520W        W49481  10.810  18.338   5.305
45521W        W49482   8.029  20.210   3.773
45522W        W49483   7.684  19.243   3.952
45523W        W49484   7.746  21.199   4.746
45524W        W49485   8.877  20.682   4.994
45525W        W49486  10.209  21.541   6.708
45526W        W49487   9.135  19.183   4.392
45527W        W49488  10.518  21.581   5.164
45528W        W49489  10.195  19.434   6.762
45529W        W49490  10.908  21.090   4.896
45530W        W49491   9.535  20.382   6.380
45531W        W49492   7.301  19.933   4.586
45532W        W49493   8.412  20.348   6.159
45533W        W49494   9.616  19.612   4.537
45534W        W49495   9.493  20.102   4.641
45535W        W49496   7.836  19.522   6.115
45536W        W49497   7.821  19.398   7.037
45537W        W49498   7.711  18.315   5.196
45538W        W49499   9.479  18.662   5.757
45539W        W49500   9.127  18.847   6.920
45540W        W49501   9.482  18.996   4.098
45541W        W49502  10.665  21.389   6.852
45542W        W49503   9.632  18.470   6.891
45543W        W49504  10.651  20.771   7.013
45544W        W49505  10.081  18.938   6.609
45545W        W49506   9.881  18.876   4.879
45546W        W49507  10.274  20.010   7.283
45547W        W49508   8.014  21.586   5.269
45548W        W49509   8.672  19.303   4.255
45549W        W49510   8.241  18.587   6.919
45550W        W49511  10.293  19.071   4.600
45551W        W49512  10.660  19.553   4.545
45552W        W49513   8.403  21.770   7.016
45553W        W49514   8.329  18.306   4.251
45554W        W49515  10.650  18.840   5.286
45555W        W49516  10.800  21.089   3.731
45556W        W49517   7.707  20.292   5.433
45557W        W49518   9.624  18.879   3.663
45558W        W49519  10.758  21.211   5.383
45559W        W49520  10.797  18.405   6.133
45560W        W49521   9.242  19.617   6.687
45561W        W49522   9.335  20.956   4.390
45562W        W49523   9.735  20.250   7.130
45563W        W49524   9.409  18.227   5.439
45564W        W49525   8.021  19.130   5.502
45565W        W49526   7.575  20.330   6.276
45566W        W49527   9.434  21.523   4.982
45567W        W49528  10.628  19.120   5.854
45568W        W49529   9.265  21.467   6.621
45569W        W49530  10.608  20.526   3.826
45570W        W49531   9.043  20.009   4.887
45571W        W49532  10.895  18.520   6.628
45572W        W49533   9.044  20.355   6.222
45573W        W49534   9.261  19.241   5.667
45574W        W49535  10.113  19.539   4.505
45575W        W49536  10.400  19.272   4.147
45576W        W49537  10.209  21.312   4.536
45577W        W49538  10.043  20.915   5.332
45578W        W49539   9.939  19.994   4.310
45579W        W49540   9.372  20.204   5.296
45580W        W49541  10.253  19.992   5.363
45581W        W49542   7.628  19.007   5.787
45582W        W49543  10.406  20.059   6.614
45583W        W49544  10.757  21.677   5.760
45584W        W49545   8.687  21.121   5.162
45585W        W49546   9.694  21.654   6.486
45586W        W49547   9.688  18.984   6.250
45587W        W49548   8.895  21.692   6.311
45588W        W49549  10.592  18.646   4.777
45589W        W49550  10.383  19.965   6.078
45590W        W49551   7.366  19.286   6.116
45591W        W49552  10.226  19.081   5.134
45592W        W49553  10.637  19.232   6.911
45593W        W49554   9.522  20.931   5.129
45594W        W49555   8.778  21.522   4.742
45595W        W49556   7.893  18.702   4.000
45596W        W49557   8.997  18.356   5.810
45597W        W49558   8.025  21.476   3.658
45598W        W49559   8.399  19.942   4.409
45599W        W49560   9.053  20.571   6.722
45600W        W49561   8.883  18.929   4.712
45601W        W49562  10.239  18.526   5.140
45602W        W49563   9.959  21.808   5.468
45603W        W49564   9.371  21.456   5.808
45604W        W49565   8.767  20.493   5.769
45605W        W49566  10.537  21.216   5.895
45606W        W49567   8.231  18.719   4.664
45607W        W49568   8.753  21.016   5.624
45608W        W49569   8.236  18.947   3.689
45609W        W49570   9.037  19.556   6.083
45610W        W49571   9.885  18.422   5.953
45611W        W49572   7.305  20.265   5.838
45612W        W49573   9.009  20.083   3.996
45613W        W49574   8.277  18.398   3.766
45614W        W49575   9.015  19.479   4.817
45615W        W49576   9.985  18.455   6.516
45616W        W49577   8.573  20.467   6.625
45617W        W49578   9.377  20.249   6.842
45618W        W49579   9.994  20.279   6.735
45619W        W49580   9.278  18.419   7.240
45620W        W49581   8.500  19.035   5.633
45621W        W49582   7.926  18.991   5.031
45622W        W49583   7.712  21.703   4.707
45623W        W49584   9.044  21.033   6.832
45624W        W49585   8.079  20.518   4.191
45625W        W49586   9.759  19.903   5.412
45626W        W49587  10.039  19.702   5.811
45627W        W49588   9.244  20.376   5.745
45628W        W49589   9.714  20.750   3.877
45629W        W49590   9.386  18.771   5.205
45630W        W49591  10.865  19.049   4.473
45631W        W49592   7.359  21.638   6.504
45632W        W49593   7.776  20.864   6.036
45633W        W49594   7.343  21.710   4.268
45634W        W49595   9.242  18.980   6.074
45635W        W49596   8.605  21.003   3.923
45636W        W49597  10.510  21.385   4.109
45637W        W49598   9.485  20.038   4.123
45638W        W49599   8.328  19.229   4.640
45639W        W49600   9.160  19.139   3.692
45640W        W49601   9.744  20.704   6.870
45641W        W49602  10.097  18.610   4.487
45642W        W49603   7.427  18.458   3.935
45643W        W49604   8.713  20.777   6.225
45644W        W49605   8.512  20.693   5.317
45645W        W49606   8.254  20.645   3.715
45646W        W49607   7.495  20.886   4.483
45647W        W49608   7.999  19.956   6.925
45648W        W49609   8.703  18.516   7.111
45649W        W49610   9.412  18.658   6.467
45650W        W49611   8.607  18.426   4.748
45651W        W49612   9.666  18.503   4.253
45652W        W49613   7.611  18.435   5.830
45653W        W49614   7.659  19.398   5.200
45654W        W49615  10.348  18.506   5.606
45655W        W49616   7.770  19.004   4.420
45656W        W49617  10.341  18.692   6.036
45657W        W49618  10.737  19.895   3.721
45658W        W49619   8.029  18.653   5.540
45659W        W49620   9.143  19.225   6.480
45660W        W49621   7.291  18.915   3.958
45661W        W49622   8.077  20.304   6.519
45662W        W49623   9.435  19.702   5.698
45663W        W49624   9.302  21.781   3.994
45664W        W49625   7.448  20.288   3.691
45665W        W49626   8.183  20.699   6.817
45666W        W49627   7.704  19.866   6.448
45667W        W49628   8.695  19.971   6.242
45668W        W49629  10.463  18.330   6.504
45669W        W49630  10.861  19.940   6.495
45670W        W49631  10.849  20.140   4.181
45671W        W49632   9.712  20.472   4.280
45672W        W49633  10.186  21.772   3.975
45673W        W49634   9.363  19.762   7.117
45674W        W49635   7.693  20.729   7.157
45675W        W49636  10.899  18.651   7.109
45676W        W49637  10.617  19.579   5.730
45677W        W49638   8.925  21.709   7.207
45678W        W49639   8.780  18.338   3.934
45679W        W49640  10.319  20.937   3.877
45680W        W49641   8.088  19.030   6.763
45681W        W49642   8.522  21.024   6.625
45682W        W49643  10.648  19.015   6.423
45683W        W49644   9.859  21.674   4.391
45684W        W49645  10.098  20.293   5.758
45685W        W49646   8.348  18.709   6.425
45686W        W49647   8.817  19.778   7.182
45687W        W49648   8.320  20.957   4.376
45688W        W49649  10.075  20.455   4.640
45689W        W49650   7.843  19.081   6.364
45690W        W49651   9.172  21.143   4.828
45691W        W49652  10.922  19.703   5.009
45692W        W49653   9.144  18.336   6.728
45693W        W49654   9.924  21.041   5.807
45694W        W49655  10.227  21.385   5.515
45695W        W49656   9.446  21.187   3.943
45696W        W49657   7.456  21.079   6.785
45697W        W49658   8.199  19.071   6.023
45698W        W49659   8.169  18.419   5.133
45699W        W49660   9.790  19.261   5.825
45700W        W49661   8.588  20.432   4.025
45701W        W49662  10.586  20.374   5.524
45702W        W49663   7.913  21.132   6.947
45703W        W49664  10.300  21.814   4.744
45704W        W49665   8.399  18.834   5.189
45705W        W49666   8.168  20.327   5.279
45706W        W49667   8.481  21.738   6.029
45707W        W49668  10.548  21.834   7.061
45708W        W49669   9.707  20.022   5.994
45709W        W49670   7.556  19.820   3.909
45710W        W49671  10.690  21.478   4.606
45711W        W49672  10.527  18.802   4.225
45712W        W49673   8.666  18.321   6.628
45713W        W49674  10.372  21.123   5.086
45714W        W49675  10.401  19.679   4.991
45715W        W49676   8.518  19.352   5.207
45716W        W49677   8.763  19.614   6.531
45717W        W49678   9.874  20.767   6.394
45718W        W49679   8.524  19.221   6.506
45719W        W49680   8.503  21.687   5.122
45720W        W49681   7.820  21.646   6.756
45721W        W49682   7.932  21.007   3.886
45722W        W49683  10.449  20.765   4.696
45723W        W49684   8.053  19.557   6.582
45724W        W49685  10.826  19.487   4.063
45725W        W49686   8.571  20.544   4.534
45726W        W49687   9.670  19.926   6.615
45727W        W49688   9.561  19.554   6.159
45728W        W49689   8.121  19.926   6.188
45729W        W49690  10.331  21.814   6.017
45730W        W49691  10.122  18.448   7.011
45731W        W49692   7.786  18.598   6.598
45732W        W49693   8.125  19.621   5.651
45733W        W49694   8.494  19.435   3.773
45734W        W49695   7.297  21.194   6.318
45735W        W49696   8.882  19.903   5.761
45736W        W49697   8.705  18.928   3.866
45737W        W49698   7.840  19.744   4.647
45738W        W49699   7.611  21.596   6.084
45739W        W49700  10.406  19.822   4.192
45740W        W49701  10.501  18.738   6.878
45741W        W49702   9.937  20.947   4.841
45742W        W49703   7.535  19.871   7.018
45743W        W49704  10.501  18.335   4.314
45744W        W49705  10.021  20.810   4.325
45745W        W49706   8.923  19.868   4.410
45746W        W49707  10.110  18.672   3.933
45747W        W49708  10.175  19.279   6.119
45748W        W49709   7.884  19.872   5.326
45749W        W49710   8.178  20.811   4.975
45750W        W49711   9.941  19.431   4.940
45751W        W49712   8.964  18.810   5.636
45752W        W49713  10.926  20.721   6.147
45753W        W49714  10.844  18.708   5.708
45754W        W49715   7.383  21.538   5.084
45755W        W49716   7.892  20.725   4.620
45756W        W49717   7.807  18.342   7.173
45757W        W49718   8.926  21.195   7.275
45758W        W49719  10.681  20.163   5.065
45759W        W49720  10.035  20.340   3.945
45760W        W49721   9.330  21.861   6.157
45761W        W49722  10.187  20.583   7.194
45762W        W49723   9.002  18.293   4.474
45763W        W49724   9.715  19.162   5.333
45764W        W49725   7.401  20.749   5.665
45765W        W49726   8.654  18.711   4.306
45766W        W49727   8.458  20.195   7.155
45767W        W49728   9.452  19.176   4.869
45768W        W49729   9.657  20.586   5.991
45769W        W49730   7.811  21.191   6.426
45770W        W49731   8.402  21.174   7.149
45771W        W49732   8.253  18.971   4.163
45772W        W49733   9.770  19.113   4.488
45773W        W49734   9.728  21.221   6.725
45774W        W49735   8.413  19.813   5.324
45775W        W49736   8.068  21.511   6.189
45776W        W49737  10.813  21.628   3.790
45777W        W49738   7.676  20.300   6.786
45778W        W49739   9.671  20.562   5.474
45779W        W49740   8.107  20.211   4.716
45780W        W49741   8.478  21.218   6.111
45781W        W49742   8.856  18.637   5.152
45782W        W49743   7.467  20.621   4.082
45783W        W49744   8.986  19.572   3.952
45784W        W49745   7.632  20.121   4.971
45785W        W49746   8.922  18.763   6.435
45786W        W49747  10.594  18.472   3.862
45787W        W49748  10.687  20.218   6.961
45788W        W49749   9.341  21.475   7.113
45789W        W49750  10.899  20.569   6.635
45790W        W49751  10.307  21.367   7.246
45791W        W49752   8.046  21.823   5.724
45792W        W49753  10.905  20.445   4.598
45793W        W49754   9.435  19.712   5.111
45794W        W49755   9.202  18.324   5.001
45795W        W49756   8.261  21.308   4.838
45796W        W49757   8.760  19.049   6.063
45797W        W49758   8.460  18.418   5.532
45798W        W49759   7.523  21.240   4.080
45799W        W49760   9.339  20.604   4.798
45800W        W49761   8.214  21.399   6.677
45801W        W49762   7.691  20.222   4.373
45802W        W49763   7.576  18.765   5.372
45803W        W49764   9.124  20.730   5.429
45804W        W49765   7.376  18.584   4.449
45805W        W49766  10.040  19.790   6.376
45806W        W49767   9.917  19.176   3.948
45807W        W49768  10.434  20.848   5.596
45808W        W49769   9.095  21.332   5.427
45809W        W49770   8.507  21.436   4.338
45810W        W49771   9.789  18.339   3.768
45811W        W49772   7.589  21.599   5.509
45812W        W49773   9.786  19.357   7.144
45813W        W49774   7.769  18.887   7.143
45814W        W49775   7.500  19.487   4.476
45815W        W49776   8.191  19.476   4.201
45816W        W49777   9.954  19.803   7.018
45817W        W49778   8.297  20.084   5.727
45818W        W49779   9.771  18.370   4.847
45819W        W49780   8.902  21.801   5.350
45820W        W49781  10.116  21.263   6.287
45821W        W49782   9.700  21.412   5.398
45822W        W49783   9.719  20.392   4.992
45823W        W49784   9.181  18.617   4.063
45824W        W49785  10.862  18.245   4.785
45825W        W49786   8.550  19.880   3.948
45826W        W49787  10.716  19.217   4.938
45827W        W49788   9.408  20.387   3.815
45828W        W49789  10.344  20.587   6.563
45829W        W49790   9.998  21.288   4.030
45830W        W49791   8.613  18.963   6.936
45831W        W49792   8.433  19.547   6.177
45832W        W49793  10.525  21.042   6.454
45833W        W49794   9.625  18.992   6.831
45834W        W49795   7.469  19.463   6.608
45835W        W49796   9.229  19.940   6.334
45836W        W49797   7.586  20.698   4.991
45837W        W49798   7.733  19.995   5.881
45838W        W49799  10.050  20.281   6.231
45839W        W49800   9.822  21.661   7.042
45840W        W49801   9.718  19.400   6.595
45841W        W49802   9.995  21.454   5.000
45842W        W49803   8.997  21.174   6.323
45843W        W49804   8.482  21.529   5.592
45844W        W49805  10.287  20.700   6.011
45845W        W49806   9.337  20.772   7.148
45846W        W49807   7.942  20.725   5.487
45847W        W49808  10.288  20.484   5.132
45848W        W49809   9.929  21.550   5.883
45849W        W49810   7.907  21.279   5.753
45850W        W49811   8.928  19.331   6.963
45851W        W49812   9.379  21.497   4.474
45852W        W49813   8.687  20.752   7.112
45853W        W49814   8.813  20.990   4.489
45854W        W49815   8.034  19.730   3.748
45855W        W49816   7.373  21.816  10.648
45856W        W49817   7.749  20.709  10.171
45857W        W49818  10.454  20.439   7.941
45858W        W49819  10.584  21.524   9.968
45859W        W49820   8.502  21.515   7.494
45860W        W49821   8.585  19.667   8.477
45861W        W49822   8.100  19.515   8.641
45862W        W49823   9.091  20.330   8.075
45863W        W49824   8.766  21.422  10.430
45864W        W49825   7.415  18.983  10.393
45865W        W49826   8.177  18.263  10.195
45866W        W49827   9.871  18.651   9.082
45867W        W49828   9.520  19.522   7.652
45868W        W49829  10.090  18.956  10.743
45869W        W49830   7.456  18.748   9.868
45870W        W49831   7.555  21.367  10.889
45871W        W49832   9.077  20.757   7.621
45872W        W49833   7.509  19.540   9.314
45873W        W49834   8.402  19.431  10.551
45874W        W49835  10.861  19.290   9.050
45875W        W49836  10.625  20.333   9.909
45876W        W49837   8.933  19.666   8.936
45877W        W49838   9.479  21.005   9.305
45878W        W49839   7.979  20.439   9.537
45879W        W49840   7.338  19.967   9.108
45880W        W49841   8.374  19.939  10.300
45881W        W49842  10.645  19.722  10.554
45882W        W49843   8.261  21.166   8.999
45883W        W49844   9.382  20.855  10.133
45884W        W49845   8.602  19.495   9.358
45885W        W49846   8.894  20.279   9.001
45886W        W49847   9.891  21.052  10.849
45887W        W49848   8.970  20.372  10.859
45888W        W49849   8.951  20.088  10.337
45889W        W49850   7.360  19.479  10.859
45890W        W49851  10.192  21.014  10.458
45891W        W49852   7.773  18.596   8.456
45892W        W49853   8.300  20.854   9.455
45893W        W49854  10.763  20.637   8.745
45894W        W49855  10.176  19.037   9.312
45895W        W49856  10.461  18.990   7.407
45896W        W49857  10.926  19.791   9.713
45897W        W49858   8.893  21.498   9.466
45898W        W49859  10.667  20.964   7.904
45899W        W49860   7.796  21.750   7.658
45900W        W49861   8.189  21.796   8.334
45901W        W49862   7.986  18.550   9.760
45902W        W49863  10.609  19.568  10.035
45903W        W49864  10.014  19.990   8.494
45904W        W49865   9.980  19.678   7.521
45905W        W49866   9.188  20.822   9.661
45906W        W49867   8.994  19.152   8.860
45907W        W49868   9.594  21.239   9.854
45908W        W49869  10.465  20.030   8.276
45909W        W49870   9.367  18.688   8.292
45910W        W49871   8.024  21.382   7.975
45911W        W49872   7.395  18.881   8.574
45912W        W49873  10.181  19.488   9.048
45913W        W49874   7.639  21.105   8.963
45914W        W49875   8.980  21.455   7.833
45915W        W49876  10.372  19.481   7.297
45916W        W49877   7.395  21.239   9.461
45917W        W49878   8.186  20.811   9.941
45918W        W49879   8.559  20.171   8.560
45919W        W49880   8.581  18.576   9.653
45920W        W49881  10.810  18.338   8.950
45921W        W49882   8.029  20.210   7.418
45922W        W49883   7.684  19.243   7.597
45923W        W49884   7.746  21.199   8.391
45924W        W49885   8.877  20.682   8.639
45925W        W49886  10.209  21.541  10.353
45926W        W49887   9.135  19.183   8.037
45927W        W49888  10.518  21.581   8.809
45928W        W49889  10.195  19.434  10.407
45929W        W49890  10.908  21.090   8.541
45930W        W49891   9.535  20.382  10.025
45931W        W49892   7.301  19.933   8.231
45932W        W49893   8.412  20.348   9.804
45933W        W49894   9.616  19.612   8.182
45934W        W49895   9.493  20.102   8.286
45935W        W49896   7.836  19.522   9.760
45936W        W49897   7.821  19.398  10.682
45937W        W49898   7.711  18.315   8.841
45938W        W49899   9.479  18.662   9.402
45939W        W49900   9.127  18.847  10.565
45940W        W49901   9.482  18.996   7.743
45941W        W49902  10.665  21.389  10.497
45942W        W49903   9.632  18.470  10.536
45943W        W49904  10.651  20.771  10.658
45944W        W49905  10.081  18.938  10.254
45945W        W49906   9.881  18.876   8.524
45946W        W49907  10.274  20.010  10.928
45947W        W49908   8.014  21.586   8.914
45948W        W49909   8.672  19.303   7.900
45949W        W49910   8.241  18.587  10.564
45950W        W49911  10.293  19.071   8.245
45951W        W49912  10.660  19.553   8.190
45952W        W49913   8.403  21.770  10.661
45953W        W49914   8.329  18.306   7.896
45954W        W49915  10.650  18.840   8.931
45955W        W49916  10.800  21.089   7.376
45956W        W49917   7.707  20.292   9.078
45957W        W49918   9.624  18.879   7.308
45958W        W49919  10.758  21.211   9.028
45959W        W49920  10.797  18.405   9.778
45960W        W49921   9.242  19.617  10.332
45961W        W49922   9.335  20.956   8.035
45962W        W49923   9.735  20.250  10.775
45963W        W49924   9.409  18.227   9.084
45964W        W49925   8.021  19.130   9.147
45965W        W49926   7.575  20.330   9.921
45966W        W49927   9.434  21.523   8.627
45967W        W49928  10.628  19.120   9.499
45968W        W49929   9.265  21.467  10.266
45969W        W49930  10.608  20.526   7.471
45970W        W49931   9.043  20.009   8.532
45971W        W49932  10.895  18.520  10.273
45972W        W49933   9.044  20.355   9.867
45973W        W49934   9.261  19.241   9.312
45974W        W49935  10.113  19.539   8.150
45975W        W49936  10.400  19.272   7.792
45976W        W49937  10.209  21.312   8.181
45977W        W49938  10.043  20.915   8.977
45978W        W49939   9.939  19.994   7.955
45979W        W49940   9.372  20.204   8.941
45980W        W49941  10.253  19.992   9.008
45981W        W49942   7.628  19.007   9.432
45982W        W49943  10.406  20.059  10.259
45983W        W49944  10.757  21.677   9.405
45984W        W49945   8.687  21.121   8.807
45985W        W49946   9.694  21.654  10.131
45986W        W49947   9.688  18.984   9.895
45987W        W49948   8.895  21.692   9.956
45988W        W49949  10.592  18.646   8.422
45989W        W49950  10.383  19.965   9.723
45990W        W49951   7.366  19.286   9.761
45991W        W49952  10.226  19.081   8.779
45992W        W49953  10.637  19.232  10.556
45993W        W49954   9.522  20.931   8.774
45994W        W49955   8.778  21.522   8.387
45995W        W49956   7.893  18.702   7.645
45996W        W49957   8.997  18.356   9.455
45997W        W49958   8.025  21.476   7.303
45998W        W49959   8.399  19.942   8.054
45999W        W49960   9.053  20.571  10.367
46000W        W49961   8.883  18.929   8.357
46001W        W49962  10.239  18.526   8.785
46002W        W49963   9.959  21.808   9.113
46003W        W49964   9.371  21.456   9.453
46004W        W49965   8.767  20.493   9.414
46005W        W49966  10.537  21.216   9.540
46006W        W49967   8.231  18.719   8.309
46007W        W49968   8.753  21.016   9.269
46008W        W49969   8.236  18.947   7.334
46009W        W49970   9.037  19.556   9.728
46010W        W49971   9.885  18.422   9.598
46011W        W49972   7.305  20.265   9.483
46012W        W49973   9.009  20.083   7.641
46013W        W49974   8.277  18.398   7.411
46014W        W49975   9.015  19.479   8.462
46015W        W49976   9.985  18.455  10.161
46016W        W49977   8.573  20.467  10.270
46017W        W49978   9.377  20.249  10.487
46018W        W49979   9.994  20.279  10.380
46019W        W49980   9.278  18.419  10.885
46020W        W49981   8.500  19.035   9.278
46021W        W49982   7.926  18.991   8.676
46022W        W49983   7.712  21.703   8.352
46023W        W49984   9.044  21.033  10.477
46024W        W49985   8.079  20.518   7.836
46025W        W49986   9.759  19.903   9.057
46026W        W49987  10.039  19.702   9.456
46027W        W49988   9.244  20.376   9.390
46028W        W49989   9.714  20.750   7.522
46029W        W49990   9.386  18.771   8.850
46030W        W49991  10.865  19.049   8.118
46031W        W49992   7.359  21.638  10.149
46032W        W49993   7.776  20.864   9.681
46033W        W49994   7.343  21.710   7.913
46034W        W49995   9.242  18.980   9.719
46035W        W49996   8.605  21.003   7.568
46036W        W49997  10.510  21.385   7.754
46037W        W49998   9.485  20.038   7.768
46038W        W49999   8.328  19.229   8.285
46039W        W50000   9.160  19.139   7.337
46040W        W50001   9.744  20.704  10.515
46041W        W50002  10.097  18.610   8.132
46042W        W50003   7.427  18.458   7.580
46043W        W50004   8.713  20.777   9.870
46044W        W50005   8.512  20.693   8.962
46045W        W50006   8.254  20.645   7.360
46046W        W50007   7.495  20.886   8.128
46047W        W50008   7.999  19.956  10.570
46048W        W50009   8.703  18.516  10.756
46049W        W50010   9.412  18.658  10.112
46050W        W50011   8.607  18.426   8.393
46051W        W50012   9.666  18.503   7.898
46052W        W50013   7.611  18.435   9.475
46053W        W50014   7.659  19.398   8.845
46054W        W50015  10.348  18.506   9.251
46055W        W50016   7.770  19.004   8.065
46056W        W50017  10.341  18.692   9.681
46057W        W50018  10.737  19.895   7.366
46058W        W50019   8.029  18.653   9.185
46059W        W50020   9.143  19.225  10.125
46060W        W50021   7.291  18.915   7.603
46061W        W50022   8.077  20.304  10.164
46062W        W50023   9.435  19.702   9.343
46063W        W50024   9.302  21.781   7.639
46064W        W50025   7.448  20.288   7.336
46065W        W50026   8.183  20.699  10.462
46066W        W50027   7.704  19.866  10.093
46067W        W50028   8.695  19.971   9.887
46068W        W50029  10.463  18.330  10.149
46069W        W50030  10.861  19.940  10.140
46070W        W50031  10.849  20.140   7.826
46071W        W50032   9.712  20.472   7.925
46072W        W50033  10.186  21.772   7.620
46073W        W50034   9.363  19.762  10.762
46074W        W50035   7.693  20.729  10.802
46075W        W50036  10.899  18.651  10.754
46076W        W50037  10.617  19.579   9.375
46077W        W50038   8.925  21.709  10.852
46078W        W50039   8.780  18.338   7.579
46079W        W50040  10.319  20.937   7.522
46080W        W50041   8.088  19.030  10.408
46081W        W50042   8.522  21.024  10.270
46082W        W50043  10.648  19.015  10.068
46083W        W50044   9.859  21.674   8.036
46084W        W50045  10.098  20.293   9.403
46085W        W50046   8.348  18.709  10.070
46086W        W50047   8.817  19.778  10.827
46087W        W50048   8.320  20.957   8.021
46088W        W50049  10.075  20.455   8.285
46089W        W50050   7.843  19.081  10.009
46090W        W50051   9.172  21.143   8.473
46091W        W50052  10.922  19.703   8.654
46092W        W50053   9.144  18.336  10.373
46093W        W50054   9.924  21.041   9.452
46094W        W50055  10.227  21.385   9.160
46095W        W50056   9.446  21.187   7.588
46096W        W50057   7.456  21.079  10.430
46097W        W50058   8.199  19.071   9.668
46098W        W50059   8.169  18.419   8.778
46099W        W50060   9.790  19.261   9.470
46100W        W50061   8.588  20.432   7.670
46101W        W50062  10.586  20.374   9.169
46102W        W50063   7.913  21.132  10.592
46103W        W50064  10.300  21.814   8.389
46104W        W50065   8.399  18.834   8.834
46105W        W50066   8.168  20.327   8.924
46106W        W50067   8.481  21.738   9.674
46107W        W50068  10.548  21.834  10.706
46108W        W50069   9.707  20.022   9.639
46109W        W50070   7.556  19.820   7.554
46110W        W50071  10.690  21.478   8.251
46111W        W50072  10.527  18.802   7.870
46112W        W50073   8.666  18.321  10.273
46113W        W50074  10.372  21.123   8.731
46114W        W50075  10.401  19.679   8.636
46115W        W50076   8.518  19.352   8.852
46116W        W50077   8.763  19.614  10.176
46117W        W50078   9.874  20.767  10.039
46118W        W50079   8.524  19.221  10.151
46119W        W50080   8.503  21.687   8.767
46120W        W50081   7.820  21.646  10.401
46121W        W50082   7.932  21.007   7.531
46122W        W50083  10.449  20.765   8.341
46123W        W50084   8.053  19.557  10.227
46124W        W50085  10.826  19.487   7.708
46125W        W50086   8.571  20.544   8.179
46126W        W50087   9.670  19.926  10.260
46127W        W50088   9.561  19.554   9.804
46128W        W50089   8.121  19.926   9.833
46129W        W50090  10.331  21.814   9.662
46130W        W50091  10.122  18.448  10.656
46131W        W50092   7.786  18.598  10.243
46132W        W50093   8.125  19.621   9.296
46133W        W50094   8.494  19.435   7.418
46134W        W50095   7.297  21.194   9.963
46135W        W50096   8.882  19.903   9.406
46136W        W50097   8.705  18.928   7.511
46137W        W50098   7.840  19.744   8.292
46138W        W50099   7.611  21.596   9.729
46139W        W50100  10.406  19.822   7.837
46140W        W50101  10.501  18.738  10.523
46141W        W50102   9.937  20.947   8.486
46142W        W50103   7.535  19.871  10.663
46143W        W50104  10.501  18.335   7.959
46144W        W50105  10.021  20.810   7.970
46145W        W50106   8.923  19.868   8.055
46146W        W50107  10.110  18.672   7.578
46147W        W50108  10.175  19.279   9.764
46148W        W50109   7.884  19.872   8.971
46149W        W50110   8.178  20.811   8.620
46150W        W50111   9.941  19.431   8.585
46151W        W50112   8.964  18.810   9.281
46152W        W50113  10.926  20.721   9.792
46153W        W50114  10.844  18.708   9.353
46154W        W50115   7.383  21.538   8.729
46155W        W50116   7.892  20.725   8.265
46156W        W50117   7.807  18.342  10.818
46157W        W50118   8.926  21.195  10.920
46158W        W50119  10.681  20.163   8.710
46159W        W50120  10.035  20.340   7.590
46160W        W50121   9.330  21.861   9.802
46161W        W50122  10.187  20.583  10.839
46162W        W50123   9.002  18.293   8.119
46163W        W50124   9.715  19.162   8.978
46164W        W50125   7.401  20.749   9.310
46165W        W50126   8.654  18.711   7.951
46166W        W50127   8.458  20.195  10.800
46167W        W50128   9.452  19.176   8.514
46168W        W50129   9.657  20.586   9.636
46169W        W50130   7.811  21.191  10.071
46170W        W50131   8.402  21.174  10.794
46171W        W50132   8.253  18.971   7.808
46172W        W50133   9.770  19.113   8.133
46173W        W50134   9.728  21.221  10.370
46174W        W50135   8.413  19.813   8.969
46175W        W50136   8.068  21.511   9.834
46176W        W50137  10.813  21.628   7.435
46177W        W50138   7.676  20.300  10.431
46178W        W50139   9.671  20.562   9.119
46179W        W50140   8.107  20.211   8.361
46180W        W50141   8.478  21.218   9.756
46181W        W50142   8.856  18.637   8.797
46182W        W50143   7.467  20.621   7.727
46183W        W50144   8.986  19.572   7.597
46184W        W50145   7.632  20.121   8.616
46185W        W50146   8.922  18.763  10.080
46186W        W50147  10.594  18.472   7.507
46187W        W50148  10.687  20.218  10.606
46188W        W50149   9.341  21.475  10.758
46189W        W50150  10.899  20.569  10.280
46190W        W50151  10.307  21.367  10.891
46191W        W50152   8.046  21.823   9.369
46192W        W50153  10.905  20.445   8.243
46193W        W50154   9.435  19.712   8.756
46194W        W50155   9.202  18.324   8.646
46195W        W50156   8.261  21.308   8.483
46196W        W50157   8.760  19.049   9.708
46197W        W50158   8.460  18.418   9.177
46198W        W50159   7.523  21.240   7.725
46199W        W50160   9.339  20.604   8.443
46200W        W50161   8.214  21.399  10.322
46201W        W50162   7.691  20.222   8.018
46202W        W50163   7.576  18.765   9.017
46203W        W50164   9.124  20.730   9.074
46204W        W50165   7.376  18.584   8.094
46205W        W50166  10.040  19.790  10.021
46206W        W50167   9.917  19.176   7.593
46207W        W50168  10.434  20.848   9.241
46208W        W50169   9.095  21.332   9.072
46209W        W50170   8.507  21.436   7.983
46210W        W50171   9.789  18.339   7.413
46211W        W50172   7.589  21.599   9.154
46212W        W50173   9.786  19.357  10.789
46213W        W50174   7.769  18.887  10.788
46214W        W50175   7.500  19.487   8.121
46215W        W50176   8.191  19.476   7.846
46216W        W50177   9.954  19.803  10.663
46217W        W50178   8.297  20.084   9.372
46218W        W50179   9.771  18.370   8.492
46219W        W50180   8.902  21.801   8.995
46220W        W50181  10.116  21.263   9.932
46221W        W50182   9.700  21.412   9.043
46222W        W50183   9.719  20.392   8.637
46223W        W50184   9.181  18.617   7.708
46224W        W50185  10.862  18.245   8.430
46225W        W50186   8.550  19.880   7.593
46226W        W50187  10.716  19.217   8.583
46227W        W50188   9.408  20.387   7.460
46228W        W50189  10.344  20.587  10.208
46229W        W50190   9.998  21.288   7.675
46230W        W50191   8.613  18.963  10.581
46231W        W50192   8.433  19.547   9.822
46232W        W50193  10.525  21.042  10.099
46233W        W50194   9.625  18.992  10.476
46234W        W50195   7.469  19.463  10.253
46235W        W50196   9.229  19.940   9.979
46236W        W50197   7.586  20.698   8.636
46237W        W50198   7.733  19.995   9.526
46238W        W50199  10.050  20.281   9.876
46239W        W50200   9.822  21.661  10.687
46240W        W50201   9.718  19.400  10.240
46241W        W50202   9.995  21.454   8.645
46242W        W50203   8.997  21.174   9.968
46243W        W50204   8.482  21.529   9.237
46244W        W50205  10.287  20.700   9.656
46245W        W50206   9.337  20.772  10.793
46246W        W50207   7.942  20.725   9.132
46247W        W50208  10.288  20.484   8.777
46248W        W50209   9.929  21.550   9.528
46249W        W50210   7.907  21.279   9.398
46250W        W50211   8.928  19.331  10.608
46251W        W50212   9.379  21.497   8.119
46252W        W50213   8.687  20.752  10.757
46253W        W50214   8.813  20.990   8.134
46254W        W50215   8.034  19.730   7.393
46255W        W50216   7.373  21.816  14.292
46256W        W50217   7.749  20.709  13.815
46257W        W50218  10.454  20.439  11.585
46258W        W50219  10.584  21.524  13.612
46259W        W50220   8.502  21.515  11.138
46260W        W50221   8.585  19.667  12.121
46261W        W50222   8.100  19.515  12.285
46262W        W50223   9.091  20.330  11.719
46263W        W50224   8.766  21.422  14.074
46264W        W50225   7.415  18.983  14.037
46265W        W50226   8.177  18.263  13.839
46266W        W50227   9.871  18.651  12.726
46267W        W50228   9.520  19.522  11.296
46268W        W50229  10.090  18.956  14.387
46269W        W50230   7.456  18.748  13.512
46270W        W50231   7.555  21.367  14.533
46271W        W50232   9.077  20.757  11.265
46272W        W50233   7.509  19.540  12.958
46273W        W50234   8.402  19.431  14.195
46274W        W50235  10.861  19.290  12.694
46275W        W50236  10.625  20.333  13.553
46276W        W50237   8.933  19.666  12.580
46277W        W50238   9.479  21.005  12.949
46278W        W50239   7.979  20.439  13.181
46279W        W50240   7.338  19.967  12.752
46280W        W50241   8.374  19.939  13.944
46281W        W50242  10.645  19.722  14.198
46282W        W50243   8.261  21.166  12.643
46283W        W50244   9.382  20.855  13.777
46284W        W50245   8.602  19.495  13.002
46285W        W50246   8.894  20.279  12.645
46286W        W50247   9.891  21.052  14.493
46287W        W50248   8.970  20.372  14.503
46288W        W50249   8.951  20.088  13.981
46289W        W50250   7.360  19.479  14.503
46290W        W50251  10.192  21.014  14.102
46291W        W50252   7.773  18.596  12.100
46292W        W50253   8.300  20.854  13.099
46293W        W50254  10.763  20.637  12.389
46294W        W50255  10.176  19.037  12.956
46295W        W50256  10.461  18.990  11.051
46296W        W50257  10.926  19.791  13.357
46297W        W50258   8.893  21.498  13.110
46298W        W50259  10.667  20.964  11.548
46299W        W50260   7.796  21.750  11.302
46300W        W50261   8.189  21.796  11.978
46301W        W50262   7.986  18.550  13.404
46302W        W50263  10.609  19.568  13.679
46303W        W50264  10.014  19.990  12.138
46304W        W50265   9.980  19.678  11.165
46305W        W50266   9.188  20.822  13.305
46306W        W50267   8.994  19.152  12.504
46307W        W50268   9.594  21.239  13.498
46308W        W50269  10.465  20.030  11.920
46309W        W50270   9.367  18.688  11.936
46310W        W50271   8.024  21.382  11.619
46311W        W50272   7.395  18.881  12.218
46312W        W50273  10.181  19.488  12.692
46313W        W50274   7.639  21.105  12.607
46314W        W50275   8.980  21.455  11.477
46315W        W50276  10.372  19.481  10.941
46316W        W50277   7.395  21.239  13.105
46317W        W50278   8.186  20.811  13.585
46318W        W50279   8.559  20.171  12.204
46319W        W50280   8.581  18.576  13.297
46320W        W50281  10.810  18.338  12.594
46321W        W50282   8.029  20.210  11.062
46322W        W50283   7.684  19.243  11.241
46323W        W50284   7.746  21.199  12.035
46324W        W50285   8.877  20.682  12.283
46325W        W50286  10.209  21.541  13.997
46326W        W50287   9.135  19.183  11.681
46327W        W50288  10.518  21.581  12.453
46328W        W50289  10.195  19.434  14.051
46329W        W50290  10.908  21.090  12.185
46330W        W50291   9.535  20.382  13.669
46331W        W50292   7.301  19.933  11.875
46332W        W50293   8.412  20.348  13.448
46333W        W50294   9.616  19.612  11.826
46334W        W50295   9.493  20.102  11.930
46335W        W50296   7.836  19.522  13.404
46336W        W50297   7.821  19.398  14.326
46337W        W50298   7.711  18.315  12.485
46338W        W50299   9.479  18.662  13.046
46339W        W50300   9.127  18.847  14.209
46340W        W50301   9.482  18.996  11.387
46341W        W50302  10.665  21.389  14.141
46342W        W50303   9.632  18.470  14.180
46343W        W50304  10.651  20.771  14.302
46344W        W50305  10.081  18.938  13.898
46345W        W50306   9.881  18.876  12.168
46346W        W50307  10.274  20.010  14.572
46347W        W50308   8.014  21.586  12.558
46348W        W50309   8.672  19.303  11.544
46349W        W50310   8.241  18.587  14.208
46350W        W50311  10.293  19.071  11.889
46351W        W50312  10.660  19.553  11.834
46352W        W50313   8.403  21.770  14.305
46353W        W50314   8.329  18.306  11.540
46354W        W50315  10.650  18.840  12.575
46355W        W50316  10.800  21.089  11.020
46356W        W50317   7.707  20.292  12.722
46357W        W50318   9.624  18.879  10.952
46358W        W50319  10.758  21.211  12.672
46359W        W50320  10.797  18.405  13.422
46360W        W50321   9.242  19.617  13.976
46361W        W50322   9.335  20.956  11.679
46362W        W50323   9.735  20.250  14.419
46363W        W50324   9.409  18.227  12.728
46364W        W50325   8.021  19.130  12.791
46365W        W50326   7.575  20.330  13.565
46366W        W50327   9.434  21.523  12.271
46367W        W50328  10.628  19.120  13.143
46368W        W50329   9.265  21.467  13.910
46369W        W50330  10.608  20.526  11.115
46370W        W50331   9.043  20.009  12.176
46371W        W50332  10.895  18.520  13.917
46372W        W50333   9.044  20.355  13.511
46373W        W50334   9.261  19.241  12.956
46374W        W50335  10.113  19.539  11.794
46375W        W50336  10.400  19.272  11.436
46376W        W50337  10.209  21.312  11.825
46377W        W50338  10.043  20.915  12.621
46378W        W50339   9.939  19.994  11.599
46379W        W50340   9.372  20.204  12.585
46380W        W50341  10.253  19.992  12.652
46381W        W50342   7.628  19.007  13.076
46382W        W50343  10.406  20.059  13.903
46383W        W50344  10.757  21.677  13.049
46384W        W50345   8.687  21.121  12.451
46385W        W50346   9.694  21.654  13.775
46386W        W50347   9.688  18.984  13.539
46387W        W50348   8.895  21.692  13.600
46388W        W50349  10.592  18.646  12.066
46389W        W50350  10.383  19.965  13.367
46390W        W50351   7.366  19.286  13.405
46391W        W50352  10.226  19.081  12.423
46392W        W50353  10.637  19.232  14.200
46393W        W50354   9.522  20.931  12.418
46394W        W50355   8.778  21.522  12.031
46395W        W50356   7.893  18.702  11.289
46396W        W50357   8.997  18.356  13.099
46397W        W50358   8.025  21.476  10.947
46398W        W50359   8.399  19.942  11.698
46399W        W50360   9.053  20.571  14.011
46400W        W50361   8.883  18.929  12.001
46401W        W50362  10.239  18.526  12.429
46402W        W50363   9.959  21.808  12.757
46403W        W50364   9.371  21.456  13.097
46404W        W50365  10.537  21.216  13.184
46405W        W50366   8.231  18.719  11.953
46406W        W50367   8.753  21.016  12.913
46407W        W50368   8.236  18.947  10.978
46408W        W50369   9.037  19.556  13.372
46409W        W50370   9.885  18.422  13.242
46410W        W50371   7.305  20.265  13.127
46411W        W50372   9.009  20.083  11.285
46412W        W50373   8.277  18.398  11.055
46413W        W50374   9.015  19.479  12.106
46414W        W50375   9.985  18.455  13.805
46415W        W50376   8.573  20.467  13.914
46416W        W50377   9.377  20.249  14.131
46417W        W50378   9.994  20.279  14.024
46418W        W50379   9.278  18.419  14.529
46419W        W50380   8.500  19.035  12.922
46420W        W50381   7.926  18.991  12.320
46421W        W50382   7.712  21.703  11.996
46422W        W50383   9.044  21.033  14.121
46423W        W50384   8.079  20.518  11.480
46424W        W50385   9.759  19.903  12.701
46425W        W50386  10.039  19.702  13.100
46426W        W50387   9.244  20.376  13.034
46427W        W50388   9.714  20.750  11.166
46428W        W50389   9.386  18.771  12.494
46429W        W50390  10.865  19.049  11.762
46430W        W50391   7.359  21.638  13.793
46431W        W50392   7.776  20.864  13.325
46432W        W50393   7.343  21.710  11.557
46433W        W50394   9.242  18.980  13.363
46434W        W50395   8.605  21.003  11.212
46435W        W50396  10.510  21.385  11.398
46436W        W50397   9.485  20.038  11.412
46437W        W50398   8.328  19.229  11.929
46438W        W50399   9.160  19.139  10.981
46439W        W50400   9.744  20.704  14.159
46440W        W50401  10.097  18.610  11.776
46441W        W50402   7.427  18.458  11.224
46442W        W50403   8.713  20.777  13.514
46443W        W50404   8.512  20.693  12.606
46444W        W50405   8.254  20.645  11.004
46445W        W50406   7.495  20.886  11.772
46446W        W50407   7.999  19.956  14.214
46447W        W50408   8.703  18.516  14.400
46448W        W50409   9.412  18.658  13.756
46449W        W50410   8.607  18.426  12.037
46450W        W50411   9.666  18.503  11.542
46451W        W50412   7.611  18.435  13.119
46452W        W50413   7.659  19.398  12.489
46453W        W50414  10.348  18.506  12.895
46454W        W50415   7.770  19.004  11.709
46455W        W50416  10.341  18.692  13.325
46456W        W50417  10.737  19.895  11.010
46457W        W50418   8.029  18.653  12.829
46458W        W50419   9.143  19.225  13.769
46459W        W50420   7.291  18.915  11.247
46460W        W50421   8.077  20.304  13.808
46461W        W50422   9.435  19.702  12.987
46462W        W50423   9.302  21.781  11.283
46463W        W50424   7.448  20.288  10.980
46464W        W50425   8.183  20.699  14.106
46465W        W50426   7.704  19.866  13.737
46466W        W50427   8.695  19.971  13.531
46467W        W50428  10.463  18.330  13.793
46468W        W50429  10.861  19.940  13.784
46469W        W50430  10.849  20.140  11.470
46470W        W50431   9.712  20.472  11.569
46471W        W50432  10.186  21.772  11.264
46472W        W50433   9.363  19.762  14.406
46473W        W50434   7.693  20.729  14.446
46474W        W50435  10.899  18.651  14.398
46475W        W50436  10.617  19.579  13.019
46476W        W50437   8.925  21.709  14.496
46477W        W50438   8.780  18.338  11.223
46478W        W50439  10.319  20.937  11.166
46479W        W50440   8.088  19.030  14.052
46480W        W50441   8.522  21.024  13.914
46481W        W50442  10.648  19.015  13.712
46482W        W50443   9.859  21.674  11.680
46483W        W50444  10.098  20.293  13.047
46484W        W50445   8.348  18.709  13.714
46485W        W50446   8.817  19.778  14.471
46486W        W50447   8.320  20.957  11.665
46487W        W50448  10.075  20.455  11.929
46488W        W50449   7.843  19.081  13.653
46489W        W50450   9.172  21.143  12.117
46490W        W50451  10.922  19.703  12.298
46491W        W50452   9.144  18.336  14.017
46492W        W50453   9.924  21.041  13.096
46493W        W50454  10.227  21.385  12.804
46494W        W50455   9.446  21.187  11.232
46495W        W50456   7.456  21.079  14.074
46496W        W50457   8.199  19.071  13.312
46497W        W50458   8.169  18.419  12.422
46498W        W50459   9.790  19.261  13.114
46499W        W50460   8.588  20.432  11.314
46500W        W50461  10.586  20.374  12.813
46501W        W50462   7.913  21.132  14.236
46502W        W50463  10.300  21.814  12.033
46503W        W50464   8.399  18.834  12.478
46504W        W50465   8.168  20.327  12.568
46505W        W50466   8.481  21.738  13.318
46506W        W50467  10.548  21.834  14.350
46507W        W50468   9.707  20.022  13.283
46508W        W50469   7.556  19.820  11.198
46509W        W50470  10.690  21.478  11.895
46510W        W50471  10.527  18.802  11.514
46511W        W50472   8.666  18.321  13.917
46512W        W50473  10.372  21.123  12.375
46513W        W50474  10.401  19.679  12.280
46514W        W50475   8.518  19.352  12.496
46515W        W50476   8.763  19.614  13.820
46516W        W50477   9.874  20.767  13.683
46517W        W50478   8.524  19.221  13.795
46518W        W50479   8.503  21.687  12.411
46519W        W50480   7.820  21.646  14.045
46520W        W50481   7.932  21.007  11.175
46521W        W50482  10.449  20.765  11.985
46522W        W50483   8.053  19.557  13.871
46523W        W50484  10.826  19.487  11.352
46524W        W50485   8.571  20.544  11.823
46525W        W50486   9.670  19.926  13.904
46526W        W50487   9.561  19.554  13.448
46527W        W50488   8.121  19.926  13.477
46528W        W50489  10.331  21.814  13.306
46529W        W50490  10.122  18.448  14.300
46530W        W50491   7.786  18.598  13.887
46531W        W50492   8.125  19.621  12.940
46532W        W50493   8.494  19.435  11.062
46533W        W50494   7.297  21.194  13.607
46534W        W50495   8.882  19.903  13.050
46535W        W50496   8.705  18.928  11.155
46536W        W50497   7.840  19.744  11.936
46537W        W50498   7.611  21.596  13.373
46538W        W50499  10.406  19.822  11.481
46539W        W50500  10.501  18.738  14.167
46540W        W50501   9.937  20.947  12.130
46541W        W50502   7.535  19.871  14.307
46542W        W50503  10.501  18.335  11.603
46543W        W50504  10.021  20.810  11.614
46544W        W50505   8.923  19.868  11.699
46545W        W50506  10.110  18.672  11.222
46546W        W50507  10.175  19.279  13.408
46547W        W50508   7.884  19.872  12.615
46548W        W50509   8.178  20.811  12.264
46549W        W50510   9.941  19.431  12.229
46550W        W50511   8.964  18.810  12.925
46551W        W50512  10.926  20.721  13.436
46552W        W50513  10.844  18.708  12.997
46553W        W50514   7.383  21.538  12.373
46554W        W50515   7.892  20.725  11.909
46555W        W50516   7.807  18.342  14.462
46556W        W50517   8.926  21.195  14.564
46557W        W50518  10.681  20.163  12.354
46558W        W50519  10.035  20.340  11.234
46559W        W50520   9.330  21.861  13.446
46560W        W50521  10.187  20.583  14.483
46561W        W50522   9.002  18.293  11.763
46562W        W50523   9.715  19.162  12.622
46563W        W50524   7.401  20.749  12.954
46564W        W50525   8.654  18.711  11.595
46565W        W50526   8.458  20.195  14.444
46566W        W50527   9.452  19.176  12.158
46567W        W50528   9.657  20.586  13.280
46568W        W50529   7.811  21.191  13.715
46569W        W50530   8.402  21.174  14.438
46570W        W50531   8.253  18.971  11.452
46571W        W50532   9.770  19.113  11.777
46572W        W50533   9.728  21.221  14.014
46573W        W50534   8.413  19.813  12.613
46574W        W50535   8.068  21.511  13.478
46575W        W50536  10.813  21.628  11.079
46576W        W50537   7.676  20.300  14.075
46577W        W50538   9.671  20.562  12.763
46578W        W50539   8.107  20.211  12.005
46579W        W50540   8.478  21.218  13.400
46580W        W50541   8.856  18.637  12.441
46581W        W50542   7.467  20.621  11.371
46582W        W50543   8.986  19.572  11.241
46583W        W50544   7.632  20.121  12.260
46584W        W50545   8.922  18.763  13.724
46585W        W50546  10.594  18.472  11.151
46586W        W50547  10.687  20.218  14.250
46587W        W50548   9.341  21.475  14.402
46588W        W50549  10.899  20.569  13.924
46589W        W50550  10.307  21.367  14.535
46590W        W50551   8.046  21.823  13.013
46591W        W50552  10.905  20.445  11.887
46592W        W50553   9.435  19.712  12.400
46593W        W50554   9.202  18.324  12.290
46594W        W50555   8.261  21.308  12.127
46595W        W50556   8.760  19.049  13.352
46596W        W50557   8.460  18.418  12.821
46597W        W50558   7.523  21.240  11.369
46598W        W50559   9.339  20.604  12.087
46599W        W50560   8.214  21.399  13.966
46600W        W50561   7.691  20.222  11.662
46601W        W50562   7.576  18.765  12.661
46602W        W50563   9.124  20.730  12.718
46603W        W50564   7.376  18.584  11.738
46604W        W50565  10.040  19.790  13.665
46605W        W50566   9.917  19.176  11.237
46606W        W50567  10.434  20.848  12.885
46607W        W50568   9.095  21.332  12.716
46608W        W50569   8.507  21.436  11.627
46609W        W50570   9.789  18.339  11.057
46610W        W50571   7.589  21.599  12.798
46611W        W50572   9.786  19.357  14.433
46612W        W50573   7.769  18.887  14.432
46613W        W50574   7.500  19.487  11.765
46614W        W50575   8.191  19.476  11.490
46615W        W50576   9.954  19.803  14.307
46616W        W50577   9.771  18.370  12.136
46617W        W50578   8.902  21.801  12.639
46618W        W50579  10.116  21.263  13.576
46619W        W50580   9.700  21.412  12.687
46620W        W50581   9.719  20.392  12.281
46621W        W50582   9.181  18.617  11.352
46622W        W50583  10.862  18.245  12.074
46623W        W50584   8.550  19.880  11.237
46624W        W50585  10.716  19.217  12.227
46625W        W50586   9.408  20.387  11.104
46626W        W50587  10.344  20.587  13.852
46627W        W50588   9.998  21.288  11.319
46628W        W50589   8.613  18.963  14.225
46629W        W50590   8.433  19.547  13.466
46630W        W50591  10.525  21.042  13.743
46631W        W50592   9.625  18.992  14.120
46632W        W50593   7.469  19.463  13.897
46633W        W50594   9.229  19.940  13.623
46634W        W50595   7.586  20.698  12.280
46635W        W50596  10.050  20.281  13.520
46636W        W50597   9.822  21.661  14.331
46637W        W50598   9.718  19.400  13.884
46638W        W50599   9.995  21.454  12.289
46639W        W50600   8.997  21.174  13.612
46640W        W50601   8.482  21.529  12.881
46641W        W50602  10.287  20.700  13.300
46642W        W50603   9.337  20.772  14.437
46643W        W50604   7.942  20.725  12.776
46644W        W50605  10.288  20.484  12.421
46645W        W50606   9.929  21.550  13.172
46646W        W50607   7.907  21.279  13.042
46647W        W50608   8.928  19.331  14.252
46648W        W50609   9.379  21.497  11.763
46649W        W50610   8.687  20.752  14.401
46650W        W50611   8.813  20.990  11.778
46651W        W50612   8.034  19.730  11.037
46652W        W50613   7.373  21.816  17.936
46653W        W50614   7.749  20.709  17.459
46654W        W50615  10.454  20.439  15.229
46655W        W50616  10.584  21.524  17.256
46656W        W50617   8.502  21.515  14.782
46657W        W50618   8.585  19.667  15.765
46658W        W50619   8.100  19.515  15.929
46659W        W50620   9.091  20.330  15.363
46660W        W50621   8.766  21.422  17.718
46661W        W50622   7.415  18.983  17.681
46662W        W50623   8.177  18.263  17.483
46663W        W50624   9.871  18.651  16.370
46664W        W50625   9.520  19.522  14.940
46665W        W50626  10.090  18.956  18.031
46666W        W50627   7.456  18.748  17.156
46667W        W50628   7.555  21.367  18.177
46668W        W50629   9.077  20.757  14.909
46669W        W50630   7.509  19.540  16.602
46670W        W50631   8.402  19.431  17.839
46671W        W50632  10.861  19.290  16.338
46672W        W50633  10.625  20.333  17.197
46673W        W50634   8.933  19.666  16.224
46674W        W50635   9.479  21.005  16.593
46675W        W50636   7.979  20.439  16.825
46676W        W50637   7.338  19.967  16.396
46677W        W50638   8.374  19.939  17.588
46678W        W50639  10.645  19.722  17.842
46679W        W50640   8.261  21.166  16.287
46680W        W50641   9.382  20.855  17.421
46681W        W50642   8.602  19.495  16.646
46682W        W50643   8.894  20.279  16.289
46683W        W50644   9.891  21.052  18.137
46684W        W50645   8.970  20.372  18.147
46685W        W50646   8.951  20.088  17.625
46686W        W50647   7.360  19.479  18.147
46687W        W50648  10.192  21.014  17.746
46688W        W50649   7.773  18.596  15.744
46689W        W50650   8.300  20.854  16.743
46690W        W50651  10.763  20.637  16.033
46691W        W50652  10.176  19.037  16.600
46692W        W50653  10.461  18.990  14.695
46693W        W50654  10.926  19.791  17.001
46694W        W50655   8.893  21.498  16.754
46695W        W50656  10.667  20.964  15.192
46696W        W50657   7.796  21.750  14.946
46697W        W50658   8.189  21.796  15.622
46698W        W50659   7.986  18.550  17.048
46699W        W50660  10.609  19.568  17.323
46700W        W50661  10.014  19.990  15.782
46701W        W50662   9.980  19.678  14.809
46702W        W50663   9.188  20.822  16.949
46703W        W50664   8.994  19.152  16.148
46704W        W50665   9.594  21.239  17.142
46705W        W50666  10.465  20.030  15.564
46706W        W50667   9.367  18.688  15.580
46707W        W50668   8.024  21.382  15.263
46708W        W50669   7.395  18.881  15.862
46709W        W50670  10.181  19.488  16.336
46710W        W50671   7.639  21.105  16.251
46711W        W50672   8.980  21.455  15.121
46712W        W50673  10.372  19.481  14.585
46713W        W50674   7.395  21.239  16.749
46714W        W50675   8.186  20.811  17.229
46715W        W50676   8.559  20.171  15.848
46716W        W50677   8.581  18.576  16.941
46717W        W50678  10.810  18.338  16.238
46718W        W50679   8.029  20.210  14.706
46719W        W50680   7.684  19.243  14.885
46720W        W50681   7.746  21.199  15.679
46721W        W50682   8.877  20.682  15.927
46722W        W50683  10.209  21.541  17.641
46723W        W50684   9.135  19.183  15.325
46724W        W50685  10.518  21.581  16.097
46725W        W50686  10.195  19.434  17.695
46726W        W50687  10.908  21.090  15.829
46727W        W50688   9.535  20.382  17.313
46728W        W50689   7.301  19.933  15.519
46729W        W50690   8.412  20.348  17.092
46730W        W50691   9.616  19.612  15.470
46731W        W50692   9.493  20.102  15.574
46732W        W50693   7.836  19.522  17.048
46733W        W50694   7.821  19.398  17.970
46734W        W50695   7.711  18.315  16.129
46735W        W50696   9.479  18.662  16.690
46736W        W50697   9.127  18.847  17.853
46737W        W50698   9.482  18.996  15.031
46738W        W50699  10.665  21.389  17.785
46739W        W50700   9.632  18.470  17.824
46740W        W50701  10.651  20.771  17.946
46741W        W50702  10.081  18.938  17.542
46742W        W50703   9.881  18.876  15.812
46743W        W50704  10.274  20.010  18.216
46744W        W50705   8.014  21.586  16.202
46745W        W50706   8.672  19.303  15.188
46746W        W50707   8.241  18.587  17.852
46747W        W50708  10.293  19.071  15.533
46748W        W50709  10.660  19.553  15.478
46749W        W50710   8.403  21.770  17.949
46750W        W50711   8.329  18.306  15.184
46751W        W50712  10.650  18.840  16.219
46752W        W50713  10.800  21.089  14.664
46753W        W50714   7.707  20.292  16.366
46754W        W50715   9.624  18.879  14.596
46755W        W50716  10.758  21.211  16.316
46756W        W50717  10.797  18.405  17.066
46757W        W50718   9.242  19.617  17.620
46758W        W50719   9.335  20.956  15.323
46759W        W50720   9.735  20.250  18.063
46760W        W50721   9.409  18.227  16.372
46761W        W50722   8.021  19.130  16.435
46762W        W50723   7.575  20.330  17.209
46763W        W50724   9.434  21.523  15.915
46764W        W50725  10.628  19.120  16.787
46765W        W50726   9.265  21.467  17.554
46766W        W50727  10.608  20.526  14.759
46767W        W50728   9.043  20.009  15.820
46768W        W50729  10.895  18.520  17.561
46769W        W50730   9.044  20.355  17.155
46770W        W50731   9.261  19.241  16.600
46771W        W50732  10.113  19.539  15.438
46772W        W50733  10.400  19.272  15.080
46773W        W50734  10.209  21.312  15.469
46774W        W50735  10.043  20.915  16.265
46775W        W50736   9.939  19.994  15.243
46776W        W50737   9.372  20.204  16.229
46777W        W50738  10.253  19.992  16.296
46778W        W50739   7.628  19.007  16.720
46779W        W50740  10.406  20.059  17.547
46780W        W50741  10.757  21.677  16.693
46781W        W50742   8.687  21.121  16.095
46782W        W50743   9.694  21.654  17.419
46783W        W50744   9.688  18.984  17.183
46784W        W50745   8.895  21.692  17.244
46785W        W50746  10.592  18.646  15.710
46786W        W50747  10.383  19.965  17.011
46787W        W50748   7.366  19.286  17.049
46788W        W50749  10.226  19.081  16.067
46789W        W50750  10.637  19.232  17.844
46790W        W50751   9.522  20.931  16.062
46791W        W50752   8.778  21.522  15.675
46792W        W50753   7.893  18.702  14.933
46793W        W50754   8.997  18.356  16.743
46794W        W50755   8.025  21.476  14.591
46795W        W50756   8.399  19.942  15.342
46796W        W50757   9.053  20.571  17.655
46797W        W50758   8.883  18.929  15.645
46798W        W50759  10.239  18.526  16.073
46799W        W50760   9.959  21.808  16.401
46800W        W50761   9.371  21.456  16.741
46801W        W50762   8.767  20.493  16.702
46802W        W50763  10.537  21.216  16.828
46803W        W50764   8.231  18.719  15.597
46804W        W50765   8.753  21.016  16.557
46805W        W50766   8.236  18.947  14.622
46806W        W50767   9.037  19.556  17.016
46807W        W50768   9.885  18.422  16.886
46808W        W50769   7.305  20.265  16.771
46809W        W50770   9.009  20.083  14.929
46810W        W50771   8.277  18.398  14.699
46811W        W50772   9.015  19.479  15.750
46812W        W50773   9.985  18.455  17.449
46813W        W50774   8.573  20.467  17.558
46814W        W50775   9.377  20.249  17.775
46815W        W50776   9.994  20.279  17.668
46816W        W50777   9.278  18.419  18.173
46817W        W50778   8.500  19.035  16.566
46818W        W50779   7.926  18.991  15.964
46819W        W50780   7.712  21.703  15.640
46820W        W50781   9.044  21.033  17.765
46821W        W50782   8.079  20.518  15.124
46822W        W50783   9.759  19.903  16.345
46823W        W50784  10.039  19.702  16.744
46824W        W50785   9.244  20.376  16.678
46825W        W50786   9.714  20.750  14.810
46826W        W50787   9.386  18.771  16.138
46827W        W50788  10.865  19.049  15.406
46828W        W50789   7.359  21.638  17.437
46829W        W50790   7.776  20.864  16.969
46830W        W50791   7.343  21.710  15.201
46831W        W50792   9.242  18.980  17.007
46832W        W50793   8.605  21.003  14.856
46833W        W50794  10.510  21.385  15.042
46834W        W50795   9.485  20.038  15.056
46835W        W50796   8.328  19.229  15.573
46836W        W50797   9.160  19.139  14.625
46837W        W50798   9.744  20.704  17.803
46838W        W50799  10.097  18.610  15.420
46839W        W50800   7.427  18.458  14.868
46840W        W50801   8.713  20.777  17.158
46841W        W50802   8.512  20.693  16.250
46842W        W50803   8.254  20.645  14.648
46843W        W50804   7.495  20.886  15.416
46844W        W50805   7.999  19.956  17.858
46845W        W50806   8.703  18.516  18.044
46846W        W50807   9.412  18.658  17.400
46847W        W50808   8.607  18.426  15.681
46848W        W50809   9.666  18.503  15.186
46849W        W50810   7.611  18.435  16.763
46850W        W50811   7.659  19.398  16.133
46851W        W50812  10.348  18.506  16.539
46852W        W50813   7.770  19.004  15.353
46853W        W50814  10.341  18.692  16.969
46854W        W50815  10.737  19.895  14.654
46855W        W50816   8.029  18.653  16.473
46856W        W50817   9.143  19.225  17.413
46857W        W50818   7.291  18.915  14.891
46858W        W50819   8.077  20.304  17.452
46859W        W50820   9.435  19.702  16.631
46860W        W50821   9.302  21.781  14.927
46861W        W50822   7.448  20.288  14.624
46862W        W50823   8.183  20.699  17.750
46863W        W50824   7.704  19.866  17.381
46864W        W50825   8.695  19.971  17.175
46865W        W50826  10.463  18.330  17.437
46866W        W50827  10.861  19.940  17.428
46867W        W50828  10.849  20.140  15.114
46868W        W50829   9.712  20.472  15.213
46869W        W50830  10.186  21.772  14.908
46870W        W50831   9.363  19.762  18.050
46871W        W50832   7.693  20.729  18.090
46872W        W50833  10.899  18.651  18.042
46873W        W50834  10.617  19.579  16.663
46874W        W50835   8.925  21.709  18.140
46875W        W50836   8.780  18.338  14.867
46876W        W50837  10.319  20.937  14.810
46877W        W50838   8.088  19.030  17.696
46878W        W50839   8.522  21.024  17.558
46879W        W50840  10.648  19.015  17.356
46880W        W50841   9.859  21.674  15.324
46881W        W50842  10.098  20.293  16.691
46882W        W50843   8.348  18.709  17.358
46883W        W50844   8.817  19.778  18.115
46884W        W50845   8.320  20.957  15.309
46885W        W50846  10.075  20.455  15.573
46886W        W50847   7.843  19.081  17.297
46887W        W50848   9.172  21.143  15.761
46888W        W50849  10.922  19.703  15.942
46889W        W50850   9.144  18.336  17.661
46890W        W50851   9.924  21.041  16.740
46891W        W50852  10.227  21.385  16.448
46892W        W50853   9.446  21.187  14.876
46893W        W50854   7.456  21.079  17.718
46894W        W50855   8.199  19.071  16.956
46895W        W50856   8.169  18.419  16.066
46896W        W50857   9.790  19.261  16.758
46897W        W50858   8.588  20.432  14.958
46898W        W50859  10.586  20.374  16.457
46899W        W50860   7.913  21.132  17.880
46900W        W50861  10.300  21.814  15.677
46901W        W50862   8.399  18.834  16.122
46902W        W50863   8.168  20.327  16.212
46903W        W50864   8.481  21.738  16.962
46904W        W50865  10.548  21.834  17.994
46905W        W50866   9.707  20.022  16.927
46906W        W50867   7.556  19.820  14.842
46907W        W50868  10.690  21.478  15.539
46908W        W50869  10.527  18.802  15.158
46909W        W50870   8.666  18.321  17.561
46910W        W50871  10.372  21.123  16.019
46911W        W50872  10.401  19.679  15.924
46912W        W50873   8.518  19.352  16.140
46913W        W50874   8.763  19.614  17.464
46914W        W50875   9.874  20.767  17.327
46915W        W50876   8.524  19.221  17.439
46916W        W50877   8.503  21.687  16.055
46917W        W50878   7.820  21.646  17.689
46918W        W50879   7.932  21.007  14.819
46919W        W50880  10.449  20.765  15.629
46920W        W50881   8.053  19.557  17.515
46921W        W50882  10.826  19.487  14.996
46922W        W50883   8.571  20.544  15.467
46923W        W50884   9.670  19.926  17.548
46924W        W50885   9.561  19.554  17.092
46925W        W50886   8.121  19.926  17.121
46926W        W50887  10.331  21.814  16.950
46927W        W50888  10.122  18.448  17.944
46928W        W50889   7.786  18.598  17.531
46929W        W50890   8.125  19.621  16.584
46930W        W50891   8.494  19.435  14.706
46931W        W50892   7.297  21.194  17.251
46932W        W50893   8.882  19.903  16.694
46933W        W50894   8.705  18.928  14.799
46934W        W50895   7.840  19.744  15.580
46935W        W50896   7.611  21.596  17.017
46936W        W50897  10.406  19.822  15.125
46937W        W50898  10.501  18.738  17.811
46938W        W50899   9.937  20.947  15.774
46939W        W50900   7.535  19.871  17.951
46940W        W50901  10.501  18.335  15.247
46941W        W50902  10.021  20.810  15.258
46942W        W50903   8.923  19.868  15.343
46943W        W50904  10.110  18.672  14.866
46944W        W50905  10.175  19.279  17.052
46945W        W50906   7.884  19.872  16.259
46946W        W50907   8.178  20.811  15.908
46947W        W50908   9.941  19.431  15.873
46948W        W50909   8.964  18.810  16.569
46949W        W50910  10.926  20.721  17.080
46950W        W50911  10.844  18.708  16.641
46951W        W50912   7.383  21.538  16.017
46952W        W50913   7.892  20.725  15.553
46953W        W50914   7.807  18.342  18.106
46954W        W50915   8.926  21.195  18.208
46955W        W50916  10.681  20.163  15.998
46956W        W50917  10.035  20.340  14.878
46957W        W50918   9.330  21.861  17.090
46958W        W50919  10.187  20.583  18.127
46959W        W50920   9.002  18.293  15.407
46960W        W50921   9.715  19.162  16.266
46961W        W50922   7.401  20.749  16.598
46962W        W50923   8.654  18.711  15.239
46963W        W50924   8.458  20.195  18.088
46964W        W50925   9.452  19.176  15.802
46965W        W50926   9.657  20.586  16.924
46966W        W50927   7.811  21.191  17.359
46967W        W50928   8.402  21.174  18.082
46968W        W50929   8.253  18.971  15.096
46969W        W50930   9.770  19.113  15.421
46970W        W50931   9.728  21.221  17.658
46971W        W50932   8.413  19.813  16.257
46972W        W50933   8.068  21.511  17.122
46973W        W50934  10.813  21.628  14.723
46974W        W50935   7.676  20.300  17.719
46975W        W50936   9.671  20.562  16.407
46976W        W50937   8.107  20.211  15.649
46977W        W50938   8.478  21.218  17.044
46978W        W50939   8.856  18.637  16.085
46979W        W50940   7.467  20.621  15.015
46980W        W50941   8.986  19.572  14.885
46981W        W50942   7.632  20.121  15.904
46982W        W50943   8.922  18.763  17.368
46983W        W50944  10.594  18.472  14.795
46984W        W50945  10.687  20.218  17.894
46985W        W50946   9.341  21.475  18.046
46986W        W50947  10.899  20.569  17.568
46987W        W50948  10.307  21.367  18.179
46988W        W50949   8.046  21.823  16.657
46989W        W50950  10.905  20.445  15.531
46990W        W50951   9.435  19.712  16.044
46991W        W50952   9.202  18.324  15.934
46992W        W50953   8.261  21.308  15.771
46993W        W50954   8.760  19.049  16.996
46994W        W50955   8.460  18.418  16.465
46995W        W50956   7.523  21.240  15.013
46996W        W50957   9.339  20.604  15.731
46997W        W50958   8.214  21.399  17.610
46998W        W50959   7.691  20.222  15.306
46999W        W50960   7.576  18.765  16.305
47000W        W50961   9.124  20.730  16.362
47001W        W50962   7.376  18.584  15.382
47002W        W50963  10.040  19.790  17.309
47003W        W50964   9.917  19.176  14.881
47004W        W50965  10.434  20.848  16.529
47005W        W50966   9.095  21.332  16.360
47006W        W50967   8.507  21.436  15.271
47007W        W50968   9.789  18.339  14.701
47008W        W50969   7.589  21.599  16.442
47009W        W50970   9.786  19.357  18.077
47010W        W50971   7.769  18.887  18.076
47011W        W50972   7.500  19.487  15.409
47012W        W50973   8.191  19.476  15.134
47013W        W50974   9.954  19.803  17.951
47014W        W50975   8.297  20.084  16.660
47015W        W50976   9.771  18.370  15.780
47016W        W50977   8.902  21.801  16.283
47017W        W50978  10.116  21.263  17.220
47018W        W50979   9.700  21.412  16.331
47019W        W50980   9.719  20.392  15.925
47020W        W50981   9.181  18.617  14.996
47021W        W50982  10.862  18.245  15.718
47022W        W50983   8.550  19.880  14.881
47023W        W50984  10.716  19.217  15.871
47024W        W50985   9.408  20.387  14.748
47025W        W50986  10.344  20.587  17.496
47026W        W50987   9.998  21.288  14.963
47027W        W50988   8.613  18.963  17.869
47028W        W50989   8.433  19.547  17.110
47029W        W50990  10.525  21.042  17.387
47030W        W50991   9.625  18.992  17.764
47031W        W50992   7.469  19.463  17.541
47032W        W50993   9.229  19.940  17.267
47033W        W50994   7.586  20.698  15.924
47034W        W50995   7.733  19.995  16.814
47035W        W50996  10.050  20.281  17.164
47036W        W50997   9.822  21.661  17.975
47037W        W50998   9.718  19.400  17.528
47038W        W50999   9.995  21.454  15.933
47039W        W51000   8.997  21.174  17.256
47040W        W51001   8.482  21.529  16.525
47041W        W51002  10.287  20.700  16.944
47042W        W51003   9.337  20.772  18.081
47043W        W51004   7.942  20.725  16.420
47044W        W51005  10.288  20.484  16.065
47045W        W51006   9.929  21.550  16.816
47046W        W51007   7.907  21.279  16.686
47047W        W51008   8.928  19.331  17.896
47048W        W51009   9.379  21.497  15.407
47049W        W51010   8.687  20.752  18.045
47050W        W51011   8.813  20.990  15.422
47051W        W51012   8.034  19.730  14.681
47052W        W51013   7.373  21.816  21.580
47053W        W51014   7.749  20.709  21.103
47054W        W51015  10.454  20.439  18.873
47055W        W51016  10.584  21.524  20.900
47056W        W51017   8.502  21.515  18.426
47057W        W51018   8.585  19.667  19.409
47058W        W51019   8.100  19.515  19.573
47059W        W51020   9.091  20.330  19.007
47060W        W51021   8.766  21.422  21.362
47061W        W51022   7.415  18.983  21.325
47062W        W51023   8.177  18.263  21.127
47063W        W51024   9.871  18.651  20.014
47064W        W51025   9.520  19.522  18.584
47065W        W51026  10.090  18.956  21.675
47066W        W51027   7.456  18.748  20.800
47067W        W51028   7.555  21.367  21.821
47068W        W51029   9.077  20.757  18.553
47069W        W51030   7.509  19.540  20.246
47070W        W51031   8.402  19.431  21.483
47071W        W51032  10.861  19.290  19.982
47072W        W51033  10.625  20.333  20.841
47073W        W51034   8.933  19.666  19.868
47074W        W51035   9.479  21.005  20.237
47075W        W51036   7.979  20.439  20.469
47076W        W51037   7.338  19.967  20.040
47077W        W51038   8.374  19.939  21.232
47078W        W51039  10.645  19.722  21.486
47079W        W51040   8.261  21.166  19.931
47080W        W51041   9.382  20.855  21.065
47081W        W51042   8.602  19.495  20.290
47082W        W51043   8.894  20.279  19.933
47083W        W51044   9.891  21.052  21.781
47084W        W51045   8.970  20.372  21.791
47085W        W51046   8.951  20.088  21.269
47086W        W51047   7.360  19.479  21.791
47087W        W51048  10.192  21.014  21.390
47088W        W51049   7.773  18.596  19.388
47089W        W51050   8.300  20.854  20.387
47090W        W51051  10.763  20.637  19.677
47091W        W51052  10.176  19.037  20.244
47092W        W51053  10.461  18.990  18.339
47093W        W51054  10.926  19.791  20.645
47094W        W51055   8.893  21.498  20.398
47095W        W51056  10.667  20.964  18.836
47096W        W51057   7.796  21.750  18.590
47097W        W51058   8.189  21.796  19.266
47098W        W51059   7.986  18.550  20.692
47099W        W51060  10.609  19.568  20.967
47100W        W51061  10.014  19.990  19.426
47101W        W51062   9.980  19.678  18.453
47102W        W51063   9.188  20.822  20.593
47103W        W51064   8.994  19.152  19.792
47104W        W51065   9.594  21.239  20.786
47105W        W51066  10.465  20.030  19.208
47106W        W51067   9.367  18.688  19.224
47107W        W51068   8.024  21.382  18.907
47108W        W51069   7.395  18.881  19.506
47109W        W51070  10.181  19.488  19.980
47110W        W51071   7.639  21.105  19.895
47111W        W51072   8.980  21.455  18.765
47112W        W51073  10.372  19.481  18.229
47113W        W51074   7.395  21.239  20.393
47114W        W51075   8.186  20.811  20.873
47115W        W51076   8.559  20.171  19.492
47116W        W51077   8.581  18.576  20.585
47117W        W51078  10.810  18.338  19.882
47118W        W51079   8.029  20.210  18.350
47119W        W51080   7.684  19.243  18.529
47120W        W51081   7.746  21.199  19.323
47121W        W51082   8.877  20.682  19.571
47122W        W51083  10.209  21.541  21.285
47123W        W51084   9.135  19.183  18.969
47124W        W51085  10.518  21.581  19.741
47125W        W51086  10.195  19.434  21.339
47126W        W51087  10.908  21.090  19.473
47127W        W51088   9.535  20.382  20.957
47128W        W51089   7.301  19.933  19.163
47129W        W51090   8.412  20.348  20.736
47130W        W51091   9.616  19.612  19.114
47131W        W51092   9.493  20.102  19.218
47132W        W51093   7.836  19.522  20.692
47133W        W51094   7.821  19.398  21.614
47134W        W51095   7.711  18.315  19.773
47135W        W51096   9.479  18.662  20.334
47136W        W51097   9.127  18.847  21.497
47137W        W51098   9.482  18.996  18.675
47138W        W51099  10.665  21.389  21.429
47139W        W51100   9.632  18.470  21.468
47140W        W51101  10.651  20.771  21.590
47141W        W51102  10.081  18.938  21.186
47142W        W51103   9.881  18.876  19.456
47143W        W51104  10.274  20.010  21.860
47144W        W51105   8.014  21.586  19.846
47145W        W51106   8.672  19.303  18.832
47146W        W51107   8.241  18.587  21.496
47147W        W51108  10.293  19.071  19.177
47148W        W51109  10.660  19.553  19.122
47149W        W51110   8.403  21.770  21.593
47150W        W51111   8.329  18.306  18.828
47151W        W51112  10.650  18.840  19.863
47152W        W51113  10.800  21.089  18.308
47153W        W51114   7.707  20.292  20.010
47154W        W51115   9.624  18.879  18.240
47155W        W51116  10.758  21.211  19.960
47156W        W51117  10.797  18.405  20.710
47157W        W51118   9.242  19.617  21.264
47158W        W51119   9.335  20.956  18.967
47159W        W51120   9.735  20.250  21.707
47160W        W51121   9.409  18.227  20.016
47161W        W51122   8.021  19.130  20.079
47162W        W51123   7.575  20.330  20.853
47163W        W51124   9.434  21.523  19.559
47164W        W51125  10.628  19.120  20.431
47165W        W51126   9.265  21.467  21.198
47166W        W51127  10.608  20.526  18.403
47167W        W51128   9.043  20.009  19.464
47168W        W51129  10.895  18.520  21.205
47169W        W51130   9.044  20.355  20.799
47170W        W51131   9.261  19.241  20.244
47171W        W51132  10.113  19.539  19.082
47172W        W51133  10.400  19.272  18.724
47173W        W51134  10.209  21.312  19.113
47174W        W51135  10.043  20.915  19.909
47175W        W51136   9.939  19.994  18.887
47176W        W51137   9.372  20.204  19.873
47177W        W51138  10.253  19.992  19.940
47178W        W51139   7.628  19.007  20.364
47179W        W51140  10.406  20.059  21.191
47180W        W51141  10.757  21.677  20.337
47181W        W51142   8.687  21.121  19.739
47182W        W51143   9.694  21.654  21.063
47183W        W51144   9.688  18.984  20.827
47184W        W51145   8.895  21.692  20.888
47185W        W51146  10.592  18.646  19.354
47186W        W51147  10.383  19.965  20.655
47187W        W51148   7.366  19.286  20.693
47188W        W51149  10.226  19.081  19.711
47189W        W51150  10.637  19.232  21.488
47190W        W51151   9.522  20.931  19.706
47191W        W51152   8.778  21.522  19.319
47192W        W51153   7.893  18.702  18.577
47193W        W51154   8.997  18.356  20.387
47194W        W51155   8.025  21.476  18.235
47195W        W51156   8.399  19.942  18.986
47196W        W51157   9.053  20.571  21.299
47197W        W51158   8.883  18.929  19.289
47198W        W51159  10.239  18.526  19.717
47199W        W51160   9.959  21.808  20.045
47200W        W51161   9.371  21.456  20.385
47201W        W51162   8.767  20.493  20.346
47202W        W51163  10.537  21.216  20.472
47203W        W51164   8.231  18.719  19.241
47204W        W51165   8.753  21.016  20.201
47205W        W51166   8.236  18.947  18.266
47206W        W51167   9.037  19.556  20.660
47207W        W51168   9.885  18.422  20.530
47208W        W51169   7.305  20.265  20.415
47209W        W51170   9.009  20.083  18.573
47210W        W51171   8.277  18.398  18.343
47211W        W51172   9.015  19.479  19.394
47212W        W51173   9.985  18.455  21.093
47213W        W51174   8.573  20.467  21.202
47214W        W51175   9.377  20.249  21.419
47215W        W51176   9.994  20.279  21.312
47216W        W51177   9.278  18.419  21.817
47217W        W51178   8.500  19.035  20.210
47218W        W51179   7.926  18.991  19.608
47219W        W51180   7.712  21.703  19.284
47220W        W51181   9.044  21.033  21.409
47221W        W51182   8.079  20.518  18.768
47222W        W51183   9.759  19.903  19.989
47223W        W51184  10.039  19.702  20.388
47224W        W51185   9.244  20.376  20.322
47225W        W51186   9.714  20.750  18.454
47226W        W51187   9.386  18.771  19.782
47227W        W51188  10.865  19.049  19.050
47228W        W51189   7.359  21.638  21.081
47229W        W51190   7.776  20.864  20.613
47230W        W51191   7.343  21.710  18.845
47231W        W51192   9.242  18.980  20.651
47232W        W51193   8.605  21.003  18.500
47233W        W51194  10.510  21.385  18.686
47234W        W51195   9.485  20.038  18.700
47235W        W51196   8.328  19.229  19.217
47236W        W51197   9.160  19.139  18.269
47237W        W51198   9.744  20.704  21.447
47238W        W51199  10.097  18.610  19.064
47239W        W51200   7.427  18.458  18.512
47240W        W51201   8.713  20.777  20.802
47241W        W51202   8.512  20.693  19.894
47242W        W51203   8.254  20.645  18.292
47243W        W51204   7.495  20.886  19.060
47244W        W51205   7.999  19.956  21.502
47245W        W51206   8.703  18.516  21.688
47246W        W51207   9.412  18.658  21.044
47247W        W51208   8.607  18.426  19.325
47248W        W51209   9.666  18.503  18.830
47249W        W51210   7.611  18.435  20.407
47250W        W51211   7.659  19.398  19.777
47251W        W51212  10.348  18.506  20.183
47252W        W51213   7.770  19.004  18.997
47253W        W51214  10.341  18.692  20.613
47254W        W51215  10.737  19.895  18.298
47255W        W51216   8.029  18.653  20.117
47256W        W51217   9.143  19.225  21.057
47257W        W51218   7.291  18.915  18.535
47258W        W51219   8.077  20.304  21.096
47259W        W51220   9.435  19.702  20.275
47260W        W51221   9.302  21.781  18.571
47261W        W51222   7.448  20.288  18.268
47262W        W51223   8.183  20.699  21.394
47263W        W51224   7.704  19.866  21.025
47264W        W51225   8.695  19.971  20.819
47265W        W51226  10.463  18.330  21.081
47266W        W51227  10.861  19.940  21.072
47267W        W51228  10.849  20.140  18.758
47268W        W51229   9.712  20.472  18.857
47269W        W51230  10.186  21.772  18.552
47270W        W51231   9.363  19.762  21.694
47271W        W51232   7.693  20.729  21.734
47272W        W51233  10.899  18.651  21.686
47273W        W51234  10.617  19.579  20.307
47274W        W51235   8.925  21.709  21.784
47275W        W51236   8.780  18.338  18.511
47276W        W51237  10.319  20.937  18.454
47277W        W51238   8.088  19.030  21.340
47278W        W51239   8.522  21.024  21.202
47279W        W51240  10.648  19.015  21.000
47280W        W51241   9.859  21.674  18.968
47281W        W51242  10.098  20.293  20.335
47282W        W51243   8.348  18.709  21.002
47283W        W51244   8.817  19.778  21.759
47284W        W51245   8.320  20.957  18.953
47285W        W51246  10.075  20.455  19.217
47286W        W51247   7.843  19.081  20.941
47287W        W51248   9.172  21.143  19.405
47288W        W51249  10.922  19.703  19.586
47289W        W51250   9.144  18.336  21.305
47290W        W51251   9.924  21.041  20.384
47291W        W51252  10.227  21.385  20.092
47292W        W51253   9.446  21.187  18.520
47293W        W51254   7.456  21.079  21.362
47294W        W51255   8.199  19.071  20.600
47295W        W51256   8.169  18.419  19.710
47296W        W51257   9.790  19.261  20.402
47297W        W51258   8.588  20.432  18.602
47298W        W51259  10.586  20.374  20.101
47299W        W51260   7.913  21.132  21.524
47300W        W51261  10.300  21.814  19.321
47301W        W51262   8.399  18.834  19.766
47302W        W51263   8.168  20.327  19.856
47303W        W51264   8.481  21.738  20.606
47304W        W51265  10.548  21.834  21.638
47305W        W51266   9.707  20.022  20.571
47306W        W51267   7.556  19.820  18.486
47307W        W51268  10.690  21.478  19.183
47308W        W51269  10.527  18.802  18.802
47309W        W51270   8.666  18.321  21.205
47310W        W51271  10.372  21.123  19.663
47311W        W51272  10.401  19.679  19.568
47312W        W51273   8.518  19.352  19.784
47313W        W51274   8.763  19.614  21.108
47314W        W51275   9.874  20.767  20.971
47315W        W51276   8.524  19.221  21.083
47316W        W51277   8.503  21.687  19.699
47317W        W51278   7.820  21.646  21.333
47318W        W51279   7.932  21.007  18.463
47319W        W51280  10.449  20.765  19.273
47320W        W51281   8.053  19.557  21.159
47321W        W51282  10.826  19.487  18.640
47322W        W51283   8.571  20.544  19.111
47323W        W51284   9.670  19.926  21.192
47324W        W51285   9.561  19.554  20.736
47325W        W51286   8.121  19.926  20.765
47326W        W51287  10.331  21.814  20.594
47327W        W51288  10.122  18.448  21.588
47328W        W51289   7.786  18.598  21.175
47329W        W51290   8.125  19.621  20.228
47330W        W51291   8.494  19.435  18.350
47331W        W51292   7.297  21.194  20.895
47332W        W51293   8.882  19.903  20.338
47333W        W51294   8.705  18.928  18.443
47334W        W51295   7.840  19.744  19.224
47335W        W51296   7.611  21.596  20.661
47336W        W51297  10.406  19.822  18.769
47337W        W51298  10.501  18.738  21.455
47338W        W51299   9.937  20.947  19.418
47339W        W51300   7.535  19.871  21.595
47340W        W51301  10.501  18.335  18.891
47341W        W51302  10.021  20.810  18.902
47342W        W51303   8.923  19.868  18.987
47343W        W51304  10.110  18.672  18.510
47344W        W51305  10.175  19.279  20.696
47345W        W51306   7.884  19.872  19.903
47346W        W51307   8.178  20.811  19.552
47347W        W51308   9.941  19.431  19.517
47348W        W51309   8.964  18.810  20.213
47349W        W51310  10.926  20.721  20.724
47350W        W51311  10.844  18.708  20.285
47351W        W51312   7.383  21.538  19.661
47352W        W51313   7.892  20.725  19.197
47353W        W51314   7.807  18.342  21.750
47354W        W51315   8.926  21.195  21.852
47355W        W51316  10.681  20.163  19.642
47356W        W51317  10.035  20.340  18.522
47357W        W51318   9.330  21.861  20.734
47358W        W51319  10.187  20.583  21.771
47359W        W51320   9.002  18.293  19.051
47360W        W51321   9.715  19.162  19.910
47361W        W51322   7.401  20.749  20.242
47362W        W51323   8.654  18.711  18.883
47363W        W51324   8.458  20.195  21.732
47364W        W51325   9.452  19.176  19.446
47365W        W51326   9.657  20.586  20.568
47366W        W51327   7.811  21.191  21.003
47367W        W51328   8.402  21.174  21.726
47368W        W51329   8.253  18.971  18.740
47369W        W51330   9.770  19.113  19.065
47370W        W51331   9.728  21.221  21.302
47371W        W51332   8.413  19.813  19.901
47372W        W51333   8.068  21.511  20.766
47373W        W51334  10.813  21.628  18.367
47374W        W51335   7.676  20.300  21.363
47375W        W51336   9.671  20.562  20.051
47376W        W51337   8.107  20.211  19.293
47377W        W51338   8.478  21.218  20.688
47378W        W51339   8.856  18.637  19.729
47379W        W51340   7.467  20.621  18.659
47380W        W51341   8.986  19.572  18.529
47381W        W51342   7.632  20.121  19.548
47382W        W51343   8.922  18.763  21.012
47383W        W51344  10.594  18.472  18.439
47384W        W51345  10.687  20.218  21.538
47385W        W51346   9.341  21.475  21.690
47386W        W51347  10.899  20.569  21.212
47387W        W51348  10.307  21.367  21.823
47388W        W51349   8.046  21.823  20.301
47389W        W51350  10.905  20.445  19.175
47390W        W51351   9.435  19.712  19.688
47391W        W51352   9.202  18.324  19.578
47392W        W51353   8.261  21.308  19.415
47393W        W51354   8.760  19.049  20.640
47394W        W51355   8.460  18.418  20.109
47395W        W51356   7.523  21.240  18.657
47396W        W51357   9.339  20.604  19.375
47397W        W51358   8.214  21.399  21.254
47398W        W51359   7.691  20.222  18.950
47399W        W51360   7.576  18.765  19.949
47400W        W51361   9.124  20.730  20.006
47401W        W51362   7.376  18.584  19.026
47402W        W51363  10.040  19.790  20.953
47403W        W51364   9.917  19.176  18.525
47404W        W51365  10.434  20.848  20.173
47405W        W51366   9.095  21.332  20.004
47406W        W51367   8.507  21.436  18.915
47407W        W51368   9.789  18.339  18.345
47408W        W51369   7.589  21.599  20.086
47409W        W51370   9.786  19.357  21.721
47410W        W51371   7.769  18.887  21.720
47411W        W51372   7.500  19.487  19.053
47412W        W51373   8.191  19.476  18.778
47413W        W51374   9.954  19.803  21.595
47414W        W51375   8.297  20.084  20.304
47415W        W51376   9.771  18.370  19.424
47416W        W51377   8.902  21.801  19.927
47417W        W51378  10.116  21.263  20.864
47418W        W51379   9.700  21.412  19.975
47419W        W51380   9.719  20.392  19.569
47420W        W51381   9.181  18.617  18.640
47421W        W51382  10.862  18.245  19.362
47422W        W51383   8.550  19.880  18.525
47423W        W51384  10.716  19.217  19.515
47424W        W51385   9.408  20.387  18.392
47425W        W51386  10.344  20.587  21.140
47426W        W51387   9.998  21.288  18.607
47427W        W51388   8.613  18.963  21.513
47428W        W51389   8.433  19.547  20.754
47429W        W51390  10.525  21.042  21.031
47430W        W51391   9.625  18.992  21.408
47431W        W51392   7.469  19.463  21.185
47432W        W51393   9.229  19.940  20.911
47433W        W51394   7.586  20.698  19.568
47434W        W51395   7.733  19.995  20.458
47435W        W51396  10.050  20.281  20.808
47436W        W51397   9.822  21.661  21.619
47437W        W51398   9.718  19.400  21.172
47438W        W51399   9.995  21.454  19.577
47439W        W51400   8.997  21.174  20.900
47440W        W51401   8.482  21.529  20.169
47441W        W51402  10.287  20.700  20.588
47442W        W51403   9.337  20.772  21.725
47443W        W51404   7.942  20.725  20.064
47444W        W51405  10.288  20.484  19.709
47445W        W51406   9.929  21.550  20.460
47446W        W51407   7.907  21.279  20.330
47447W        W51408   8.928  19.331  21.540
47448W        W51409   9.379  21.497  19.051
47449W        W51410   8.687  20.752  21.689
47450W        W51411   8.813  20.990  19.066
47451W        W51412   8.034  19.730  18.325
47452W        W51413  10.454  20.439  22.518
47453W        W51414   8.502  21.515  22.071
47454W        W51415   8.585  19.667  23.054
47455W        W51416   8.100  19.515  23.218
47456W        W51417   9.091  20.330  22.652
47457W        W51418   9.520  19.522  22.229
47458W        W51419   9.077  20.757  22.198
47459W        W51420   7.773  18.596  23.033
47460W        W51421  10.461  18.990  21.984
47461W        W51422  10.667  20.964  22.481
47462W        W51423   7.796  21.750  22.235
47463W        W51424   8.189  21.796  22.911
47464W        W51425  10.014  19.990  23.071
47465W        W51426   9.980  19.678  22.098
47466W        W51427  10.465  20.030  22.853
47467W        W51428   9.367  18.688  22.869
47468W        W51429   8.024  21.382  22.552
47469W        W51430   8.980  21.455  22.410
47470W        W51431  10.372  19.481  21.874
47471W        W51432   8.559  20.171  23.137
47472W        W51433   8.029  20.210  21.995
47473W        W51434   7.684  19.243  22.174
47474W        W51435   7.746  21.199  22.968
47475W        W51436   8.877  20.682  23.216
47476W        W51437   9.135  19.183  22.614
47477W        W51438   7.301  19.933  22.808
47478W        W51439   9.616  19.612  22.759
47479W        W51440   9.493  20.102  22.863
47480W        W51441   9.482  18.996  22.320
47481W        W51442   9.881  18.876  23.101
47482W        W51443   8.672  19.303  22.477
47483W        W51444  10.293  19.071  22.822
47484W        W51445  10.660  19.553  22.767
47485W        W51446   8.329  18.306  22.473
47486W        W51447  10.800  21.089  21.953
47487W        W51448   9.624  18.879  21.885
47488W        W51449   9.335  20.956  22.612
47489W        W51450   9.434  21.523  23.204
47490W        W51451  10.608  20.526  22.048
47491W        W51452   9.043  20.009  23.109
47492W        W51453  10.113  19.539  22.727
47493W        W51454  10.400  19.272  22.369
47494W        W51455  10.209  21.312  22.758
47495W        W51456   9.939  19.994  22.532
47496W        W51457  10.592  18.646  22.999
47497W        W51458   8.778  21.522  22.964
47498W        W51459   7.893  18.702  22.222
47499W        W51460   8.025  21.476  21.880
47500W        W51461   8.399  19.942  22.631
47501W        W51462   8.883  18.929  22.934
47502W        W51463   8.231  18.719  22.886
47503W        W51464   8.236  18.947  21.911
47504W        W51465   9.009  20.083  22.218
47505W        W51466   8.277  18.398  21.988
47506W        W51467   9.015  19.479  23.039
47507W        W51468   7.926  18.991  23.253
47508W        W51469   7.712  21.703  22.929
47509W        W51470   8.079  20.518  22.413
47510W        W51471   9.714  20.750  22.099
47511W        W51472  10.865  19.049  22.695
47512W        W51473   7.343  21.710  22.490
47513W        W51474   8.605  21.003  22.145
47514W        W51475  10.510  21.385  22.331
47515W        W51476   9.485  20.038  22.345
47516W        W51477   8.328  19.229  22.862
47517W        W51478   9.160  19.139  21.914
47518W        W51479  10.097  18.610  22.709
47519W        W51480   7.427  18.458  22.157
47520W        W51481   8.254  20.645  21.937
47521W        W51482   7.495  20.886  22.705
47522W        W51483   8.607  18.426  22.970
47523W        W51484   9.666  18.503  22.475
47524W        W51485   7.770  19.004  22.642
47525W        W51486  10.737  19.895  21.943
47526W        W51487   7.291  18.915  22.180
47527W        W51488   9.302  21.781  22.216
47528W        W51489   7.448  20.288  21.913
47529W        W51490  10.849  20.140  22.403
47530W        W51491   9.712  20.472  22.502
47531W        W51492  10.186  21.772  22.197
47532W        W51493   8.780  18.338  22.156
47533W        W51494  10.319  20.937  22.099
47534W        W51495   9.859  21.674  22.613
47535W        W51496   8.320  20.957  22.598
47536W        W51497  10.075  20.455  22.862
47537W        W51498   9.172  21.143  23.050
47538W        W51499  10.922  19.703  23.231
47539W        W51500   9.446  21.187  22.165
47540W        W51501   8.588  20.432  22.247
47541W        W51502  10.300  21.814  22.966
47542W        W51503   7.556  19.820  22.131
47543W        W51504  10.690  21.478  22.828
47544W        W51505  10.527  18.802  22.447
47545W        W51506  10.401  19.679  23.213
47546W        W51507   7.932  21.007  22.108
47547W        W51508  10.449  20.765  22.918
47548W        W51509  10.826  19.487  22.285
47549W        W51510   8.571  20.544  22.756
47550W        W51511   8.494  19.435  21.995
47551W        W51512   8.705  18.928  22.088
47552W        W51513   7.840  19.744  22.869
47553W        W51514  10.406  19.822  22.414
47554W        W51515   9.937  20.947  23.063
47555W        W51516  10.501  18.335  22.536
47556W        W51517  10.021  20.810  22.547
47557W        W51518   8.923  19.868  22.632
47558W        W51519  10.110  18.672  22.155
47559W        W51520   8.178  20.811  23.197
47560W        W51521   9.941  19.431  23.162
47561W        W51522   7.383  21.538  23.306
47562W        W51523   7.892  20.725  22.842
47563W        W51524  10.681  20.163  23.287
47564W        W51525  10.035  20.340  22.167
47565W        W51526   9.002  18.293  22.696
47566W        W51527   8.654  18.711  22.528
47567W        W51528   9.452  19.176  23.091
47568W        W51529   8.253  18.971  22.385
47569W        W51530   9.770  19.113  22.710
47570W        W51531  10.813  21.628  22.012
47571W        W51532   7.467  20.621  22.304
47572W        W51533   8.986  19.572  22.174
47573W        W51534   7.632  20.121  23.193
47574W        W51535  10.594  18.472  22.084
47575W        W51536  10.905  20.445  22.820
47576W        W51537   9.202  18.324  23.223
47577W        W51538   8.261  21.308  23.060
47578W        W51539   7.523  21.240  22.302
47579W        W51540   9.339  20.604  23.020
47580W        W51541   7.691  20.222  22.595
47581W        W51542   7.376  18.584  22.671
47582W        W51543   9.917  19.176  22.170
47583W        W51544   8.507  21.436  22.560
47584W        W51545   9.789  18.339  21.990
47585W        W51546   7.500  19.487  22.698
47586W        W51547   8.191  19.476  22.423
47587W        W51548   9.719  20.392  23.214
47588W        W51549   9.181  18.617  22.285
47589W        W51550  10.862  18.245  23.007
47590W        W51551   8.550  19.880  22.170
47591W        W51552  10.716  19.217  23.160
47592W        W51553   9.408  20.387  22.037
47593W        W51554   9.998  21.288  22.252
47594W        W51555   7.586  20.698  23.213
47595W        W51556   9.995  21.454  23.222
47596W        W51557   9.379  21.497  22.696
47597W        W51558   8.813  20.990  22.711
47598W        W51559   8.034  19.730  21.970
47599W        W51560   7.415  22.628   3.104
47600W        W51561   8.177  21.908   2.906
47601W        W51562   9.871  22.296   1.793
47602W        W51563   9.520  23.167   0.363
47603W        W51564  10.090  22.601   3.454
47604W        W51565   7.456  22.393   2.579
47605W        W51566   8.402  23.076   3.262
47606W        W51567  10.861  22.935   1.761
47607W        W51568   8.602  23.140   2.069
47608W        W51569   7.360  23.124   3.570
47609W        W51570   7.773  22.241   1.167
47610W        W51571  10.176  22.682   2.023
47611W        W51572  10.461  22.635   0.118
47612W        W51573   7.986  22.195   2.471
47613W        W51574  10.609  23.213   2.746
47614W        W51575   8.994  22.797   1.571
47615W        W51576   9.367  22.333   1.003
47616W        W51577   7.395  22.526   1.285
47617W        W51578  10.181  23.133   1.759
47618W        W51579  10.372  23.126   0.008
47619W        W51580   8.581  22.221   2.364
47620W        W51581  10.810  21.983   1.661
47621W        W51582   7.684  22.888   0.308
47622W        W51583   9.135  22.828   0.748
47623W        W51584  10.195  23.079   3.118
47624W        W51585   9.616  23.257   0.893
47625W        W51586   7.836  23.167   2.471
47626W        W51587   7.711  21.960   1.552
47627W        W51588   9.479  22.307   2.113
47628W        W51589   9.127  22.492   3.276
47629W        W51590   9.482  22.641   0.454
47630W        W51591   9.632  22.115   3.247
47631W        W51592  10.081  22.583   2.965
47632W        W51593   9.881  22.521   1.235
47633W        W51594   8.672  22.948   0.611
47634W        W51595   8.241  22.232   3.275
47635W        W51596  10.293  22.716   0.956
47636W        W51597  10.660  23.198   0.901
47637W        W51598   8.329  21.951   0.607
47638W        W51599  10.650  22.485   1.642
47639W        W51600   9.624  22.524   0.019
47640W        W51601  10.797  22.050   2.489
47641W        W51602   9.409  21.872   1.795
47642W        W51603   8.021  22.775   1.858
47643W        W51604  10.628  22.765   2.210
47644W        W51605  10.895  22.165   2.984
47645W        W51606   9.261  22.886   2.023
47646W        W51607  10.400  22.917   0.503
47647W        W51608   7.628  22.652   2.143
47648W        W51609   9.688  22.629   2.606
47649W        W51610  10.592  22.291   1.133
47650W        W51611   7.366  22.931   2.472
47651W        W51612  10.226  22.726   1.490
47652W        W51613  10.637  22.877   3.267
47653W        W51614   7.893  22.347   0.356
47654W        W51615   8.997  22.001   2.166
47655W        W51616   8.883  22.574   1.068
47656W        W51617  10.239  22.171   1.496
47657W        W51618   8.231  22.364   1.020
47658W        W51619   8.236  22.592   0.045
47659W        W51620   9.037  23.201   2.439
47660W        W51621   9.885  22.067   2.309
47661W        W51622   8.277  22.043   0.122
47662W        W51623   9.015  23.124   1.173
47663W        W51624   9.985  22.100   2.872
47664W        W51625   9.278  22.064   3.596
47665W        W51626   8.500  22.680   1.989
47666W        W51627   7.926  22.636   1.387
47667W        W51628   9.386  22.416   1.561
47668W        W51629  10.865  22.694   0.829
47669W        W51630   9.242  22.625   2.430
47670W        W51631   8.328  22.874   0.996
47671W        W51632   9.160  22.784   0.048
47672W        W51633  10.097  22.255   0.843
47673W        W51634   7.427  22.103   0.291
47674W        W51635   8.703  22.161   3.467
47675W        W51636   9.412  22.303   2.823
47676W        W51637   8.607  22.071   1.104
47677W        W51638   9.666  22.148   0.609
47678W        W51639   7.611  22.080   2.186
47679W        W51640  10.348  22.151   1.962
47680W        W51641   7.770  22.649   0.776
47681W        W51642  10.341  22.337   2.392
47682W        W51643   8.029  22.298   1.896
47683W        W51644   9.143  22.870   2.836
47684W        W51645   7.291  22.560   0.314
47685W        W51646  10.463  21.975   2.860
47686W        W51647  10.899  22.296   3.465
47687W        W51648  10.617  23.224   2.086
47688W        W51649   8.780  21.983   0.290
47689W        W51650   8.088  22.675   3.119
47690W        W51651  10.648  22.660   2.779
47691W        W51652   8.348  22.354   2.781
47692W        W51653   7.843  22.726   2.720
47693W        W51654   9.144  21.981   3.084
47694W        W51655   8.199  22.716   2.379
47695W        W51656   8.169  22.064   1.489
47696W        W51657   9.790  22.906   2.181
47697W        W51658   8.399  22.479   1.545
47698W        W51659  10.527  22.447   0.581
47699W        W51660   8.666  21.966   2.984
47700W        W51661   8.518  22.997   1.563
47701W        W51662   8.524  22.866   2.862
47702W        W51663  10.826  23.132   0.419
47703W        W51664   9.561  23.199   2.515
47704W        W51665  10.122  22.093   3.367
47705W        W51666   7.786  22.243   2.954
47706W        W51667   8.125  23.266   2.007
47707W        W51668   8.494  23.080   0.129
47708W        W51669   8.705  22.573   0.222
47709W        W51670  10.501  22.383   3.234
47710W        W51671  10.501  21.980   0.670
47711W        W51672  10.110  22.317   0.289
47712W        W51673  10.175  22.924   2.475
47713W        W51674   8.964  22.455   1.992
47714W        W51675  10.844  22.353   2.064
47715W        W51676   7.807  21.987   3.529
47716W        W51677   9.002  21.938   0.830
47717W        W51678   9.715  22.807   1.689
47718W        W51679   8.654  22.356   0.662
47719W        W51680   9.452  22.821   1.225
47720W        W51681   8.253  22.616   0.519
47721W        W51682   9.770  22.758   0.844
47722W        W51683   8.856  22.282   1.508
47723W        W51684   8.986  23.217   0.308
47724W        W51685   8.922  22.408   2.791
47725W        W51686  10.594  22.117   0.218
47726W        W51687   9.202  21.969   1.357
47727W        W51688   8.760  22.694   2.419
47728W        W51689   8.460  22.063   1.888
47729W        W51690   7.576  22.410   1.728
47730W        W51691   7.376  22.229   0.805
47731W        W51692   9.917  22.821   0.304
47732W        W51693   9.789  21.984   0.124
47733W        W51694   9.786  23.002   3.500
47734W        W51695   7.769  22.532   3.499
47735W        W51696   7.500  23.132   0.832
47736W        W51697   9.771  22.015   1.203
47737W        W51698   9.181  22.262   0.419
47738W        W51699  10.862  21.890   1.141
47739W        W51700  10.716  22.862   1.294
47740W        W51701   8.613  22.608   3.292
47741W        W51702   8.433  23.192   2.533
47742W        W51703   9.625  22.637   3.187
47743W        W51704   7.469  23.108   2.964
47744W        W51705   9.718  23.045   2.951
47745W        W51706   8.928  22.976   3.319
47746W        W51707   7.415  22.628   6.748
47747W        W51708   8.177  21.908   6.550
47748W        W51709   9.871  22.296   5.437
47749W        W51710   9.520  23.167   4.007
47750W        W51711  10.090  22.601   7.098
47751W        W51712   7.456  22.393   6.223
47752W        W51713   8.402  23.076   6.906
47753W        W51714  10.861  22.935   5.405
47754W        W51715   8.602  23.140   5.713
47755W        W51716   7.360  23.124   7.214
47756W        W51717   7.773  22.241   4.811
47757W        W51718  10.176  22.682   5.667
47758W        W51719  10.461  22.635   3.762
47759W        W51720   7.986  22.195   6.115
47760W        W51721  10.609  23.213   6.390
47761W        W51722   8.994  22.797   5.215
47762W        W51723   9.367  22.333   4.647
47763W        W51724   7.395  22.526   4.929
47764W        W51725  10.181  23.133   5.403
47765W        W51726  10.372  23.126   3.652
47766W        W51727   8.581  22.221   6.008
47767W        W51728  10.810  21.983   5.305
47768W        W51729   7.684  22.888   3.952
47769W        W51730   9.135  22.828   4.392
47770W        W51731  10.195  23.079   6.762
47771W        W51732   9.616  23.257   4.537
47772W        W51733   7.836  23.167   6.115
47773W        W51734   7.711  21.960   5.196
47774W        W51735   9.479  22.307   5.757
47775W        W51736   9.127  22.492   6.920
47776W        W51737   9.482  22.641   4.098
47777W        W51738   9.632  22.115   6.891
47778W        W51739  10.081  22.583   6.609
47779W        W51740   9.881  22.521   4.879
47780W        W51741   8.672  22.948   4.255
47781W        W51742   8.241  22.232   6.919
47782W        W51743  10.293  22.716   4.600
47783W        W51744  10.660  23.198   4.545
47784W        W51745   8.329  21.951   4.251
47785W        W51746  10.650  22.485   5.286
47786W        W51747   9.624  22.524   3.663
47787W        W51748  10.797  22.050   6.133
47788W        W51749   9.409  21.872   5.439
47789W        W51750   8.021  22.775   5.502
47790W        W51751  10.628  22.765   5.854
47791W        W51752  10.895  22.165   6.628
47792W        W51753   9.261  22.886   5.667
47793W        W51754  10.400  22.917   4.147
47794W        W51755   7.628  22.652   5.787
47795W        W51756   9.688  22.629   6.250
47796W        W51757  10.592  22.291   4.777
47797W        W51758   7.366  22.931   6.116
47798W        W51759  10.226  22.726   5.134
47799W        W51760  10.637  22.877   6.911
47800W        W51761   7.893  22.347   4.000
47801W        W51762   8.997  22.001   5.810
47802W        W51763   8.883  22.574   4.712
47803W        W51764  10.239  22.171   5.140
47804W        W51765   8.231  22.364   4.664
47805W        W51766   8.236  22.592   3.689
47806W        W51767   9.037  23.201   6.083
47807W        W51768   9.885  22.067   5.953
47808W        W51769   8.277  22.043   3.766
47809W        W51770   9.985  22.100   6.516
47810W        W51771   9.278  22.064   7.240
47811W        W51772   8.500  22.680   5.633
47812W        W51773   7.926  22.636   5.031
47813W        W51774   9.386  22.416   5.205
47814W        W51775  10.865  22.694   4.473
47815W        W51776   9.242  22.625   6.074
47816W        W51777   8.328  22.874   4.640
47817W        W51778   9.160  22.784   3.692
47818W        W51779  10.097  22.255   4.487
47819W        W51780   7.427  22.103   3.935
47820W        W51781   8.703  22.161   7.111
47821W        W51782   9.412  22.303   6.467
47822W        W51783   8.607  22.071   4.748
47823W        W51784   9.666  22.148   4.253
47824W        W51785   7.611  22.080   5.830
47825W        W51786  10.348  22.151   5.606
47826W        W51787   7.770  22.649   4.420
47827W        W51788  10.341  22.337   6.036
47828W        W51789   8.029  22.298   5.540
47829W        W51790   9.143  22.870   6.480
47830W        W51791   7.291  22.560   3.958
47831W        W51792  10.463  21.975   6.504
47832W        W51793  10.899  22.296   7.109
47833W        W51794  10.617  23.224   5.730
47834W        W51795   8.780  21.983   3.934
47835W        W51796   8.088  22.675   6.763
47836W        W51797  10.648  22.660   6.423
47837W        W51798   8.348  22.354   6.425
47838W        W51799   7.843  22.726   6.364
47839W        W51800   9.144  21.981   6.728
47840W        W51801   8.199  22.716   6.023
47841W        W51802   8.169  22.064   5.133
47842W        W51803   9.790  22.906   5.825
47843W        W51804   8.399  22.479   5.189
47844W        W51805  10.527  22.447   4.225
47845W        W51806   8.666  21.966   6.628
47846W        W51807   8.518  22.997   5.207
47847W        W51808   8.524  22.866   6.506
47848W        W51809  10.826  23.132   4.063
47849W        W51810   9.561  23.199   6.159
47850W        W51811  10.122  22.093   7.011
47851W        W51812   7.786  22.243   6.598
47852W        W51813   8.125  23.266   5.651
47853W        W51814   8.494  23.080   3.773
47854W        W51815   8.705  22.573   3.866
47855W        W51816  10.501  22.383   6.878
47856W        W51817  10.501  21.980   4.314
47857W        W51818  10.110  22.317   3.933
47858W        W51819  10.175  22.924   6.119
47859W        W51820   8.964  22.455   5.636
47860W        W51821  10.844  22.353   5.708
47861W        W51822   7.807  21.987   7.173
47862W        W51823   9.002  21.938   4.474
47863W        W51824   9.715  22.807   5.333
47864W        W51825   8.654  22.356   4.306
47865W        W51826   9.452  22.821   4.869
47866W        W51827   8.253  22.616   4.163
47867W        W51828   9.770  22.758   4.488
47868W        W51829   8.856  22.282   5.152
47869W        W51830   8.986  23.217   3.952
47870W        W51831   8.922  22.408   6.435
47871W        W51832  10.594  22.117   3.862
47872W        W51833   9.202  21.969   5.001
47873W        W51834   8.760  22.694   6.063
47874W        W51835   8.460  22.063   5.532
47875W        W51836   7.576  22.410   5.372
47876W        W51837   7.376  22.229   4.449
47877W        W51838   9.917  22.821   3.948
47878W        W51839   9.789  21.984   3.768
47879W        W51840   9.786  23.002   7.144
47880W        W51841   7.769  22.532   7.143
47881W        W51842   7.500  23.132   4.476
47882W        W51843   9.771  22.015   4.847
47883W        W51844   9.181  22.262   4.063
47884W        W51845  10.862  21.890   4.785
47885W        W51846  10.716  22.862   4.938
47886W        W51847   8.613  22.608   6.936
47887W        W51848   8.433  23.192   6.177
47888W        W51849   9.625  22.637   6.831
47889W        W51850   7.469  23.108   6.608
47890W        W51851   9.718  23.045   6.595
47891W        W51852   8.928  22.976   6.963
47892W        W51853   7.415  22.628  10.393
47893W        W51854   8.177  21.908  10.195
47894W        W51855   9.871  22.296   9.082
47895W        W51856   9.520  23.167   7.652
47896W        W51857  10.090  22.601  10.743
47897W        W51858   7.456  22.393   9.868
47898W        W51859   8.402  23.076  10.551
47899W        W51860  10.861  22.935   9.050
47900W        W51861   8.602  23.140   9.358
47901W        W51862   7.360  23.124  10.859
47902W        W51863   7.773  22.241   8.456
47903W        W51864  10.176  22.682   9.312
47904W        W51865  10.461  22.635   7.407
47905W        W51866   7.986  22.195   9.760
47906W        W51867  10.609  23.213  10.035
47907W        W51868   8.994  22.797   8.860
47908W        W51869   9.367  22.333   8.292
47909W        W51870   7.395  22.526   8.574
47910W        W51871  10.181  23.133   9.048
47911W        W51872  10.372  23.126   7.297
47912W        W51873   8.581  22.221   9.653
47913W        W51874  10.810  21.983   8.950
47914W        W51875   7.684  22.888   7.597
47915W        W51876   9.135  22.828   8.037
47916W        W51877  10.195  23.079  10.407
47917W        W51878   9.616  23.257   8.182
47918W        W51879   7.836  23.167   9.760
47919W        W51880   7.711  21.960   8.841
47920W        W51881   9.479  22.307   9.402
47921W        W51882   9.127  22.492  10.565
47922W        W51883   9.482  22.641   7.743
47923W        W51884   9.632  22.115  10.536
47924W        W51885  10.081  22.583  10.254
47925W        W51886   9.881  22.521   8.524
47926W        W51887   8.672  22.948   7.900
47927W        W51888   8.241  22.232  10.564
47928W        W51889  10.293  22.716   8.245
47929W        W51890  10.660  23.198   8.190
47930W        W51891   8.329  21.951   7.896
47931W        W51892  10.650  22.485   8.931
47932W        W51893   9.624  22.524   7.308
47933W        W51894  10.797  22.050   9.778
47934W        W51895   9.409  21.872   9.084
47935W        W51896   8.021  22.775   9.147
47936W        W51897  10.628  22.765   9.499
47937W        W51898  10.895  22.165  10.273
47938W        W51899   9.261  22.886   9.312
47939W        W51900  10.400  22.917   7.792
47940W        W51901   7.628  22.652   9.432
47941W        W51902   9.688  22.629   9.895
47942W        W51903  10.592  22.291   8.422
47943W        W51904   7.366  22.931   9.761
47944W        W51905  10.226  22.726   8.779
47945W        W51906  10.637  22.877  10.556
47946W        W51907   7.893  22.347   7.645
47947W        W51908   8.997  22.001   9.455
47948W        W51909   8.883  22.574   8.357
47949W        W51910  10.239  22.171   8.785
47950W        W51911   8.231  22.364   8.309
47951W        W51912   8.236  22.592   7.334
47952W        W51913   9.037  23.201   9.728
47953W        W51914   9.885  22.067   9.598
47954W        W51915   8.277  22.043   7.411
47955W        W51916   9.015  23.124   8.462
47956W        W51917   9.985  22.100  10.161
47957W        W51918   9.278  22.064  10.885
47958W        W51919   8.500  22.680   9.278
47959W        W51920   7.926  22.636   8.676
47960W        W51921   9.386  22.416   8.850
47961W        W51922  10.865  22.694   8.118
47962W        W51923   9.242  22.625   9.719
47963W        W51924   8.328  22.874   8.285
47964W        W51925   9.160  22.784   7.337
47965W        W51926  10.097  22.255   8.132
47966W        W51927   7.427  22.103   7.580
47967W        W51928   8.703  22.161  10.756
47968W        W51929   9.412  22.303  10.112
47969W        W51930   8.607  22.071   8.393
47970W        W51931   9.666  22.148   7.898
47971W        W51932   7.611  22.080   9.475
47972W        W51933  10.348  22.151   9.251
47973W        W51934   7.770  22.649   8.065
47974W        W51935  10.341  22.337   9.681
47975W        W51936   8.029  22.298   9.185
47976W        W51937   9.143  22.870  10.125
47977W        W51938   7.291  22.560   7.603
47978W        W51939  10.463  21.975  10.149
47979W        W51940  10.899  22.296  10.754
47980W        W51941  10.617  23.224   9.375
47981W        W51942   8.780  21.983   7.579
47982W        W51943   8.088  22.675  10.408
47983W        W51944  10.648  22.660  10.068
47984W        W51945   8.348  22.354  10.070
47985W        W51946   7.843  22.726  10.009
47986W        W51947   9.144  21.981  10.373
47987W        W51948   8.199  22.716   9.668
47988W        W51949   8.169  22.064   8.778
47989W        W51950   9.790  22.906   9.470
47990W        W51951   8.399  22.479   8.834
47991W        W51952  10.527  22.447   7.870
47992W        W51953   8.666  21.966  10.273
47993W        W51954   8.518  22.997   8.852
47994W        W51955   8.524  22.866  10.151
47995W        W51956  10.826  23.132   7.708
47996W        W51957   9.561  23.199   9.804
47997W        W51958  10.122  22.093  10.656
47998W        W51959   7.786  22.243  10.243
47999W        W51960   8.125  23.266   9.296
48000W        W51961   8.494  23.080   7.418
48001W        W51962   8.705  22.573   7.511
48002W        W51963  10.501  22.383  10.523
48003W        W51964  10.501  21.980   7.959
48004W        W51965  10.110  22.317   7.578
48005W        W51966  10.175  22.924   9.764
48006W        W51967   8.964  22.455   9.281
48007W        W51968  10.844  22.353   9.353
48008W        W51969   7.807  21.987  10.818
48009W        W51970   9.002  21.938   8.119
48010W        W51971   9.715  22.807   8.978
48011W        W51972   8.654  22.356   7.951
48012W        W51973   9.452  22.821   8.514
48013W        W51974   8.253  22.616   7.808
48014W        W51975   9.770  22.758   8.133
48015W        W51976   8.856  22.282   8.797
48016W        W51977   8.986  23.217   7.597
48017W        W51978   8.922  22.408  10.080
48018W        W51979  10.594  22.117   7.507
48019W        W51980   9.202  21.969   8.646
48020W        W51981   8.760  22.694   9.708
48021W        W51982   8.460  22.063   9.177
48022W        W51983   7.576  22.410   9.017
48023W        W51984   7.376  22.229   8.094
48024W        W51985   9.917  22.821   7.593
48025W        W51986   9.789  21.984   7.413
48026W        W51987   9.786  23.002  10.789
48027W        W51988   7.769  22.532  10.788
48028W        W51989   7.500  23.132   8.121
48029W        W51990   9.771  22.015   8.492
48030W        W51991   9.181  22.262   7.708
48031W        W51992  10.862  21.890   8.430
48032W        W51993  10.716  22.862   8.583
48033W        W51994   8.613  22.608  10.581
48034W        W51995   8.433  23.192   9.822
48035W        W51996   9.625  22.637  10.476
48036W        W51997   9.718  23.045  10.240
48037W        W51998   8.928  22.976  10.608
48038W        W51999   7.415  22.628  14.037
48039W        W52000   8.177  21.908  13.839
48040W        W52001   9.871  22.296  12.726
48041W        W52002   9.520  23.167  11.296
48042W        W52003  10.090  22.601  14.387
48043W        W52004   7.456  22.393  13.512
48044W        W52005   8.402  23.076  14.195
48045W        W52006  10.861  22.935  12.694
48046W        W52007   8.602  23.140  13.002
48047W        W52008   7.360  23.124  14.503
48048W        W52009   7.773  22.241  12.100
48049W        W52010  10.176  22.682  12.956
48050W        W52011  10.461  22.635  11.051
48051W        W52012   7.986  22.195  13.404
48052W        W52013  10.609  23.213  13.679
48053W        W52014   8.994  22.797  12.504
48054W        W52015   9.367  22.333  11.936
48055W        W52016   7.395  22.526  12.218
48056W        W52017  10.181  23.133  12.692
48057W        W52018  10.372  23.126  10.941
48058W        W52019   8.581  22.221  13.297
48059W        W52020  10.810  21.983  12.594
48060W        W52021   7.684  22.888  11.241
48061W        W52022   9.135  22.828  11.681
48062W        W52023  10.195  23.079  14.051
48063W        W52024   9.616  23.257  11.826
48064W        W52025   7.836  23.167  13.404
48065W        W52026   7.711  21.960  12.485
48066W        W52027   9.479  22.307  13.046
48067W        W52028   9.127  22.492  14.209
48068W        W52029   9.482  22.641  11.387
48069W        W52030   9.632  22.115  14.180
48070W        W52031  10.081  22.583  13.898
48071W        W52032   9.881  22.521  12.168
48072W        W52033   8.672  22.948  11.544
48073W        W52034   8.241  22.232  14.208
48074W        W52035  10.293  22.716  11.889
48075W        W52036  10.660  23.198  11.834
48076W        W52037   8.329  21.951  11.540
48077W        W52038  10.650  22.485  12.575
48078W        W52039   9.624  22.524  10.952
48079W        W52040  10.797  22.050  13.422
48080W        W52041   9.409  21.872  12.728
48081W        W52042   8.021  22.775  12.791
48082W        W52043  10.628  22.765  13.143
48083W        W52044  10.895  22.165  13.917
48084W        W52045   9.261  22.886  12.956
48085W        W52046  10.400  22.917  11.436
48086W        W52047   7.628  22.652  13.076
48087W        W52048   9.688  22.629  13.539
48088W        W52049  10.592  22.291  12.066
48089W        W52050   7.366  22.931  13.405
48090W        W52051  10.226  22.726  12.423
48091W        W52052  10.637  22.877  14.200
48092W        W52053   7.893  22.347  11.289
48093W        W52054   8.997  22.001  13.099
48094W        W52055   8.883  22.574  12.001
48095W        W52056  10.239  22.171  12.429
48096W        W52057   8.231  22.364  11.953
48097W        W52058   8.236  22.592  10.978
48098W        W52059   9.037  23.201  13.372
48099W        W52060   9.885  22.067  13.242
48100W        W52061   8.277  22.043  11.055
48101W        W52062   9.015  23.124  12.106
48102W        W52063   9.985  22.100  13.805
48103W        W52064   9.278  22.064  14.529
48104W        W52065   8.500  22.680  12.922
48105W        W52066   7.926  22.636  12.320
48106W        W52067   9.386  22.416  12.494
48107W        W52068  10.865  22.694  11.762
48108W        W52069   9.242  22.625  13.363
48109W        W52070   8.328  22.874  11.929
48110W        W52071   9.160  22.784  10.981
48111W        W52072  10.097  22.255  11.776
48112W        W52073   7.427  22.103  11.224
48113W        W52074   8.703  22.161  14.400
48114W        W52075   9.412  22.303  13.756
48115W        W52076   8.607  22.071  12.037
48116W        W52077   9.666  22.148  11.542
48117W        W52078   7.611  22.080  13.119
48118W        W52079  10.348  22.151  12.895
48119W        W52080   7.770  22.649  11.709
48120W        W52081  10.341  22.337  13.325
48121W        W52082   8.029  22.298  12.829
48122W        W52083   9.143  22.870  13.769
48123W        W52084   7.291  22.560  11.247
48124W        W52085  10.463  21.975  13.793
48125W        W52086  10.899  22.296  14.398
48126W        W52087  10.617  23.224  13.019
48127W        W52088   8.780  21.983  11.223
48128W        W52089   8.088  22.675  14.052
48129W        W52090  10.648  22.660  13.712
48130W        W52091   8.348  22.354  13.714
48131W        W52092   7.843  22.726  13.653
48132W        W52093   9.144  21.981  14.017
48133W        W52094   8.199  22.716  13.312
48134W        W52095   8.169  22.064  12.422
48135W        W52096   9.790  22.906  13.114
48136W        W52097   8.399  22.479  12.478
48137W        W52098  10.527  22.447  11.514
48138W        W52099   8.666  21.966  13.917
48139W        W52100   8.518  22.997  12.496
48140W        W52101   8.524  22.866  13.795
48141W        W52102  10.826  23.132  11.352
48142W        W52103   9.561  23.199  13.448
48143W        W52104  10.122  22.093  14.300
48144W        W52105   7.786  22.243  13.887
48145W        W52106   8.125  23.266  12.940
48146W        W52107   8.494  23.080  11.062
48147W        W52108   8.705  22.573  11.155
48148W        W52109  10.501  22.383  14.167
48149W        W52110  10.501  21.980  11.603
48150W        W52111  10.110  22.317  11.222
48151W        W52112  10.175  22.924  13.408
48152W        W52113   8.964  22.455  12.925
48153W        W52114  10.844  22.353  12.997
48154W        W52115   7.807  21.987  14.462
48155W        W52116   9.002  21.938  11.763
48156W        W52117   9.715  22.807  12.622
48157W        W52118   8.654  22.356  11.595
48158W        W52119   9.452  22.821  12.158
48159W        W52120   8.253  22.616  11.452
48160W        W52121   9.770  22.758  11.777
48161W        W52122   8.856  22.282  12.441
48162W        W52123   8.986  23.217  11.241
48163W        W52124   8.922  22.408  13.724
48164W        W52125  10.594  22.117  11.151
48165W        W52126   9.202  21.969  12.290
48166W        W52127   8.760  22.694  13.352
48167W        W52128   8.460  22.063  12.821
48168W        W52129   7.576  22.410  12.661
48169W        W52130   7.376  22.229  11.738
48170W        W52131   9.917  22.821  11.237
48171W        W52132   9.789  21.984  11.057
48172W        W52133   9.786  23.002  14.433
48173W        W52134   7.769  22.532  14.432
48174W        W52135   7.500  23.132  11.765
48175W        W52136   9.771  22.015  12.136
48176W        W52137   9.181  22.262  11.352
48177W        W52138  10.862  21.890  12.074
48178W        W52139  10.716  22.862  12.227
48179W        W52140   8.613  22.608  14.225
48180W        W52141   8.433  23.192  13.466
48181W        W52142   9.625  22.637  14.120
48182W        W52143   7.469  23.108  13.897
48183W        W52144   9.718  23.045  13.884
48184W        W52145   8.928  22.976  14.252
48185W        W52146   7.415  22.628  17.681
48186W        W52147   8.177  21.908  17.483
48187W        W52148   9.871  22.296  16.370
48188W        W52149   9.520  23.167  14.940
48189W        W52150  10.090  22.601  18.031
48190W        W52151   7.456  22.393  17.156
48191W        W52152   8.402  23.076  17.839
48192W        W52153  10.861  22.935  16.338
48193W        W52154   8.602  23.140  16.646
48194W        W52155   7.360  23.124  18.147
48195W        W52156   7.773  22.241  15.744
48196W        W52157  10.176  22.682  16.600
48197W        W52158  10.461  22.635  14.695
48198W        W52159   7.986  22.195  17.048
48199W        W52160  10.609  23.213  17.323
48200W        W52161   8.994  22.797  16.148
48201W        W52162   9.367  22.333  15.580
48202W        W52163   7.395  22.526  15.862
48203W        W52164  10.181  23.133  16.336
48204W        W52165  10.372  23.126  14.585
48205W        W52166   8.581  22.221  16.941
48206W        W52167  10.810  21.983  16.238
48207W        W52168   7.684  22.888  14.885
48208W        W52169   9.135  22.828  15.325
48209W        W52170  10.195  23.079  17.695
48210W        W52171   9.616  23.257  15.470
48211W        W52172   7.836  23.167  17.048
48212W        W52173   7.711  21.960  16.129
48213W        W52174   9.479  22.307  16.690
48214W        W52175   9.127  22.492  17.853
48215W        W52176   9.482  22.641  15.031
48216W        W52177   9.632  22.115  17.824
48217W        W52178  10.081  22.583  17.542
48218W        W52179   9.881  22.521  15.812
48219W        W52180   8.672  22.948  15.188
48220W        W52181   8.241  22.232  17.852
48221W        W52182  10.293  22.716  15.533
48222W        W52183  10.660  23.198  15.478
48223W        W52184   8.329  21.951  15.184
48224W        W52185  10.650  22.485  16.219
48225W        W52186   9.624  22.524  14.596
48226W        W52187  10.797  22.050  17.066
48227W        W52188   9.409  21.872  16.372
48228W        W52189   8.021  22.775  16.435
48229W        W52190  10.628  22.765  16.787
48230W        W52191  10.895  22.165  17.561
48231W        W52192   9.261  22.886  16.600
48232W        W52193  10.400  22.917  15.080
48233W        W52194   7.628  22.652  16.720
48234W        W52195   9.688  22.629  17.183
48235W        W52196  10.592  22.291  15.710
48236W        W52197   7.366  22.931  17.049
48237W        W52198  10.226  22.726  16.067
48238W        W52199  10.637  22.877  17.844
48239W        W52200   7.893  22.347  14.933
48240W        W52201   8.997  22.001  16.743
48241W        W52202   8.883  22.574  15.645
48242W        W52203  10.239  22.171  16.073
48243W        W52204   8.231  22.364  15.597
48244W        W52205   8.236  22.592  14.622
48245W        W52206   9.037  23.201  17.016
48246W        W52207   9.885  22.067  16.886
48247W        W52208   8.277  22.043  14.699
48248W        W52209   9.015  23.124  15.750
48249W        W52210   9.985  22.100  17.449
48250W        W52211   9.278  22.064  18.173
48251W        W52212   8.500  22.680  16.566
48252W        W52213   7.926  22.636  15.964
48253W        W52214   9.386  22.416  16.138
48254W        W52215  10.865  22.694  15.406
48255W        W52216   9.242  22.625  17.007
48256W        W52217   8.328  22.874  15.573
48257W        W52218   9.160  22.784  14.625
48258W        W52219  10.097  22.255  15.420
48259W        W52220   7.427  22.103  14.868
48260W        W52221   8.703  22.161  18.044
48261W        W52222   9.412  22.303  17.400
48262W        W52223   8.607  22.071  15.681
48263W        W52224   9.666  22.148  15.186
48264W        W52225   7.611  22.080  16.763
48265W        W52226  10.348  22.151  16.539
48266W        W52227   7.770  22.649  15.353
48267W        W52228  10.341  22.337  16.969
48268W        W52229   8.029  22.298  16.473
48269W        W52230   9.143  22.870  17.413
48270W        W52231   7.291  22.560  14.891
48271W        W52232  10.463  21.975  17.437
48272W        W52233  10.899  22.296  18.042
48273W        W52234  10.617  23.224  16.663
48274W        W52235   8.780  21.983  14.867
48275W        W52236   8.088  22.675  17.696
48276W        W52237  10.648  22.660  17.356
48277W        W52238   8.348  22.354  17.358
48278W        W52239   7.843  22.726  17.297
48279W        W52240   9.144  21.981  17.661
48280W        W52241   8.199  22.716  16.956
48281W        W52242   8.169  22.064  16.066
48282W        W52243   9.790  22.906  16.758
48283W        W52244   8.399  22.479  16.122
48284W        W52245  10.527  22.447  15.158
48285W        W52246   8.666  21.966  17.561
48286W        W52247   8.518  22.997  16.140
48287W        W52248   8.524  22.866  17.439
48288W        W52249  10.826  23.132  14.996
48289W        W52250   9.561  23.199  17.092
48290W        W52251  10.122  22.093  17.944
48291W        W52252   7.786  22.243  17.531
48292W        W52253   8.125  23.266  16.584
48293W        W52254   8.494  23.080  14.706
48294W        W52255   8.705  22.573  14.799
48295W        W52256  10.501  22.383  17.811
48296W        W52257  10.501  21.980  15.247
48297W        W52258  10.110  22.317  14.866
48298W        W52259  10.175  22.924  17.052
48299W        W52260   8.964  22.455  16.569
48300W        W52261  10.844  22.353  16.641
48301W        W52262   7.807  21.987  18.106
48302W        W52263   9.002  21.938  15.407
48303W        W52264   9.715  22.807  16.266
48304W        W52265   8.654  22.356  15.239
48305W        W52266   9.452  22.821  15.802
48306W        W52267   8.253  22.616  15.096
48307W        W52268   9.770  22.758  15.421
48308W        W52269   8.856  22.282  16.085
48309W        W52270   8.986  23.217  14.885
48310W        W52271   8.922  22.408  17.368
48311W        W52272  10.594  22.117  14.795
48312W        W52273   9.202  21.969  15.934
48313W        W52274   8.760  22.694  16.996
48314W        W52275   8.460  22.063  16.465
48315W        W52276   7.576  22.410  16.305
48316W        W52277   7.376  22.229  15.382
48317W        W52278   9.917  22.821  14.881
48318W        W52279   9.789  21.984  14.701
48319W        W52280   9.786  23.002  18.077
48320W        W52281   7.769  22.532  18.076
48321W        W52282   7.500  23.132  15.409
48322W        W52283   9.771  22.015  15.780
48323W        W52284   9.181  22.262  14.996
48324W        W52285  10.862  21.890  15.718
48325W        W52286  10.716  22.862  15.871
48326W        W52287   8.613  22.608  17.869
48327W        W52288   8.433  23.192  17.110
48328W        W52289   9.625  22.637  17.764
48329W        W52290   7.469  23.108  17.541
48330W        W52291   9.718  23.045  17.528
48331W        W52292   8.928  22.976  17.896
48332W        W52293   7.415  22.628  21.325
48333W        W52294   8.177  21.908  21.127
48334W        W52295   9.871  22.296  20.014
48335W        W52296   9.520  23.167  18.584
48336W        W52297  10.090  22.601  21.675
48337W        W52298   7.456  22.393  20.800
48338W        W52299   8.402  23.076  21.483
48339W        W52300  10.861  22.935  19.982
48340W        W52301   8.602  23.140  20.290
48341W        W52302   7.360  23.124  21.791
48342W        W52303   7.773  22.241  19.388
48343W        W52304  10.176  22.682  20.244
48344W        W52305  10.461  22.635  18.339
48345W        W52306   7.986  22.195  20.692
48346W        W52307  10.609  23.213  20.967
48347W        W52308   8.994  22.797  19.792
48348W        W52309   9.367  22.333  19.224
48349W        W52310   7.395  22.526  19.506
48350W        W52311  10.181  23.133  19.980
48351W        W52312  10.372  23.126  18.229
48352W        W52313   8.581  22.221  20.585
48353W        W52314  10.810  21.983  19.882
48354W        W52315   9.135  22.828  18.969
48355W        W52316  10.195  23.079  21.339
48356W        W52317   9.616  23.257  19.114
48357W        W52318   7.836  23.167  20.692
48358W        W52319   7.711  21.960  19.773
48359W        W52320   9.479  22.307  20.334
48360W        W52321   9.127  22.492  21.497
48361W        W52322   9.482  22.641  18.675
48362W        W52323   9.632  22.115  21.468
48363W        W52324  10.081  22.583  21.186
48364W        W52325   9.881  22.521  19.456
48365W        W52326   8.672  22.948  18.832
48366W        W52327   8.241  22.232  21.496
48367W        W52328  10.293  22.716  19.177
48368W        W52329  10.660  23.198  19.122
48369W        W52330   8.329  21.951  18.828
48370W        W52331  10.650  22.485  19.863
48371W        W52332   9.624  22.524  18.240
48372W        W52333  10.797  22.050  20.710
48373W        W52334   9.409  21.872  20.016
48374W        W52335   8.021  22.775  20.079
48375W        W52336  10.628  22.765  20.431
48376W        W52337  10.895  22.165  21.205
48377W        W52338   9.261  22.886  20.244
48378W        W52339  10.400  22.917  18.724
48379W        W52340   7.628  22.652  20.364
48380W        W52341   9.688  22.629  20.827
48381W        W52342  10.592  22.291  19.354
48382W        W52343   7.366  22.931  20.693
48383W        W52344  10.226  22.726  19.711
48384W        W52345  10.637  22.877  21.488
48385W        W52346   8.997  22.001  20.387
48386W        W52347   8.883  22.574  19.289
48387W        W52348  10.239  22.171  19.717
48388W        W52349   8.231  22.364  19.241
48389W        W52350   8.236  22.592  18.266
48390W        W52351   9.037  23.201  20.660
48391W        W52352   9.885  22.067  20.530
48392W        W52353   8.277  22.043  18.343
48393W        W52354   9.015  23.124  19.394
48394W        W52355   9.985  22.100  21.093
48395W        W52356   9.278  22.064  21.817
48396W        W52357   8.500  22.680  20.210
48397W        W52358   7.926  22.636  19.608
48398W        W52359   9.386  22.416  19.782
48399W        W52360  10.865  22.694  19.050
48400W        W52361   9.242  22.625  20.651
48401W        W52362   8.328  22.874  19.217
48402W        W52363   9.160  22.784  18.269
48403W        W52364  10.097  22.255  19.064
48404W        W52365   8.703  22.161  21.688
48405W        W52366   9.412  22.303  21.044
48406W        W52367   8.607  22.071  19.325
48407W        W52368   9.666  22.148  18.830
48408W        W52369   7.611  22.080  20.407
48409W        W52370  10.348  22.151  20.183
48410W        W52371   7.770  22.649  18.997
48411W        W52372  10.341  22.337  20.613
48412W        W52373   8.029  22.298  20.117
48413W        W52374   9.143  22.870  21.057
48414W        W52375   7.291  22.560  18.535
48415W        W52376  10.463  21.975  21.081
48416W        W52377  10.899  22.296  21.686
48417W        W52378  10.617  23.224  20.307
48418W        W52379   8.780  21.983  18.511
48419W        W52380   8.088  22.675  21.340
48420W        W52381  10.648  22.660  21.000
48421W        W52382   8.348  22.354  21.002
48422W        W52383   7.843  22.726  20.941
48423W        W52384   9.144  21.981  21.305
48424W        W52385   8.199  22.716  20.600
48425W        W52386   8.169  22.064  19.710
48426W        W52387   9.790  22.906  20.402
48427W        W52388   8.399  22.479  19.766
48428W        W52389  10.527  22.447  18.802
48429W        W52390   8.666  21.966  21.205
48430W        W52391   8.518  22.997  19.784
48431W        W52392   8.524  22.866  21.083
48432W        W52393  10.826  23.132  18.640
48433W        W52394   9.561  23.199  20.736
48434W        W52395  10.122  22.093  21.588
48435W        W52396   7.786  22.243  21.175
48436W        W52397   8.125  23.266  20.228
48437W        W52398   8.494  23.080  18.350
48438W        W52399   8.705  22.573  18.443
48439W        W52400  10.501  22.383  21.455
48440W        W52401  10.501  21.980  18.891
48441W        W52402  10.110  22.317  18.510
48442W        W52403  10.175  22.924  20.696
48443W        W52404   8.964  22.455  20.213
48444W        W52405  10.844  22.353  20.285
48445W        W52406   7.807  21.987  21.750
48446W        W52407   9.002  21.938  19.051
48447W        W52408   9.715  22.807  19.910
48448W        W52409   8.654  22.356  18.883
48449W        W52410   9.452  22.821  19.446
48450W        W52411   8.253  22.616  18.740
48451W        W52412   9.770  22.758  19.065
48452W        W52413   8.856  22.282  19.729
48453W        W52414   8.986  23.217  18.529
48454W        W52415   8.922  22.408  21.012
48455W        W52416  10.594  22.117  18.439
48456W        W52417   9.202  21.969  19.578
48457W        W52418   8.760  22.694  20.640
48458W        W52419   8.460  22.063  20.109
48459W        W52420   7.576  22.410  19.949
48460W        W52421   7.376  22.229  19.026
48461W        W52422   9.917  22.821  18.525
48462W        W52423   9.789  21.984  18.345
48463W        W52424   9.786  23.002  21.721
48464W        W52425   7.769  22.532  21.720
48465W        W52426   7.500  23.132  19.053
48466W        W52427   9.771  22.015  19.424
48467W        W52428   9.181  22.262  18.640
48468W        W52429  10.862  21.890  19.362
48469W        W52430  10.716  22.862  19.515
48470W        W52431   8.613  22.608  21.513
48471W        W52432   8.433  23.192  20.754
48472W        W52433   9.625  22.637  21.408
48473W        W52434   7.469  23.108  21.185
48474W        W52435   9.718  23.045  21.172
48475W        W52436   8.928  22.976  21.540
48476W        W52437   9.520  23.167  22.229
48477W        W52438   7.773  22.241  23.033
48478W        W52439  10.461  22.635  21.984
48479W        W52440   9.367  22.333  22.869
48480W        W52441  10.372  23.126  21.874
48481W        W52442   7.684  22.888  22.174
48482W        W52443   9.135  22.828  22.614
48483W        W52444   9.616  23.257  22.759
48484W        W52445   9.482  22.641  22.320
48485W        W52446   9.881  22.521  23.101
48486W        W52447   8.672  22.948  22.477
48487W        W52448  10.293  22.716  22.822
48488W        W52449  10.660  23.198  22.767
48489W        W52450   8.329  21.951  22.473
48490W        W52451   9.624  22.524  21.885
48491W        W52452  10.400  22.917  22.369
48492W        W52453  10.592  22.291  22.999
48493W        W52454   7.893  22.347  22.222
48494W        W52455   8.883  22.574  22.934
48495W        W52456   8.231  22.364  22.886
48496W        W52457   8.236  22.592  21.911
48497W        W52458   8.277  22.043  21.988
48498W        W52459   9.015  23.124  23.039
48499W        W52460   7.926  22.636  23.253
48500W        W52461  10.865  22.694  22.695
48501W        W52462   8.328  22.874  22.862
48502W        W52463   9.160  22.784  21.914
48503W        W52464  10.097  22.255  22.709
48504W        W52465   7.427  22.103  22.157
48505W        W52466   8.607  22.071  22.970
48506W        W52467   9.666  22.148  22.475
48507W        W52468   7.770  22.649  22.642
48508W        W52469   7.291  22.560  22.180
48509W        W52470   8.780  21.983  22.156
48510W        W52471  10.527  22.447  22.447
48511W        W52472  10.826  23.132  22.285
48512W        W52473   8.494  23.080  21.995
48513W        W52474   8.705  22.573  22.088
48514W        W52475  10.501  21.980  22.536
48515W        W52476  10.110  22.317  22.155
48516W        W52477   9.002  21.938  22.696
48517W        W52478   8.654  22.356  22.528
48518W        W52479   9.452  22.821  23.091
48519W        W52480   8.253  22.616  22.385
48520W        W52481   9.770  22.758  22.710
48521W        W52482   8.986  23.217  22.174
48522W        W52483  10.594  22.117  22.084
48523W        W52484   9.202  21.969  23.223
48524W        W52485   7.376  22.229  22.671
48525W        W52486   9.917  22.821  22.170
48526W        W52487   9.789  21.984  21.990
48527W        W52488   7.500  23.132  22.698
48528W        W52489   9.181  22.262  22.285
48529W        W52490  10.862  21.890  23.007
48530W        W52491  10.716  22.862  23.160
48531W        W52492  11.017   3.595   3.359
48532W        W52493  11.393   2.488   2.882
48533W        W52494  14.098   2.218   0.652
48534W        W52495  14.228   3.303   2.679
48535W        W52496  12.146   3.294   0.205
48536W        W52497  12.229   1.446   1.188
48537W        W52498  11.744   1.294   1.352
48538W        W52499  12.735   2.109   0.786
48539W        W52500  12.410   3.201   3.141
48540W        W52501  11.059   0.762   3.104
48541W        W52502  11.821   0.042   2.906
48542W        W52503  13.515   0.430   1.793
48543W        W52504  13.164   1.301   0.363
48544W        W52505  13.734   0.735   3.454
48545W        W52506  11.100   0.527   2.579
48546W        W52507  11.199   3.146   3.600
48547W        W52508  12.721   2.536   0.332
48548W        W52509  11.153   1.319   2.025
48549W        W52510  12.046   1.210   3.262
48550W        W52511  14.505   1.069   1.761
48551W        W52512  14.269   2.112   2.620
48552W        W52513  12.577   1.445   1.647
48553W        W52514  13.123   2.784   2.016
48554W        W52515  11.623   2.218   2.248
48555W        W52516  10.982   1.746   1.819
48556W        W52517  12.018   1.718   3.011
48557W        W52518  14.289   1.501   3.265
48558W        W52519  11.905   2.945   1.710
48559W        W52520  13.026   2.634   2.844
48560W        W52521  12.246   1.274   2.069
48561W        W52522  12.538   2.058   1.712
48562W        W52523  13.535   2.831   3.560
48563W        W52524  12.614   2.151   3.570
48564W        W52525  12.595   1.867   3.048
48565W        W52526  11.004   1.258   3.570
48566W        W52527  13.836   2.793   3.169
48567W        W52528  11.417   0.375   1.167
48568W        W52529  11.944   2.633   2.166
48569W        W52530  14.407   2.416   1.456
48570W        W52531  13.820   0.816   2.023
48571W        W52532  14.105   0.769   0.118
48572W        W52533  14.570   1.570   2.424
48573W        W52534  12.537   3.277   2.177
48574W        W52535  14.311   2.743   0.615
48575W        W52536  11.440   3.529   0.369
48576W        W52537  11.833   3.575   1.045
48577W        W52538  11.630   0.329   2.471
48578W        W52539  14.253   1.347   2.746
48579W        W52540  13.658   1.769   1.205
48580W        W52541  13.624   1.457   0.232
48581W        W52542  12.832   2.601   2.372
48582W        W52543  12.638   0.931   1.571
48583W        W52544  13.238   3.018   2.565
48584W        W52545  14.109   1.809   0.987
48585W        W52546  13.011   0.467   1.003
48586W        W52547  11.668   3.161   0.686
48587W        W52548  11.039   0.660   1.285
48588W        W52549  13.825   1.267   1.759
48589W        W52550  11.283   2.884   1.674
48590W        W52551  12.624   3.234   0.544
48591W        W52552  14.016   1.260   0.008
48592W        W52553  11.039   3.018   2.172
48593W        W52554  11.830   2.590   2.652
48594W        W52555  12.203   1.950   1.271
48595W        W52556  12.225   0.355   2.364
48596W        W52557  14.454   0.117   1.661
48597W        W52558  11.673   1.989   0.129
48598W        W52559  11.328   1.022   0.308
48599W        W52560  11.390   2.978   1.102
48600W        W52561  12.521   2.461   1.350
48601W        W52562  13.853   3.320   3.064
48602W        W52563  12.779   0.962   0.748
48603W        W52564  14.162   3.360   1.520
48604W        W52565  13.839   1.213   3.118
48605W        W52566  14.552   2.869   1.252
48606W        W52567  13.179   2.161   2.736
48607W        W52568  10.945   1.712   0.942
48608W        W52569  12.056   2.127   2.515
48609W        W52570  13.260   1.391   0.893
48610W        W52571  13.137   1.881   0.997
48611W        W52572  11.480   1.301   2.471
48612W        W52573  11.355   0.094   1.552
48613W        W52574  13.123   0.441   2.113
48614W        W52575  12.771   0.626   3.276
48615W        W52576  13.126   0.775   0.454
48616W        W52577  14.309   3.168   3.208
48617W        W52578  13.276   0.249   3.247
48618W        W52579  14.295   2.550   3.369
48619W        W52580  13.725   0.717   2.965
48620W        W52581  13.525   0.655   1.235
48621W        W52582  13.918   1.789   3.639
48622W        W52583  11.658   3.365   1.625
48623W        W52584  12.316   1.082   0.611
48624W        W52585  11.885   0.366   3.275
48625W        W52586  13.937   0.850   0.956
48626W        W52587  14.304   1.332   0.901
48627W        W52588  12.047   3.549   3.372
48628W        W52589  11.973   0.085   0.607
48629W        W52590  14.294   0.619   1.642
48630W        W52591  14.444   2.868   0.087
48631W        W52592  11.351   2.071   1.789
48632W        W52593  13.268   0.658   0.019
48633W        W52594  14.402   2.990   1.739
48634W        W52595  14.441   0.184   2.489
48635W        W52596  12.886   1.396   3.043
48636W        W52597  12.979   2.735   0.746
48637W        W52598  13.379   2.029   3.486
48638W        W52599  13.053   0.006   1.795
48639W        W52600  11.665   0.909   1.858
48640W        W52601  11.219   2.109   2.632
48641W        W52602  13.078   3.302   1.338
48642W        W52603  14.272   0.899   2.210
48643W        W52604  12.909   3.246   2.977
48644W        W52605  14.252   2.305   0.182
48645W        W52606  12.687   1.788   1.243
48646W        W52607  14.539   0.299   2.984
48647W        W52608  12.688   2.134   2.578
48648W        W52609  12.905   1.020   2.023
48649W        W52610  13.757   1.318   0.861
48650W        W52611  14.044   1.051   0.503
48651W        W52612  13.853   3.091   0.892
48652W        W52613  13.687   2.694   1.688
48653W        W52614  13.583   1.773   0.666
48654W        W52615  13.016   1.983   1.652
48655W        W52616  13.897   1.771   1.719
48656W        W52617  11.272   0.786   2.143
48657W        W52618  14.050   1.838   2.970
48658W        W52619  14.401   3.456   2.116
48659W        W52620  12.331   2.900   1.518
48660W        W52621  13.338   3.433   2.842
48661W        W52622  13.332   0.763   2.606
48662W        W52623  12.539   3.471   2.667
48663W        W52624  14.236   0.425   1.133
48664W        W52625  14.027   1.744   2.434
48665W        W52626  11.010   1.065   2.472
48666W        W52627  13.870   0.860   1.490
48667W        W52628  14.281   1.011   3.267
48668W        W52629  13.166   2.710   1.485
48669W        W52630  12.422   3.301   1.098
48670W        W52631  11.537   0.481   0.356
48671W        W52632  12.641   0.135   2.166
48672W        W52633  11.669   3.255   0.014
48673W        W52634  12.043   1.721   0.765
48674W        W52635  12.697   2.350   3.078
48675W        W52636  12.527   0.708   1.068
48676W        W52637  13.883   0.305   1.496
48677W        W52638  13.603   3.587   1.824
48678W        W52639  13.015   3.235   2.164
48679W        W52640  12.411   2.272   2.125
48680W        W52641  14.181   2.995   2.251
48681W        W52642  11.875   0.498   1.020
48682W        W52643  12.397   2.795   1.980
48683W        W52644  11.880   0.726   0.045
48684W        W52645  12.681   1.335   2.439
48685W        W52646  13.529   0.201   2.309
48686W        W52647  10.949   2.044   2.194
48687W        W52648  12.653   1.862   0.352
48688W        W52649  11.921   0.177   0.122
48689W        W52650  12.659   1.258   1.173
48690W        W52651  13.629   0.234   2.872
48691W        W52652  12.217   2.246   2.981
48692W        W52653  13.021   2.028   3.198
48693W        W52654  13.638   2.058   3.091
48694W        W52655  12.922   0.198   3.596
48695W        W52656  12.144   0.814   1.989
48696W        W52657  11.570   0.770   1.387
48697W        W52658  11.356   3.482   1.063
48698W        W52659  12.688   2.812   3.188
48699W        W52660  11.723   2.297   0.547
48700W        W52661  13.403   1.682   1.768
48701W        W52662  13.683   1.481   2.167
48702W        W52663  12.888   2.155   2.101
48703W        W52664  13.358   2.529   0.233
48704W        W52665  13.030   0.550   1.561
48705W        W52666  14.509   0.828   0.829
48706W        W52667  11.003   3.417   2.860
48707W        W52668  11.420   2.643   2.392
48708W        W52669  10.987   3.489   0.624
48709W        W52670  12.886   0.759   2.430
48710W        W52671  12.249   2.782   0.279
48711W        W52672  14.154   3.164   0.465
48712W        W52673  13.129   1.817   0.479
48713W        W52674  11.972   1.008   0.996
48714W        W52675  12.804   0.918   0.048
48715W        W52676  13.388   2.483   3.226
48716W        W52677  13.741   0.389   0.843
48717W        W52678  11.071   0.237   0.291
48718W        W52679  12.357   2.556   2.581
48719W        W52680  12.156   2.472   1.673
48720W        W52681  11.898   2.424   0.071
48721W        W52682  11.139   2.665   0.839
48722W        W52683  11.643   1.735   3.281
48723W        W52684  12.347   0.295   3.467
48724W        W52685  13.056   0.437   2.823
48725W        W52686  12.251   0.205   1.104
48726W        W52687  13.310   0.282   0.609
48727W        W52688  11.255   0.214   2.186
48728W        W52689  11.303   1.177   1.556
48729W        W52690  13.992   0.285   1.962
48730W        W52691  11.414   0.783   0.776
48731W        W52692  13.985   0.471   2.392
48732W        W52693  14.381   1.674   0.077
48733W        W52694  11.673   0.432   1.896
48734W        W52695  12.787   1.004   2.836
48735W        W52696  10.935   0.694   0.314
48736W        W52697  11.721   2.083   2.875
48737W        W52698  13.079   1.481   2.054
48738W        W52699  12.946   3.560   0.350
48739W        W52700  11.092   2.067   0.047
48740W        W52701  11.827   2.478   3.173
48741W        W52702  11.348   1.645   2.804
48742W        W52703  12.339   1.750   2.598
48743W        W52704  14.107   0.109   2.860
48744W        W52705  14.505   1.719   2.851
48745W        W52706  14.493   1.919   0.537
48746W        W52707  13.356   2.251   0.636
48747W        W52708  13.830   3.551   0.331
48748W        W52709  13.007   1.541   3.473
48749W        W52710  11.337   2.508   3.513
48750W        W52711  14.543   0.430   3.465
48751W        W52712  14.261   1.358   2.086
48752W        W52713  12.569   3.488   3.563
48753W        W52714  12.424   0.117   0.290
48754W        W52715  13.963   2.716   0.233
48755W        W52716  11.732   0.809   3.119
48756W        W52717  12.166   2.803   2.981
48757W        W52718  14.292   0.794   2.779
48758W        W52719  13.503   3.453   0.747
48759W        W52720  13.742   2.072   2.114
48760W        W52721  11.992   0.488   2.781
48761W        W52722  12.461   1.557   3.538
48762W        W52723  11.964   2.736   0.732
48763W        W52724  13.719   2.234   0.996
48764W        W52725  11.487   0.860   2.720
48765W        W52726  12.816   2.922   1.184
48766W        W52727  14.566   1.482   1.365
48767W        W52728  12.788   0.115   3.084
48768W        W52729  13.568   2.820   2.163
48769W        W52730  13.871   3.164   1.871
48770W        W52731  13.090   2.966   0.299
48771W        W52732  11.100   2.858   3.141
48772W        W52733  11.843   0.850   2.379
48773W        W52734  11.813   0.198   1.489
48774W        W52735  13.434   1.040   2.181
48775W        W52736  12.232   2.211   0.381
48776W        W52737  14.230   2.153   1.880
48777W        W52738  11.557   2.911   3.303
48778W        W52739  13.944   3.593   1.100
48779W        W52740  12.043   0.613   1.545
48780W        W52741  11.812   2.106   1.635
48781W        W52742  12.125   3.517   2.385
48782W        W52743  14.192   3.613   3.417
48783W        W52744  13.351   1.801   2.350
48784W        W52745  11.200   1.599   0.265
48785W        W52746  14.334   3.257   0.962
48786W        W52747  14.171   0.581   0.581
48787W        W52748  12.310   0.100   2.984
48788W        W52749  14.016   2.902   1.442
48789W        W52750  14.045   1.458   1.347
48790W        W52751  12.162   1.131   1.563
48791W        W52752  12.407   1.393   2.887
48792W        W52753  13.518   2.546   2.750
48793W        W52754  12.168   1.000   2.862
48794W        W52755  12.147   3.466   1.478
48795W        W52756  11.464   3.425   3.112
48796W        W52757  11.576   2.786   0.242
48797W        W52758  14.093   2.544   1.052
48798W        W52759  11.697   1.336   2.938
48799W        W52760  14.470   1.266   0.419
48800W        W52761  12.215   2.323   0.890
48801W        W52762  13.314   1.705   2.971
48802W        W52763  13.205   1.333   2.515
48803W        W52764  11.765   1.705   2.544
48804W        W52765  13.975   3.593   2.373
48805W        W52766  13.766   0.227   3.367
48806W        W52767  11.430   0.377   2.954
48807W        W52768  11.769   1.400   2.007
48808W        W52769  12.138   1.214   0.129
48809W        W52770  10.941   2.973   2.674
48810W        W52771  12.526   1.682   2.117
48811W        W52772  12.349   0.707   0.222
48812W        W52773  11.484   1.523   1.003
48813W        W52774  11.255   3.375   2.440
48814W        W52775  14.050   1.601   0.548
48815W        W52776  14.145   0.517   3.234
48816W        W52777  13.581   2.726   1.197
48817W        W52778  11.179   1.650   3.374
48818W        W52779  14.145   0.114   0.670
48819W        W52780  13.665   2.589   0.681
48820W        W52781  12.567   1.647   0.766
48821W        W52782  13.754   0.451   0.289
48822W        W52783  13.819   1.058   2.475
48823W        W52784  11.528   1.651   1.682
48824W        W52785  11.822   2.590   1.331
48825W        W52786  13.585   1.210   1.296
48826W        W52787  12.608   0.589   1.992
48827W        W52788  14.570   2.500   2.503
48828W        W52789  14.488   0.487   2.064
48829W        W52790  11.027   3.317   1.440
48830W        W52791  11.536   2.504   0.976
48831W        W52792  11.451   0.121   3.529
48832W        W52793  12.570   2.974   3.631
48833W        W52794  14.325   1.942   1.421
48834W        W52795  13.679   2.119   0.301
48835W        W52796  12.974   3.640   2.513
48836W        W52797  13.831   2.362   3.550
48837W        W52798  12.646   0.072   0.830
48838W        W52799  13.359   0.941   1.689
48839W        W52800  11.045   2.528   2.021
48840W        W52801  12.298   0.490   0.662
48841W        W52802  12.102   1.974   3.511
48842W        W52803  13.096   0.955   1.225
48843W        W52804  13.301   2.365   2.347
48844W        W52805  11.455   2.970   2.782
48845W        W52806  12.046   2.953   3.505
48846W        W52807  11.897   0.750   0.519
48847W        W52808  13.414   0.892   0.844
48848W        W52809  13.372   3.000   3.081
48849W        W52810  12.057   1.592   1.680
48850W        W52811  11.712   3.290   2.545
48851W        W52812  14.457   3.407   0.146
48852W        W52813  11.320   2.079   3.142
48853W        W52814  13.315   2.341   1.830
48854W        W52815  11.751   1.990   1.072
48855W        W52816  12.122   2.997   2.467
48856W        W52817  12.500   0.416   1.508
48857W        W52818  11.111   2.400   0.438
48858W        W52819  12.630   1.351   0.308
48859W        W52820  11.276   1.900   1.327
48860W        W52821  12.566   0.542   2.791
48861W        W52822  14.238   0.251   0.218
48862W        W52823  14.331   1.997   3.317
48863W        W52824  12.985   3.254   3.469
48864W        W52825  14.543   2.348   2.991
48865W        W52826  13.951   3.146   3.602
48866W        W52827  11.690   3.602   2.080
48867W        W52828  14.549   2.224   0.954
48868W        W52829  13.079   1.491   1.467
48869W        W52830  12.846   0.103   1.357
48870W        W52831  11.905   3.087   1.194
48871W        W52832  12.404   0.828   2.419
48872W        W52833  12.104   0.197   1.888
48873W        W52834  11.167   3.019   0.436
48874W        W52835  12.983   2.383   1.154
48875W        W52836  11.858   3.178   3.033
48876W        W52837  11.335   2.001   0.729
48877W        W52838  11.220   0.544   1.728
48878W        W52839  12.768   2.509   1.785
48879W        W52840  11.020   0.363   0.805
48880W        W52841  13.684   1.569   2.732
48881W        W52842  13.561   0.955   0.304
48882W        W52843  14.078   2.627   1.952
48883W        W52844  12.739   3.111   1.783
48884W        W52845  12.151   3.215   0.694
48885W        W52846  13.433   0.118   0.124
48886W        W52847  11.233   3.378   1.865
48887W        W52848  13.430   1.136   3.500
48888W        W52849  11.144   1.266   0.832
48889W        W52850  11.835   1.255   0.557
48890W        W52851  13.598   1.582   3.374
48891W        W52852  11.941   1.863   2.083
48892W        W52853  13.415   0.149   1.203
48893W        W52854  12.546   3.580   1.706
48894W        W52855  13.760   3.042   2.643
48895W        W52856  13.344   3.191   1.754
48896W        W52857  13.363   2.171   1.348
48897W        W52858  12.825   0.396   0.419
48898W        W52859  14.506   0.024   1.141
48899W        W52860  12.194   1.659   0.304
48900W        W52861  14.360   0.996   1.294
48901W        W52862  13.052   2.166   0.171
48902W        W52863  13.988   2.366   2.919
48903W        W52864  13.642   3.067   0.386
48904W        W52865  12.257   0.742   3.292
48905W        W52866  12.077   1.326   2.533
48906W        W52867  14.169   2.821   2.810
48907W        W52868  13.269   0.771   3.187
48908W        W52869  11.113   1.242   2.964
48909W        W52870  12.873   1.719   2.690
48910W        W52871  11.230   2.477   1.347
48911W        W52872  11.377   1.774   2.237
48912W        W52873  13.694   2.060   2.587
48913W        W52874  13.466   3.440   3.398
48914W        W52875  13.362   1.179   2.951
48915W        W52876  13.639   3.233   1.356
48916W        W52877  12.641   2.953   2.679
48917W        W52878  12.126   3.308   1.948
48918W        W52879  13.931   2.479   2.367
48919W        W52880  12.981   2.551   3.504
48920W        W52881  11.586   2.504   1.843
48921W        W52882  13.932   2.263   1.488
48922W        W52883  13.573   3.329   2.239
48923W        W52884  11.551   3.058   2.109
48924W        W52885  12.572   1.110   3.319
48925W        W52886  13.023   3.276   0.830
48926W        W52887  12.331   2.531   3.468
48927W        W52888  12.457   2.769   0.845
48928W        W52889  11.678   1.509   0.104
48929W        W52890  11.017   3.595   7.003
48930W        W52891  11.393   2.488   6.526
48931W        W52892  14.098   2.218   4.296
48932W        W52893  14.228   3.303   6.323
48933W        W52894  12.146   3.294   3.849
48934W        W52895  12.229   1.446   4.832
48935W        W52896  11.744   1.294   4.996
48936W        W52897  12.735   2.109   4.430
48937W        W52898  12.410   3.201   6.785
48938W        W52899  11.059   0.762   6.748
48939W        W52900  11.821   0.042   6.550
48940W        W52901  13.515   0.430   5.437
48941W        W52902  13.164   1.301   4.007
48942W        W52903  13.734   0.735   7.098
48943W        W52904  11.100   0.527   6.223
48944W        W52905  11.199   3.146   7.244
48945W        W52906  12.721   2.536   3.976
48946W        W52907  11.153   1.319   5.669
48947W        W52908  12.046   1.210   6.906
48948W        W52909  14.505   1.069   5.405
48949W        W52910  14.269   2.112   6.264
48950W        W52911  12.577   1.445   5.291
48951W        W52912  13.123   2.784   5.660
48952W        W52913  10.982   1.746   5.463
48953W        W52914  12.018   1.718   6.655
48954W        W52915  14.289   1.501   6.909
48955W        W52916  11.905   2.945   5.354
48956W        W52917  13.026   2.634   6.488
48957W        W52918  12.246   1.274   5.713
48958W        W52919  12.538   2.058   5.356
48959W        W52920  13.535   2.831   7.204
48960W        W52921  12.614   2.151   7.214
48961W        W52922  12.595   1.867   6.692
48962W        W52923  11.004   1.258   7.214
48963W        W52924  13.836   2.793   6.813
48964W        W52925  11.417   0.375   4.811
48965W        W52926  11.944   2.633   5.810
48966W        W52927  14.407   2.416   5.100
48967W        W52928  13.820   0.816   5.667
48968W        W52929  14.105   0.769   3.762
48969W        W52930  14.570   1.570   6.068
48970W        W52931  12.537   3.277   5.821
48971W        W52932  14.311   2.743   4.259
48972W        W52933  11.440   3.529   4.013
48973W        W52934  11.833   3.575   4.689
48974W        W52935  11.630   0.329   6.115
48975W        W52936  14.253   1.347   6.390
48976W        W52937  13.658   1.769   4.849
48977W        W52938  13.624   1.457   3.876
48978W        W52939  12.832   2.601   6.016
48979W        W52940  12.638   0.931   5.215
48980W        W52941  13.238   3.018   6.209
48981W        W52942  14.109   1.809   4.631
48982W        W52943  13.011   0.467   4.647
48983W        W52944  11.668   3.161   4.330
48984W        W52945  11.039   0.660   4.929
48985W        W52946  13.825   1.267   5.403
48986W        W52947  11.283   2.884   5.318
48987W        W52948  12.624   3.234   4.188
48988W        W52949  14.016   1.260   3.652
48989W        W52950  11.039   3.018   5.816
48990W        W52951  11.830   2.590   6.296
48991W        W52952  12.203   1.950   4.915
48992W        W52953  12.225   0.355   6.008
48993W        W52954  14.454   0.117   5.305
48994W        W52955  11.673   1.989   3.773
48995W        W52956  11.328   1.022   3.952
48996W        W52957  11.390   2.978   4.746
48997W        W52958  12.521   2.461   4.994
48998W        W52959  13.853   3.320   6.708
48999W        W52960  12.779   0.962   4.392
49000W        W52961  14.162   3.360   5.164
49001W        W52962  13.839   1.213   6.762
49002W        W52963  14.552   2.869   4.896
49003W        W52964  13.179   2.161   6.380
49004W        W52965  10.945   1.712   4.586
49005W        W52966  13.260   1.391   4.537
49006W        W52967  13.137   1.881   4.641
49007W        W52968  11.480   1.301   6.115
49008W        W52969  11.465   1.177   7.037
49009W        W52970  11.355   0.094   5.196
49010W        W52971  13.123   0.441   5.757
49011W        W52972  12.771   0.626   6.920
49012W        W52973  13.126   0.775   4.098
49013W        W52974  14.309   3.168   6.852
49014W        W52975  13.276   0.249   6.891
49015W        W52976  14.295   2.550   7.013
49016W        W52977  13.725   0.717   6.609
49017W        W52978  13.525   0.655   4.879
49018W        W52979  13.918   1.789   7.283
49019W        W52980  11.658   3.365   5.269
49020W        W52981  12.316   1.082   4.255
49021W        W52982  11.885   0.366   6.919
49022W        W52983  13.937   0.850   4.600
49023W        W52984  14.304   1.332   4.545
49024W        W52985  12.047   3.549   7.016
49025W        W52986  11.973   0.085   4.251
49026W        W52987  14.294   0.619   5.286
49027W        W52988  14.444   2.868   3.731
49028W        W52989  11.351   2.071   5.433
49029W        W52990  13.268   0.658   3.663
49030W        W52991  14.402   2.990   5.383
49031W        W52992  14.441   0.184   6.133
49032W        W52993  12.886   1.396   6.687
49033W        W52994  12.979   2.735   4.390
49034W        W52995  13.379   2.029   7.130
49035W        W52996  13.053   0.006   5.439
49036W        W52997  11.665   0.909   5.502
49037W        W52998  11.219   2.109   6.276
49038W        W52999  13.078   3.302   4.982
49039W        W53000  14.272   0.899   5.854
49040W        W53001  12.909   3.246   6.621
49041W        W53002  14.252   2.305   3.826
49042W        W53003  12.687   1.788   4.887
49043W        W53004  14.539   0.299   6.628
49044W        W53005  12.688   2.134   6.222
49045W        W53006  12.905   1.020   5.667
49046W        W53007  13.757   1.318   4.505
49047W        W53008  14.044   1.051   4.147
49048W        W53009  13.853   3.091   4.536
49049W        W53010  13.687   2.694   5.332
49050W        W53011  13.583   1.773   4.310
49051W        W53012  13.016   1.983   5.296
49052W        W53013  13.897   1.771   5.363
49053W        W53014  11.272   0.786   5.787
49054W        W53015  14.050   1.838   6.614
49055W        W53016  14.401   3.456   5.760
49056W        W53017  12.331   2.900   5.162
49057W        W53018  13.338   3.433   6.486
49058W        W53019  13.332   0.763   6.250
49059W        W53020  12.539   3.471   6.311
49060W        W53021  14.236   0.425   4.777
49061W        W53022  14.027   1.744   6.078
49062W        W53023  11.010   1.065   6.116
49063W        W53024  13.870   0.860   5.134
49064W        W53025  14.281   1.011   6.911
49065W        W53026  13.166   2.710   5.129
49066W        W53027  12.422   3.301   4.742
49067W        W53028  12.641   0.135   5.810
49068W        W53029  11.669   3.255   3.658
49069W        W53030  12.043   1.721   4.409
49070W        W53031  12.697   2.350   6.722
49071W        W53032  12.527   0.708   4.712
49072W        W53033  13.883   0.305   5.140
49073W        W53034  13.603   3.587   5.468
49074W        W53035  13.015   3.235   5.808
49075W        W53036  12.411   2.272   5.769
49076W        W53037  14.181   2.995   5.895
49077W        W53038  11.875   0.498   4.664
49078W        W53039  11.880   0.726   3.689
49079W        W53040  12.681   1.335   6.083
49080W        W53041  13.529   0.201   5.953
49081W        W53042  10.949   2.044   5.838
49082W        W53043  12.653   1.862   3.996
49083W        W53044  11.921   0.177   3.766
49084W        W53045  12.659   1.258   4.817
49085W        W53046  13.629   0.234   6.516
49086W        W53047  12.217   2.246   6.625
49087W        W53048  13.021   2.028   6.842
49088W        W53049  13.638   2.058   6.735
49089W        W53050  12.922   0.198   7.240
49090W        W53051  12.144   0.814   5.633
49091W        W53052  11.570   0.770   5.031
49092W        W53053  11.356   3.482   4.707
49093W        W53054  12.688   2.812   6.832
49094W        W53055  11.723   2.297   4.191
49095W        W53056  13.403   1.682   5.412
49096W        W53057  13.683   1.481   5.811
49097W        W53058  12.888   2.155   5.745
49098W        W53059  13.358   2.529   3.877
49099W        W53060  13.030   0.550   5.205
49100W        W53061  14.509   0.828   4.473
49101W        W53062  11.003   3.417   6.504
49102W        W53063  11.420   2.643   6.036
49103W        W53064  10.987   3.489   4.268
49104W        W53065  12.886   0.759   6.074
49105W        W53066  12.249   2.782   3.923
49106W        W53067  14.154   3.164   4.109
49107W        W53068  13.129   1.817   4.123
49108W        W53069  11.972   1.008   4.640
49109W        W53070  12.804   0.918   3.692
49110W        W53071  13.388   2.483   6.870
49111W        W53072  13.741   0.389   4.487
49112W        W53073  11.071   0.237   3.935
49113W        W53074  12.357   2.556   6.225
49114W        W53075  12.156   2.472   5.317
49115W        W53076  11.898   2.424   3.715
49116W        W53077  11.139   2.665   4.483
49117W        W53078  11.643   1.735   6.925
49118W        W53079  12.347   0.295   7.111
49119W        W53080  13.056   0.437   6.467
49120W        W53081  12.251   0.205   4.748
49121W        W53082  13.310   0.282   4.253
49122W        W53083  11.255   0.214   5.830
49123W        W53084  11.303   1.177   5.200
49124W        W53085  13.992   0.285   5.606
49125W        W53086  11.414   0.783   4.420
49126W        W53087  13.985   0.471   6.036
49127W        W53088  14.381   1.674   3.721
49128W        W53089  11.673   0.432   5.540
49129W        W53090  12.787   1.004   6.480
49130W        W53091  10.935   0.694   3.958
49131W        W53092  11.721   2.083   6.519
49132W        W53093  13.079   1.481   5.698
49133W        W53094  12.946   3.560   3.994
49134W        W53095  11.092   2.067   3.691
49135W        W53096  11.827   2.478   6.817
49136W        W53097  11.348   1.645   6.448
49137W        W53098  12.339   1.750   6.242
49138W        W53099  14.107   0.109   6.504
49139W        W53100  14.505   1.719   6.495
49140W        W53101  14.493   1.919   4.181
49141W        W53102  13.356   2.251   4.280
49142W        W53103  13.830   3.551   3.975
49143W        W53104  13.007   1.541   7.117
49144W        W53105  11.337   2.508   7.157
49145W        W53106  14.543   0.430   7.109
49146W        W53107  14.261   1.358   5.730
49147W        W53108  12.569   3.488   7.207
49148W        W53109  12.424   0.117   3.934
49149W        W53110  13.963   2.716   3.877
49150W        W53111  11.732   0.809   6.763
49151W        W53112  12.166   2.803   6.625
49152W        W53113  14.292   0.794   6.423
49153W        W53114  13.503   3.453   4.391
49154W        W53115  13.742   2.072   5.758
49155W        W53116  11.992   0.488   6.425
49156W        W53117  12.461   1.557   7.182
49157W        W53118  11.964   2.736   4.376
49158W        W53119  13.719   2.234   4.640
49159W        W53120  11.487   0.860   6.364
49160W        W53121  12.816   2.922   4.828
49161W        W53122  14.566   1.482   5.009
49162W        W53123  12.788   0.115   6.728
49163W        W53124  13.568   2.820   5.807
49164W        W53125  13.871   3.164   5.515
49165W        W53126  13.090   2.966   3.943
49166W        W53127  11.100   2.858   6.785
49167W        W53128  11.843   0.850   6.023
49168W        W53129  11.813   0.198   5.133
49169W        W53130  13.434   1.040   5.825
49170W        W53131  12.232   2.211   4.025
49171W        W53132  14.230   2.153   5.524
49172W        W53133  11.557   2.911   6.947
49173W        W53134  13.944   3.593   4.744
49174W        W53135  12.043   0.613   5.189
49175W        W53136  12.125   3.517   6.029
49176W        W53137  14.192   3.613   7.061
49177W        W53138  13.351   1.801   5.994
49178W        W53139  11.200   1.599   3.909
49179W        W53140  14.334   3.257   4.606
49180W        W53141  14.171   0.581   4.225
49181W        W53142  12.310   0.100   6.628
49182W        W53143  14.016   2.902   5.086
49183W        W53144  14.045   1.458   4.991
49184W        W53145  12.162   1.131   5.207
49185W        W53146  12.407   1.393   6.531
49186W        W53147  13.518   2.546   6.394
49187W        W53148  12.168   1.000   6.506
49188W        W53149  12.147   3.466   5.122
49189W        W53150  11.464   3.425   6.756
49190W        W53151  11.576   2.786   3.886
49191W        W53152  14.093   2.544   4.696
49192W        W53153  11.697   1.336   6.582
49193W        W53154  14.470   1.266   4.063
49194W        W53155  12.215   2.323   4.534
49195W        W53156  13.314   1.705   6.615
49196W        W53157  13.205   1.333   6.159
49197W        W53158  11.765   1.705   6.188
49198W        W53159  13.975   3.593   6.017
49199W        W53160  13.766   0.227   7.011
49200W        W53161  11.430   0.377   6.598
49201W        W53162  11.769   1.400   5.651
49202W        W53163  10.941   2.973   6.318
49203W        W53164  12.526   1.682   5.761
49204W        W53165  12.349   0.707   3.866
49205W        W53166  11.484   1.523   4.647
49206W        W53167  11.255   3.375   6.084
49207W        W53168  14.050   1.601   4.192
49208W        W53169  14.145   0.517   6.878
49209W        W53170  13.581   2.726   4.841
49210W        W53171  11.179   1.650   7.018
49211W        W53172  14.145   0.114   4.314
49212W        W53173  13.665   2.589   4.325
49213W        W53174  12.567   1.647   4.410
49214W        W53175  13.754   0.451   3.933
49215W        W53176  13.819   1.058   6.119
49216W        W53177  11.528   1.651   5.326
49217W        W53178  11.822   2.590   4.975
49218W        W53179  13.585   1.210   4.940
49219W        W53180  12.608   0.589   5.636
49220W        W53181  14.570   2.500   6.147
49221W        W53182  14.488   0.487   5.708
49222W        W53183  11.027   3.317   5.084
49223W        W53184  11.536   2.504   4.620
49224W        W53185  11.451   0.121   7.173
49225W        W53186  12.570   2.974   7.275
49226W        W53187  14.325   1.942   5.065
49227W        W53188  13.679   2.119   3.945
49228W        W53189  12.974   3.640   6.157
49229W        W53190  13.831   2.362   7.194
49230W        W53191  12.646   0.072   4.474
49231W        W53192  13.359   0.941   5.333
49232W        W53193  11.045   2.528   5.665
49233W        W53194  12.298   0.490   4.306
49234W        W53195  12.102   1.974   7.155
49235W        W53196  13.096   0.955   4.869
49236W        W53197  13.301   2.365   5.991
49237W        W53198  11.455   2.970   6.426
49238W        W53199  12.046   2.953   7.149
49239W        W53200  11.897   0.750   4.163
49240W        W53201  13.414   0.892   4.488
49241W        W53202  13.372   3.000   6.725
49242W        W53203  12.057   1.592   5.324
49243W        W53204  11.712   3.290   6.189
49244W        W53205  14.457   3.407   3.790
49245W        W53206  11.320   2.079   6.786
49246W        W53207  13.315   2.341   5.474
49247W        W53208  11.751   1.990   4.716
49248W        W53209  12.122   2.997   6.111
49249W        W53210  12.500   0.416   5.152
49250W        W53211  11.111   2.400   4.082
49251W        W53212  12.630   1.351   3.952
49252W        W53213  11.276   1.900   4.971
49253W        W53214  12.566   0.542   6.435
49254W        W53215  14.238   0.251   3.862
49255W        W53216  14.331   1.997   6.961
49256W        W53217  12.985   3.254   7.113
49257W        W53218  14.543   2.348   6.635
49258W        W53219  13.951   3.146   7.246
49259W        W53220  11.690   3.602   5.724
49260W        W53221  14.549   2.224   4.598
49261W        W53222  13.079   1.491   5.111
49262W        W53223  12.846   0.103   5.001
49263W        W53224  11.905   3.087   4.838
49264W        W53225  12.404   0.828   6.063
49265W        W53226  12.104   0.197   5.532
49266W        W53227  11.167   3.019   4.080
49267W        W53228  12.983   2.383   4.798
49268W        W53229  11.858   3.178   6.677
49269W        W53230  11.335   2.001   4.373
49270W        W53231  11.220   0.544   5.372
49271W        W53232  12.768   2.509   5.429
49272W        W53233  11.020   0.363   4.449
49273W        W53234  13.684   1.569   6.376
49274W        W53235  13.561   0.955   3.948
49275W        W53236  14.078   2.627   5.596
49276W        W53237  12.739   3.111   5.427
49277W        W53238  12.151   3.215   4.338
49278W        W53239  13.433   0.118   3.768
49279W        W53240  11.233   3.378   5.509
49280W        W53241  13.430   1.136   7.144
49281W        W53242  11.413   0.666   7.143
49282W        W53243  11.144   1.266   4.476
49283W        W53244  11.835   1.255   4.201
49284W        W53245  13.598   1.582   7.018
49285W        W53246  13.415   0.149   4.847
49286W        W53247  12.546   3.580   5.350
49287W        W53248  13.760   3.042   6.287
49288W        W53249  13.344   3.191   5.398
49289W        W53250  13.363   2.171   4.992
49290W        W53251  12.825   0.396   4.063
49291W        W53252  14.506   0.024   4.785
49292W        W53253  12.194   1.659   3.948
49293W        W53254  14.360   0.996   4.938
49294W        W53255  13.052   2.166   3.815
49295W        W53256  13.988   2.366   6.563
49296W        W53257  13.642   3.067   4.030
49297W        W53258  12.257   0.742   6.936
49298W        W53259  12.077   1.326   6.177
49299W        W53260  14.169   2.821   6.454
49300W        W53261  13.269   0.771   6.831
49301W        W53262  11.113   1.242   6.608
49302W        W53263  12.873   1.719   6.334
49303W        W53264  11.230   2.477   4.991
49304W        W53265  11.377   1.774   5.881
49305W        W53266  13.694   2.060   6.231
49306W        W53267  13.466   3.440   7.042
49307W        W53268  13.362   1.179   6.595
49308W        W53269  13.639   3.233   5.000
49309W        W53270  12.641   2.953   6.323
49310W        W53271  12.126   3.308   5.592
49311W        W53272  13.931   2.479   6.011
49312W        W53273  12.981   2.551   7.148
49313W        W53274  11.586   2.504   5.487
49314W        W53275  13.932   2.263   5.132
49315W        W53276  13.573   3.329   5.883
49316W        W53277  11.551   3.058   5.753
49317W        W53278  12.572   1.110   6.963
49318W        W53279  13.023   3.276   4.474
49319W        W53280  12.331   2.531   7.112
49320W        W53281  12.457   2.769   4.489
49321W        W53282  11.678   1.509   3.748
49322W        W53283  11.017   3.595  10.648
49323W        W53284  11.393   2.488  10.171
49324W        W53285  14.098   2.218   7.941
49325W        W53286  14.228   3.303   9.968
49326W        W53287  12.146   3.294   7.494
49327W        W53288  12.229   1.446   8.477
49328W        W53289  11.744   1.294   8.641
49329W        W53290  12.735   2.109   8.075
49330W        W53291  12.410   3.201  10.430
49331W        W53292  11.059   0.762  10.393
49332W        W53293  11.821   0.042  10.195
49333W        W53294  13.515   0.430   9.082
49334W        W53295  13.164   1.301   7.652
49335W        W53296  13.734   0.735  10.743
49336W        W53297  11.100   0.527   9.868
49337W        W53298  11.199   3.146  10.889
49338W        W53299  12.721   2.536   7.621
49339W        W53300  11.153   1.319   9.314
49340W        W53301  12.046   1.210  10.551
49341W        W53302  14.505   1.069   9.050
49342W        W53303  14.269   2.112   9.909
49343W        W53304  12.577   1.445   8.936
49344W        W53305  13.123   2.784   9.305
49345W        W53306  11.623   2.218   9.537
49346W        W53307  10.982   1.746   9.108
49347W        W53308  12.018   1.718  10.300
49348W        W53309  14.289   1.501  10.554
49349W        W53310  11.905   2.945   8.999
49350W        W53311  13.026   2.634  10.133
49351W        W53312  12.246   1.274   9.358
49352W        W53313  12.538   2.058   9.001
49353W        W53314  13.535   2.831  10.849
49354W        W53315  12.614   2.151  10.859
49355W        W53316  12.595   1.867  10.337
49356W        W53317  11.004   1.258  10.859
49357W        W53318  13.836   2.793  10.458
49358W        W53319  11.417   0.375   8.456
49359W        W53320  11.944   2.633   9.455
49360W        W53321  14.407   2.416   8.745
49361W        W53322  13.820   0.816   9.312
49362W        W53323  14.105   0.769   7.407
49363W        W53324  14.570   1.570   9.713
49364W        W53325  12.537   3.277   9.466
49365W        W53326  14.311   2.743   7.904
49366W        W53327  11.440   3.529   7.658
49367W        W53328  11.833   3.575   8.334
49368W        W53329  11.630   0.329   9.760
49369W        W53330  14.253   1.347  10.035
49370W        W53331  13.658   1.769   8.494
49371W        W53332  13.624   1.457   7.521
49372W        W53333  12.832   2.601   9.661
49373W        W53334  12.638   0.931   8.860
49374W        W53335  13.238   3.018   9.854
49375W        W53336  14.109   1.809   8.276
49376W        W53337  13.011   0.467   8.292
49377W        W53338  11.668   3.161   7.975
49378W        W53339  11.039   0.660   8.574
49379W        W53340  13.825   1.267   9.048
49380W        W53341  11.283   2.884   8.963
49381W        W53342  12.624   3.234   7.833
49382W        W53343  14.016   1.260   7.297
49383W        W53344  11.039   3.018   9.461
49384W        W53345  11.830   2.590   9.941
49385W        W53346  12.203   1.950   8.560
49386W        W53347  12.225   0.355   9.653
49387W        W53348  14.454   0.117   8.950
49388W        W53349  11.673   1.989   7.418
49389W        W53350  11.328   1.022   7.597
49390W        W53351  11.390   2.978   8.391
49391W        W53352  12.521   2.461   8.639
49392W        W53353  13.853   3.320  10.353
49393W        W53354  12.779   0.962   8.037
49394W        W53355  14.162   3.360   8.809
49395W        W53356  13.839   1.213  10.407
49396W        W53357  14.552   2.869   8.541
49397W        W53358  13.179   2.161  10.025
49398W        W53359  10.945   1.712   8.231
49399W        W53360  12.056   2.127   9.804
49400W        W53361  13.260   1.391   8.182
49401W        W53362  13.137   1.881   8.286
49402W        W53363  11.480   1.301   9.760
49403W        W53364  11.465   1.177  10.682
49404W        W53365  11.355   0.094   8.841
49405W        W53366  13.123   0.441   9.402
49406W        W53367  12.771   0.626  10.565
49407W        W53368  13.126   0.775   7.743
49408W        W53369  14.309   3.168  10.497
49409W        W53370  13.276   0.249  10.536
49410W        W53371  14.295   2.550  10.658
49411W        W53372  13.725   0.717  10.254
49412W        W53373  13.525   0.655   8.524
49413W        W53374  13.918   1.789  10.928
49414W        W53375  11.658   3.365   8.914
49415W        W53376  12.316   1.082   7.900
49416W        W53377  11.885   0.366  10.564
49417W        W53378  13.937   0.850   8.245
49418W        W53379  14.304   1.332   8.190
49419W        W53380  12.047   3.549  10.661
49420W        W53381  11.973   0.085   7.896
49421W        W53382  14.294   0.619   8.931
49422W        W53383  14.444   2.868   7.376
49423W        W53384  11.351   2.071   9.078
49424W        W53385  13.268   0.658   7.308
49425W        W53386  14.402   2.990   9.028
49426W        W53387  14.441   0.184   9.778
49427W        W53388  12.886   1.396  10.332
49428W        W53389  12.979   2.735   8.035
49429W        W53390  13.379   2.029  10.775
49430W        W53391  13.053   0.006   9.084
49431W        W53392  11.665   0.909   9.147
49432W        W53393  11.219   2.109   9.921
49433W        W53394  13.078   3.302   8.627
49434W        W53395  14.272   0.899   9.499
49435W        W53396  12.909   3.246  10.266
49436W        W53397  14.252   2.305   7.471
49437W        W53398  12.687   1.788   8.532
49438W        W53399  14.539   0.299  10.273
49439W        W53400  12.688   2.134   9.867
49440W        W53401  12.905   1.020   9.312
49441W        W53402  13.757   1.318   8.150
49442W        W53403  14.044   1.051   7.792
49443W        W53404  13.853   3.091   8.181
49444W        W53405  13.687   2.694   8.977
49445W        W53406  13.583   1.773   7.955
49446W        W53407  13.016   1.983   8.941
49447W        W53408  13.897   1.771   9.008
49448W        W53409  11.272   0.786   9.432
49449W        W53410  14.050   1.838  10.259
49450W        W53411  14.401   3.456   9.405
49451W        W53412  12.331   2.900   8.807
49452W        W53413  13.338   3.433  10.131
49453W        W53414  13.332   0.763   9.895
49454W        W53415  12.539   3.471   9.956
49455W        W53416  14.236   0.425   8.422
49456W        W53417  14.027   1.744   9.723
49457W        W53418  11.010   1.065   9.761
49458W        W53419  13.870   0.860   8.779
49459W        W53420  14.281   1.011  10.556
49460W        W53421  13.166   2.710   8.774
49461W        W53422  12.422   3.301   8.387
49462W        W53423  11.537   0.481   7.645
49463W        W53424  12.641   0.135   9.455
49464W        W53425  11.669   3.255   7.303
49465W        W53426  12.043   1.721   8.054
49466W        W53427  12.697   2.350  10.367
49467W        W53428  12.527   0.708   8.357
49468W        W53429  13.883   0.305   8.785
49469W        W53430  13.603   3.587   9.113
49470W        W53431  13.015   3.235   9.453
49471W        W53432  12.411   2.272   9.414
49472W        W53433  14.181   2.995   9.540
49473W        W53434  11.875   0.498   8.309
49474W        W53435  12.397   2.795   9.269
49475W        W53436  11.880   0.726   7.334
49476W        W53437  12.681   1.335   9.728
49477W        W53438  13.529   0.201   9.598
49478W        W53439  10.949   2.044   9.483
49479W        W53440  12.653   1.862   7.641
49480W        W53441  11.921   0.177   7.411
49481W        W53442  12.659   1.258   8.462
49482W        W53443  13.629   0.234  10.161
49483W        W53444  12.217   2.246  10.270
49484W        W53445  13.021   2.028  10.487
49485W        W53446  13.638   2.058  10.380
49486W        W53447  12.922   0.198  10.885
49487W        W53448  12.144   0.814   9.278
49488W        W53449  11.570   0.770   8.676
49489W        W53450  11.356   3.482   8.352
49490W        W53451  12.688   2.812  10.477
49491W        W53452  11.723   2.297   7.836
49492W        W53453  13.403   1.682   9.057
49493W        W53454  13.683   1.481   9.456
49494W        W53455  12.888   2.155   9.390
49495W        W53456  13.358   2.529   7.522
49496W        W53457  13.030   0.550   8.850
49497W        W53458  14.509   0.828   8.118
49498W        W53459  11.003   3.417  10.149
49499W        W53460  11.420   2.643   9.681
49500W        W53461  10.987   3.489   7.913
49501W        W53462  12.886   0.759   9.719
49502W        W53463  12.249   2.782   7.568
49503W        W53464  14.154   3.164   7.754
49504W        W53465  13.129   1.817   7.768
49505W        W53466  11.972   1.008   8.285
49506W        W53467  12.804   0.918   7.337
49507W        W53468  13.388   2.483  10.515
49508W        W53469  13.741   0.389   8.132
49509W        W53470  11.071   0.237   7.580
49510W        W53471  12.357   2.556   9.870
49511W        W53472  12.156   2.472   8.962
49512W        W53473  11.898   2.424   7.360
49513W        W53474  11.139   2.665   8.128
49514W        W53475  11.643   1.735  10.570
49515W        W53476  12.347   0.295  10.756
49516W        W53477  13.056   0.437  10.112
49517W        W53478  12.251   0.205   8.393
49518W        W53479  13.310   0.282   7.898
49519W        W53480  11.255   0.214   9.475
49520W        W53481  11.303   1.177   8.845
49521W        W53482  13.992   0.285   9.251
49522W        W53483  11.414   0.783   8.065
49523W        W53484  13.985   0.471   9.681
49524W        W53485  14.381   1.674   7.366
49525W        W53486  11.673   0.432   9.185
49526W        W53487  12.787   1.004  10.125
49527W        W53488  10.935   0.694   7.603
49528W        W53489  11.721   2.083  10.164
49529W        W53490  13.079   1.481   9.343
49530W        W53491  12.946   3.560   7.639
49531W        W53492  11.092   2.067   7.336
49532W        W53493  11.827   2.478  10.462
49533W        W53494  11.348   1.645  10.093
49534W        W53495  12.339   1.750   9.887
49535W        W53496  14.107   0.109  10.149
49536W        W53497  14.505   1.719  10.140
49537W        W53498  14.493   1.919   7.826
49538W        W53499  13.356   2.251   7.925
49539W        W53500  13.830   3.551   7.620
49540W        W53501  13.007   1.541  10.762
49541W        W53502  11.337   2.508  10.802
49542W        W53503  14.543   0.430  10.754
49543W        W53504  14.261   1.358   9.375
49544W        W53505  12.569   3.488  10.852
49545W        W53506  12.424   0.117   7.579
49546W        W53507  13.963   2.716   7.522
49547W        W53508  11.732   0.809  10.408
49548W        W53509  12.166   2.803  10.270
49549W        W53510  14.292   0.794  10.068
49550W        W53511  13.503   3.453   8.036
49551W        W53512  13.742   2.072   9.403
49552W        W53513  11.992   0.488  10.070
49553W        W53514  12.461   1.557  10.827
49554W        W53515  11.964   2.736   8.021
49555W        W53516  13.719   2.234   8.285
49556W        W53517  11.487   0.860  10.009
49557W        W53518  12.816   2.922   8.473
49558W        W53519  14.566   1.482   8.654
49559W        W53520  12.788   0.115  10.373
49560W        W53521  13.568   2.820   9.452
49561W        W53522  13.871   3.164   9.160
49562W        W53523  13.090   2.966   7.588
49563W        W53524  11.100   2.858  10.430
49564W        W53525  11.843   0.850   9.668
49565W        W53526  11.813   0.198   8.778
49566W        W53527  13.434   1.040   9.470
49567W        W53528  12.232   2.211   7.670
49568W        W53529  14.230   2.153   9.169
49569W        W53530  11.557   2.911  10.592
49570W        W53531  13.944   3.593   8.389
49571W        W53532  12.043   0.613   8.834
49572W        W53533  11.812   2.106   8.924
49573W        W53534  12.125   3.517   9.674
49574W        W53535  14.192   3.613  10.706
49575W        W53536  13.351   1.801   9.639
49576W        W53537  11.200   1.599   7.554
49577W        W53538  14.334   3.257   8.251
49578W        W53539  14.171   0.581   7.870
49579W        W53540  12.310   0.100  10.273
49580W        W53541  14.016   2.902   8.731
49581W        W53542  14.045   1.458   8.636
49582W        W53543  12.162   1.131   8.852
49583W        W53544  12.407   1.393  10.176
49584W        W53545  13.518   2.546  10.039
49585W        W53546  12.168   1.000  10.151
49586W        W53547  12.147   3.466   8.767
49587W        W53548  11.464   3.425  10.401
49588W        W53549  11.576   2.786   7.531
49589W        W53550  14.093   2.544   8.341
49590W        W53551  11.697   1.336  10.227
49591W        W53552  14.470   1.266   7.708
49592W        W53553  12.215   2.323   8.179
49593W        W53554  13.314   1.705  10.260
49594W        W53555  13.205   1.333   9.804
49595W        W53556  11.765   1.705   9.833
49596W        W53557  13.975   3.593   9.662
49597W        W53558  13.766   0.227  10.656
49598W        W53559  11.430   0.377  10.243
49599W        W53560  11.769   1.400   9.296
49600W        W53561  12.138   1.214   7.418
49601W        W53562  10.941   2.973   9.963
49602W        W53563  12.526   1.682   9.406
49603W        W53564  12.349   0.707   7.511
49604W        W53565  11.484   1.523   8.292
49605W        W53566  11.255   3.375   9.729
49606W        W53567  14.050   1.601   7.837
49607W        W53568  14.145   0.517  10.523
49608W        W53569  13.581   2.726   8.486
49609W        W53570  11.179   1.650  10.663
49610W        W53571  14.145   0.114   7.959
49611W        W53572  13.665   2.589   7.970
49612W        W53573  12.567   1.647   8.055
49613W        W53574  13.754   0.451   7.578
49614W        W53575  13.819   1.058   9.764
49615W        W53576  11.528   1.651   8.971
49616W        W53577  11.822   2.590   8.620
49617W        W53578  13.585   1.210   8.585
49618W        W53579  12.608   0.589   9.281
49619W        W53580  14.570   2.500   9.792
49620W        W53581  14.488   0.487   9.353
49621W        W53582  11.027   3.317   8.729
49622W        W53583  11.536   2.504   8.265
49623W        W53584  11.451   0.121  10.818
49624W        W53585  12.570   2.974  10.920
49625W        W53586  14.325   1.942   8.710
49626W        W53587  13.679   2.119   7.590
49627W        W53588  12.974   3.640   9.802
49628W        W53589  13.831   2.362  10.839
49629W        W53590  12.646   0.072   8.119
49630W        W53591  13.359   0.941   8.978
49631W        W53592  11.045   2.528   9.310
49632W        W53593  12.298   0.490   7.951
49633W        W53594  12.102   1.974  10.800
49634W        W53595  13.096   0.955   8.514
49635W        W53596  13.301   2.365   9.636
49636W        W53597  11.455   2.970  10.071
49637W        W53598  12.046   2.953  10.794
49638W        W53599  11.897   0.750   7.808
49639W        W53600  13.414   0.892   8.133
49640W        W53601  13.372   3.000  10.370
49641W        W53602  12.057   1.592   8.969
49642W        W53603  11.712   3.290   9.834
49643W        W53604  14.457   3.407   7.435
49644W        W53605  11.320   2.079  10.431
49645W        W53606  13.315   2.341   9.119
49646W        W53607  11.751   1.990   8.361
49647W        W53608  12.122   2.997   9.756
49648W        W53609  12.500   0.416   8.797
49649W        W53610  11.111   2.400   7.727
49650W        W53611  12.630   1.351   7.597
49651W        W53612  11.276   1.900   8.616
49652W        W53613  12.566   0.542  10.080
49653W        W53614  14.238   0.251   7.507
49654W        W53615  14.331   1.997  10.606
49655W        W53616  12.985   3.254  10.758
49656W        W53617  14.543   2.348  10.280
49657W        W53618  13.951   3.146  10.891
49658W        W53619  11.690   3.602   9.369
49659W        W53620  14.549   2.224   8.243
49660W        W53621  13.079   1.491   8.756
49661W        W53622  12.846   0.103   8.646
49662W        W53623  11.905   3.087   8.483
49663W        W53624  12.404   0.828   9.708
49664W        W53625  12.104   0.197   9.177
49665W        W53626  11.167   3.019   7.725
49666W        W53627  12.983   2.383   8.443
49667W        W53628  11.858   3.178  10.322
49668W        W53629  11.335   2.001   8.018
49669W        W53630  11.220   0.544   9.017
49670W        W53631  12.768   2.509   9.074
49671W        W53632  11.020   0.363   8.094
49672W        W53633  13.684   1.569  10.021
49673W        W53634  13.561   0.955   7.593
49674W        W53635  14.078   2.627   9.241
49675W        W53636  12.739   3.111   9.072
49676W        W53637  12.151   3.215   7.983
49677W        W53638  13.433   0.118   7.413
49678W        W53639  11.233   3.378   9.154
49679W        W53640  13.430   1.136  10.789
49680W        W53641  11.413   0.666  10.788
49681W        W53642  11.144   1.266   8.121
49682W        W53643  11.835   1.255   7.846
49683W        W53644  13.598   1.582  10.663
49684W        W53645  11.941   1.863   9.372
49685W        W53646  13.415   0.149   8.492
49686W        W53647  12.546   3.580   8.995
49687W        W53648  13.760   3.042   9.932
49688W        W53649  13.344   3.191   9.043
49689W        W53650  13.363   2.171   8.637
49690W        W53651  12.825   0.396   7.708
49691W        W53652  14.506   0.024   8.430
49692W        W53653  12.194   1.659   7.593
49693W        W53654  14.360   0.996   8.583
49694W        W53655  13.052   2.166   7.460
49695W        W53656  13.988   2.366  10.208
49696W        W53657  13.642   3.067   7.675
49697W        W53658  12.257   0.742  10.581
49698W        W53659  12.077   1.326   9.822
49699W        W53660  14.169   2.821  10.099
49700W        W53661  13.269   0.771  10.476
49701W        W53662  11.113   1.242  10.253
49702W        W53663  12.873   1.719   9.979
49703W        W53664  11.230   2.477   8.636
49704W        W53665  11.377   1.774   9.526
49705W        W53666  13.694   2.060   9.876
49706W        W53667  13.466   3.440  10.687
49707W        W53668  13.362   1.179  10.240
49708W        W53669  13.639   3.233   8.645
49709W        W53670  12.641   2.953   9.968
49710W        W53671  12.126   3.308   9.237
49711W        W53672  13.931   2.479   9.656
49712W        W53673  12.981   2.551  10.793
49713W        W53674  11.586   2.504   9.132
49714W        W53675  13.932   2.263   8.777
49715W        W53676  13.573   3.329   9.528
49716W        W53677  11.551   3.058   9.398
49717W        W53678  12.572   1.110  10.608
49718W        W53679  13.023   3.276   8.119
49719W        W53680  12.331   2.531  10.757
49720W        W53681  12.457   2.769   8.134
49721W        W53682  11.678   1.509   7.393
49722W        W53683  11.017   3.595  14.292
49723W        W53684  14.098   2.218  11.585
49724W        W53685  14.228   3.303  13.612
49725W        W53686  12.146   3.294  11.138
49726W        W53687  12.229   1.446  12.121
49727W        W53688  11.744   1.294  12.285
49728W        W53689  12.735   2.109  11.719
49729W        W53690  12.410   3.201  14.074
49730W        W53691  11.059   0.762  14.037
49731W        W53692  11.821   0.042  13.839
49732W        W53693  13.515   0.430  12.726
49733W        W53694  13.164   1.301  11.296
49734W        W53695  13.734   0.735  14.387
49735W        W53696  11.100   0.527  13.512
49736W        W53697  11.199   3.146  14.533
49737W        W53698  12.721   2.536  11.265
49738W        W53699  11.153   1.319  12.958
49739W        W53700  12.046   1.210  14.195
49740W        W53701  14.505   1.069  12.694
49741W        W53702  14.269   2.112  13.553
49742W        W53703  12.577   1.445  12.580
49743W        W53704  13.123   2.784  12.949
49744W        W53705  11.623   2.218  13.181
49745W        W53706  10.982   1.746  12.752
49746W        W53707  12.018   1.718  13.944
49747W        W53708  14.289   1.501  14.198
49748W        W53709  11.905   2.945  12.643
49749W        W53710  13.026   2.634  13.777
49750W        W53711  12.246   1.274  13.002
49751W        W53712  12.538   2.058  12.645
49752W        W53713  13.535   2.831  14.493
49753W        W53714  12.614   2.151  14.503
49754W        W53715  12.595   1.867  13.981
49755W        W53716  11.004   1.258  14.503
49756W        W53717  13.836   2.793  14.102
49757W        W53718  11.417   0.375  12.100
49758W        W53719  11.944   2.633  13.099
49759W        W53720  14.407   2.416  12.389
49760W        W53721  13.820   0.816  12.956
49761W        W53722  14.105   0.769  11.051
49762W        W53723  14.570   1.570  13.357
49763W        W53724  12.537   3.277  13.110
49764W        W53725  14.311   2.743  11.548
49765W        W53726  11.440   3.529  11.302
49766W        W53727  11.833   3.575  11.978
49767W        W53728  11.630   0.329  13.404
49768W        W53729  14.253   1.347  13.679
49769W        W53730  13.658   1.769  12.138
49770W        W53731  13.624   1.457  11.165
49771W        W53732  12.832   2.601  13.305
49772W        W53733  12.638   0.931  12.504
49773W        W53734  13.238   3.018  13.498
49774W        W53735  14.109   1.809  11.920
49775W        W53736  13.011   0.467  11.936
49776W        W53737  11.668   3.161  11.619
49777W        W53738  11.039   0.660  12.218
49778W        W53739  13.825   1.267  12.692
49779W        W53740  11.283   2.884  12.607
49780W        W53741  12.624   3.234  11.477
49781W        W53742  14.016   1.260  10.941
49782W        W53743  11.039   3.018  13.105
49783W        W53744  11.830   2.590  13.585
49784W        W53745  12.203   1.950  12.204
49785W        W53746  12.225   0.355  13.297
49786W        W53747  14.454   0.117  12.594
49787W        W53748  11.673   1.989  11.062
49788W        W53749  11.328   1.022  11.241
49789W        W53750  11.390   2.978  12.035
49790W        W53751  12.521   2.461  12.283
49791W        W53752  13.853   3.320  13.997
49792W        W53753  12.779   0.962  11.681
49793W        W53754  14.162   3.360  12.453
49794W        W53755  13.839   1.213  14.051
49795W        W53756  14.552   2.869  12.185
49796W        W53757  13.179   2.161  13.669
49797W        W53758  10.945   1.712  11.875
49798W        W53759  12.056   2.127  13.448
49799W        W53760  13.260   1.391  11.826
49800W        W53761  13.137   1.881  11.930
49801W        W53762  11.480   1.301  13.404
49802W        W53763  11.465   1.177  14.326
49803W        W53764  11.355   0.094  12.485
49804W        W53765  13.123   0.441  13.046
49805W        W53766  12.771   0.626  14.209
49806W        W53767  13.126   0.775  11.387
49807W        W53768  14.309   3.168  14.141
49808W        W53769  13.276   0.249  14.180
49809W        W53770  14.295   2.550  14.302
49810W        W53771  13.725   0.717  13.898
49811W        W53772  13.525   0.655  12.168
49812W        W53773  13.918   1.789  14.572
49813W        W53774  11.658   3.365  12.558
49814W        W53775  12.316   1.082  11.544
49815W        W53776  11.885   0.366  14.208
49816W        W53777  13.937   0.850  11.889
49817W        W53778  14.304   1.332  11.834
49818W        W53779  12.047   3.549  14.305
49819W        W53780  11.973   0.085  11.540
49820W        W53781  14.294   0.619  12.575
49821W        W53782  14.444   2.868  11.020
49822W        W53783  11.351   2.071  12.722
49823W        W53784  13.268   0.658  10.952
49824W        W53785  14.402   2.990  12.672
49825W        W53786  14.441   0.184  13.422
49826W        W53787  12.886   1.396  13.976
49827W        W53788  12.979   2.735  11.679
49828W        W53789  13.379   2.029  14.419
49829W        W53790  13.053   0.006  12.728
49830W        W53791  11.665   0.909  12.791
49831W        W53792  11.219   2.109  13.565
49832W        W53793  13.078   3.302  12.271
49833W        W53794  14.272   0.899  13.143
49834W        W53795  12.909   3.246  13.910
49835W        W53796  14.252   2.305  11.115
49836W        W53797  12.687   1.788  12.176
49837W        W53798  14.539   0.299  13.917
49838W        W53799  12.688   2.134  13.511
49839W        W53800  12.905   1.020  12.956
49840W        W53801  13.757   1.318  11.794
49841W        W53802  14.044   1.051  11.436
49842W        W53803  13.853   3.091  11.825
49843W        W53804  13.687   2.694  12.621
49844W        W53805  13.583   1.773  11.599
49845W        W53806  13.016   1.983  12.585
49846W        W53807  13.897   1.771  12.652
49847W        W53808  11.272   0.786  13.076
49848W        W53809  14.050   1.838  13.903
49849W        W53810  14.401   3.456  13.049
49850W        W53811  12.331   2.900  12.451
49851W        W53812  13.338   3.433  13.775
49852W        W53813  13.332   0.763  13.539
49853W        W53814  12.539   3.471  13.600
49854W        W53815  14.236   0.425  12.066
49855W        W53816  14.027   1.744  13.367
49856W        W53817  11.010   1.065  13.405
49857W        W53818  13.870   0.860  12.423
49858W        W53819  14.281   1.011  14.200
49859W        W53820  13.166   2.710  12.418
49860W        W53821  12.422   3.301  12.031
49861W        W53822  11.537   0.481  11.289
49862W        W53823  12.641   0.135  13.099
49863W        W53824  11.669   3.255  10.947
49864W        W53825  12.043   1.721  11.698
49865W        W53826  12.697   2.350  14.011
49866W        W53827  12.527   0.708  12.001
49867W        W53828  13.883   0.305  12.429
49868W        W53829  13.603   3.587  12.757
49869W        W53830  13.015   3.235  13.097
49870W        W53831  12.411   2.272  13.058
49871W        W53832  14.181   2.995  13.184
49872W        W53833  11.875   0.498  11.953
49873W        W53834  12.397   2.795  12.913
49874W        W53835  11.880   0.726  10.978
49875W        W53836  12.681   1.335  13.372
49876W        W53837  13.529   0.201  13.242
49877W        W53838  10.949   2.044  13.127
49878W        W53839  12.653   1.862  11.285
49879W        W53840  11.921   0.177  11.055
49880W        W53841  12.659   1.258  12.106
49881W        W53842  13.629   0.234  13.805
49882W        W53843  12.217   2.246  13.914
49883W        W53844  13.021   2.028  14.131
49884W        W53845  13.638   2.058  14.024
49885W        W53846  12.922   0.198  14.529
49886W        W53847  12.144   0.814  12.922
49887W        W53848  11.570   0.770  12.320
49888W        W53849  11.356   3.482  11.996
49889W        W53850  12.688   2.812  14.121
49890W        W53851  11.723   2.297  11.480
49891W        W53852  13.403   1.682  12.701
49892W        W53853  13.683   1.481  13.100
49893W        W53854  12.888   2.155  13.034
49894W        W53855  13.358   2.529  11.166
49895W        W53856  13.030   0.550  12.494
49896W        W53857  14.509   0.828  11.762
49897W        W53858  11.003   3.417  13.793
49898W        W53859  11.420   2.643  13.325
49899W        W53860  10.987   3.489  11.557
49900W        W53861  12.886   0.759  13.363
49901W        W53862  12.249   2.782  11.212
49902W        W53863  14.154   3.164  11.398
49903W        W53864  13.129   1.817  11.412
49904W        W53865  11.972   1.008  11.929
49905W        W53866  12.804   0.918  10.981
49906W        W53867  13.388   2.483  14.159
49907W        W53868  13.741   0.389  11.776
49908W        W53869  11.071   0.237  11.224
49909W        W53870  12.357   2.556  13.514
49910W        W53871  12.156   2.472  12.606
49911W        W53872  11.898   2.424  11.004
49912W        W53873  11.139   2.665  11.772
49913W        W53874  11.643   1.735  14.214
49914W        W53875  12.347   0.295  14.400
49915W        W53876  13.056   0.437  13.756
49916W        W53877  12.251   0.205  12.037
49917W        W53878  13.310   0.282  11.542
49918W        W53879  11.255   0.214  13.119
49919W        W53880  11.303   1.177  12.489
49920W        W53881  13.992   0.285  12.895
49921W        W53882  11.414   0.783  11.709
49922W        W53883  13.985   0.471  13.325
49923W        W53884  14.381   1.674  11.010
49924W        W53885  11.673   0.432  12.829
49925W        W53886  12.787   1.004  13.769
49926W        W53887  10.935   0.694  11.247
49927W        W53888  11.721   2.083  13.808
49928W        W53889  13.079   1.481  12.987
49929W        W53890  12.946   3.560  11.283
49930W        W53891  11.092   2.067  10.980
49931W        W53892  11.827   2.478  14.106
49932W        W53893  11.348   1.645  13.737
49933W        W53894  12.339   1.750  13.531
49934W        W53895  14.107   0.109  13.793
49935W        W53896  14.505   1.719  13.784
49936W        W53897  14.493   1.919  11.470
49937W        W53898  13.356   2.251  11.569
49938W        W53899  13.830   3.551  11.264
49939W        W53900  13.007   1.541  14.406
49940W        W53901  11.337   2.508  14.446
49941W        W53902  14.543   0.430  14.398
49942W        W53903  14.261   1.358  13.019
49943W        W53904  12.569   3.488  14.496
49944W        W53905  12.424   0.117  11.223
49945W        W53906  13.963   2.716  11.166
49946W        W53907  11.732   0.809  14.052
49947W        W53908  12.166   2.803  13.914
49948W        W53909  14.292   0.794  13.712
49949W        W53910  13.503   3.453  11.680
49950W        W53911  13.742   2.072  13.047
49951W        W53912  11.992   0.488  13.714
49952W        W53913  12.461   1.557  14.471
49953W        W53914  11.964   2.736  11.665
49954W        W53915  13.719   2.234  11.929
49955W        W53916  11.487   0.860  13.653
49956W        W53917  12.816   2.922  12.117
49957W        W53918  14.566   1.482  12.298
49958W        W53919  12.788   0.115  14.017
49959W        W53920  13.568   2.820  13.096
49960W        W53921  13.871   3.164  12.804
49961W        W53922  13.090   2.966  11.232
49962W        W53923  11.100   2.858  14.074
49963W        W53924  11.843   0.850  13.312
49964W        W53925  11.813   0.198  12.422
49965W        W53926  13.434   1.040  13.114
49966W        W53927  12.232   2.211  11.314
49967W        W53928  14.230   2.153  12.813
49968W        W53929  11.557   2.911  14.236
49969W        W53930  13.944   3.593  12.033
49970W        W53931  12.043   0.613  12.478
49971W        W53932  11.812   2.106  12.568
49972W        W53933  12.125   3.517  13.318
49973W        W53934  14.192   3.613  14.350
49974W        W53935  13.351   1.801  13.283
49975W        W53936  11.200   1.599  11.198
49976W        W53937  14.334   3.257  11.895
49977W        W53938  14.171   0.581  11.514
49978W        W53939  12.310   0.100  13.917
49979W        W53940  14.016   2.902  12.375
49980W        W53941  14.045   1.458  12.280
49981W        W53942  12.162   1.131  12.496
49982W        W53943  12.407   1.393  13.820
49983W        W53944  13.518   2.546  13.683
49984W        W53945  12.168   1.000  13.795
49985W        W53946  12.147   3.466  12.411
49986W        W53947  11.464   3.425  14.045
49987W        W53948  11.576   2.786  11.175
49988W        W53949  14.093   2.544  11.985
49989W        W53950  11.697   1.336  13.871
49990W        W53951  14.470   1.266  11.352
49991W        W53952  12.215   2.323  11.823
49992W        W53953  13.314   1.705  13.904
49993W        W53954  13.205   1.333  13.448
49994W        W53955  11.765   1.705  13.477
49995W        W53956  13.975   3.593  13.306
49996W        W53957  13.766   0.227  14.300
49997W        W53958  11.430   0.377  13.887
49998W        W53959  11.769   1.400  12.940
49999W        W53960  12.138   1.214  11.062
50000W        W53961  10.941   2.973  13.607
50001W        W53962  12.526   1.682  13.050
50002W        W53963  12.349   0.707  11.155
50003W        W53964  11.484   1.523  11.936
50004W        W53965  11.255   3.375  13.373
50005W        W53966  14.050   1.601  11.481
50006W        W53967  14.145   0.517  14.167
50007W        W53968  13.581   2.726  12.130
50008W        W53969  11.179   1.650  14.307
50009W        W53970  14.145   0.114  11.603
50010W        W53971  13.665   2.589  11.614
50011W        W53972  12.567   1.647  11.699
50012W        W53973  13.754   0.451  11.222
50013W        W53974  13.819   1.058  13.408
50014W        W53975  11.528   1.651  12.615
50015W        W53976  11.822   2.590  12.264
50016W        W53977  13.585   1.210  12.229
50017W        W53978  12.608   0.589  12.925
50018W        W53979  14.570   2.500  13.436
50019W        W53980  14.488   0.487  12.997
50020W        W53981  11.027   3.317  12.373
50021W        W53982  11.536   2.504  11.909
50022W        W53983  11.451   0.121  14.462
50023W        W53984  12.570   2.974  14.564
50024W        W53985  14.325   1.942  12.354
50025W        W53986  13.679   2.119  11.234
50026W        W53987  12.974   3.640  13.446
50027W        W53988  13.831   2.362  14.483
50028W        W53989  12.646   0.072  11.763
50029W        W53990  13.359   0.941  12.622
50030W        W53991  11.045   2.528  12.954
50031W        W53992  12.298   0.490  11.595
50032W        W53993  12.102   1.974  14.444
50033W        W53994  13.096   0.955  12.158
50034W        W53995  13.301   2.365  13.280
50035W        W53996  12.046   2.953  14.438
50036W        W53997  11.897   0.750  11.452
50037W        W53998  13.414   0.892  11.777
50038W        W53999  13.372   3.000  14.014
50039W        W54000  12.057   1.592  12.613
50040W        W54001  11.712   3.290  13.478
50041W        W54002  14.457   3.407  11.079
50042W        W54003  11.320   2.079  14.075
50043W        W54004  13.315   2.341  12.763
50044W        W54005  11.751   1.990  12.005
50045W        W54006  12.500   0.416  12.441
50046W        W54007  11.111   2.400  11.371
50047W        W54008  12.630   1.351  11.241
50048W        W54009  11.276   1.900  12.260
50049W        W54010  12.566   0.542  13.724
50050W        W54011  14.238   0.251  11.151
50051W        W54012  14.331   1.997  14.250
50052W        W54013  12.985   3.254  14.402
50053W        W54014  14.543   2.348  13.924
50054W        W54015  13.951   3.146  14.535
50055W        W54016  11.690   3.602  13.013
50056W        W54017  14.549   2.224  11.887
50057W        W54018  13.079   1.491  12.400
50058W        W54019  12.846   0.103  12.290
50059W        W54020  11.905   3.087  12.127
50060W        W54021  12.404   0.828  13.352
50061W        W54022  12.104   0.197  12.821
50062W        W54023  11.167   3.019  11.369
50063W        W54024  12.983   2.383  12.087
50064W        W54025  11.858   3.178  13.966
50065W        W54026  11.335   2.001  11.662
50066W        W54027  11.220   0.544  12.661
50067W        W54028  12.768   2.509  12.718
50068W        W54029  11.020   0.363  11.738
50069W        W54030  13.684   1.569  13.665
50070W        W54031  13.561   0.955  11.237
50071W        W54032  14.078   2.627  12.885
50072W        W54033  12.739   3.111  12.716
50073W        W54034  12.151   3.215  11.627
50074W        W54035  13.433   0.118  11.057
50075W        W54036  11.233   3.378  12.798
50076W        W54037  13.430   1.136  14.433
50077W        W54038  11.413   0.666  14.432
50078W        W54039  11.144   1.266  11.765
50079W        W54040  11.835   1.255  11.490
50080W        W54041  13.598   1.582  14.307
50081W        W54042  11.941   1.863  13.016
50082W        W54043  13.415   0.149  12.136
50083W        W54044  12.546   3.580  12.639
50084W        W54045  13.760   3.042  13.576
50085W        W54046  13.344   3.191  12.687
50086W        W54047  13.363   2.171  12.281
50087W        W54048  12.825   0.396  11.352
50088W        W54049  14.506   0.024  12.074
50089W        W54050  12.194   1.659  11.237
50090W        W54051  14.360   0.996  12.227
50091W        W54052  13.052   2.166  11.104
50092W        W54053  13.988   2.366  13.852
50093W        W54054  13.642   3.067  11.319
50094W        W54055  12.257   0.742  14.225
50095W        W54056  12.077   1.326  13.466
50096W        W54057  14.169   2.821  13.743
50097W        W54058  13.269   0.771  14.120
50098W        W54059  11.113   1.242  13.897
50099W        W54060  12.873   1.719  13.623
50100W        W54061  11.230   2.477  12.280
50101W        W54062  11.377   1.774  13.170
50102W        W54063  13.694   2.060  13.520
50103W        W54064  13.466   3.440  14.331
50104W        W54065  13.362   1.179  13.884
50105W        W54066  13.639   3.233  12.289
50106W        W54067  12.641   2.953  13.612
50107W        W54068  12.126   3.308  12.881
50108W        W54069  13.931   2.479  13.300
50109W        W54070  12.981   2.551  14.437
50110W        W54071  11.586   2.504  12.776
50111W        W54072  13.932   2.263  12.421
50112W        W54073  13.573   3.329  13.172
50113W        W54074  12.572   1.110  14.252
50114W        W54075  13.023   3.276  11.763
50115W        W54076  12.331   2.531  14.401
50116W        W54077  12.457   2.769  11.778
50117W        W54078  11.678   1.509  11.037
50118W        W54079  11.017   3.595  17.936
50119W        W54080  11.393   2.488  17.459
50120W        W54081  14.098   2.218  15.229
50121W        W54082  14.228   3.303  17.256
50122W        W54083  12.146   3.294  14.782
50123W        W54084  12.229   1.446  15.765
50124W        W54085  11.744   1.294  15.929
50125W        W54086  12.735   2.109  15.363
50126W        W54087  12.410   3.201  17.718
50127W        W54088  11.059   0.762  17.681
50128W        W54089  11.821   0.042  17.483
50129W        W54090  13.515   0.430  16.370
50130W        W54091  13.164   1.301  14.940
50131W        W54092  13.734   0.735  18.031
50132W        W54093  11.100   0.527  17.156
50133W        W54094  11.199   3.146  18.177
50134W        W54095  12.721   2.536  14.909
50135W        W54096  11.153   1.319  16.602
50136W        W54097  12.046   1.210  17.839
50137W        W54098  14.505   1.069  16.338
50138W        W54099  14.269   2.112  17.197
50139W        W54100  12.577   1.445  16.224
50140W        W54101  13.123   2.784  16.593
50141W        W54102  11.623   2.218  16.825
50142W        W54103  10.982   1.746  16.396
50143W        W54104  12.018   1.718  17.588
50144W        W54105  14.289   1.501  17.842
50145W        W54106  11.905   2.945  16.287
50146W        W54107  13.026   2.634  17.421
50147W        W54108  12.246   1.274  16.646
50148W        W54109  12.538   2.058  16.289
50149W        W54110  13.535   2.831  18.137
50150W        W54111  12.614   2.151  18.147
50151W        W54112  12.595   1.867  17.625
50152W        W54113  11.004   1.258  18.147
50153W        W54114  13.836   2.793  17.746
50154W        W54115  11.417   0.375  15.744
50155W        W54116  11.944   2.633  16.743
50156W        W54117  14.407   2.416  16.033
50157W        W54118  13.820   0.816  16.600
50158W        W54119  14.105   0.769  14.695
50159W        W54120  14.570   1.570  17.001
50160W        W54121  12.537   3.277  16.754
50161W        W54122  14.311   2.743  15.192
50162W        W54123  11.440   3.529  14.946
50163W        W54124  11.833   3.575  15.622
50164W        W54125  11.630   0.329  17.048
50165W        W54126  14.253   1.347  17.323
50166W        W54127  13.658   1.769  15.782
50167W        W54128  13.624   1.457  14.809
50168W        W54129  12.832   2.601  16.949
50169W        W54130  12.638   0.931  16.148
50170W        W54131  13.238   3.018  17.142
50171W        W54132  14.109   1.809  15.564
50172W        W54133  13.011   0.467  15.580
50173W        W54134  11.668   3.161  15.263
50174W        W54135  11.039   0.660  15.862
50175W        W54136  13.825   1.267  16.336
50176W        W54137  11.283   2.884  16.251
50177W        W54138  12.624   3.234  15.121
50178W        W54139  14.016   1.260  14.585
50179W        W54140  11.039   3.018  16.749
50180W        W54141  11.830   2.590  17.229
50181W        W54142  12.203   1.950  15.848
50182W        W54143  12.225   0.355  16.941
50183W        W54144  14.454   0.117  16.238
50184W        W54145  11.673   1.989  14.706
50185W        W54146  11.328   1.022  14.885
50186W        W54147  11.390   2.978  15.679
50187W        W54148  12.521   2.461  15.927
50188W        W54149  13.853   3.320  17.641
50189W        W54150  12.779   0.962  15.325
50190W        W54151  14.162   3.360  16.097
50191W        W54152  13.839   1.213  17.695
50192W        W54153  14.552   2.869  15.829
50193W        W54154  13.179   2.161  17.313
50194W        W54155  10.945   1.712  15.519
50195W        W54156  12.056   2.127  17.092
50196W        W54157  13.260   1.391  15.470
50197W        W54158  13.137   1.881  15.574
50198W        W54159  11.480   1.301  17.048
50199W        W54160  11.465   1.177  17.970
50200W        W54161  11.355   0.094  16.129
50201W        W54162  13.123   0.441  16.690
50202W        W54163  12.771   0.626  17.853
50203W        W54164  13.126   0.775  15.031
50204W        W54165  14.309   3.168  17.785
50205W        W54166  13.276   0.249  17.824
50206W        W54167  14.295   2.550  17.946
50207W        W54168  13.725   0.717  17.542
50208W        W54169  13.525   0.655  15.812
50209W        W54170  13.918   1.789  18.216
50210W        W54171  11.658   3.365  16.202
50211W        W54172  12.316   1.082  15.188
50212W        W54173  11.885   0.366  17.852
50213W        W54174  13.937   0.850  15.533
50214W        W54175  14.304   1.332  15.478
50215W        W54176  12.047   3.549  17.949
50216W        W54177  11.973   0.085  15.184
50217W        W54178  14.294   0.619  16.219
50218W        W54179  14.444   2.868  14.664
50219W        W54180  11.351   2.071  16.366
50220W        W54181  13.268   0.658  14.596
50221W        W54182  14.402   2.990  16.316
50222W        W54183  14.441   0.184  17.066
50223W        W54184  12.886   1.396  17.620
50224W        W54185  12.979   2.735  15.323
50225W        W54186  13.379   2.029  18.063
50226W        W54187  13.053   0.006  16.372
50227W        W54188  11.665   0.909  16.435
50228W        W54189  11.219   2.109  17.209
50229W        W54190  13.078   3.302  15.915
50230W        W54191  14.272   0.899  16.787
50231W        W54192  12.909   3.246  17.554
50232W        W54193  14.252   2.305  14.759
50233W        W54194  12.687   1.788  15.820
50234W        W54195  14.539   0.299  17.561
50235W        W54196  12.688   2.134  17.155
50236W        W54197  12.905   1.020  16.600
50237W        W54198  13.757   1.318  15.438
50238W        W54199  13.853   3.091  15.469
50239W        W54200  13.687   2.694  16.265
50240W        W54201  13.583   1.773  15.243
50241W        W54202  13.016   1.983  16.229
50242W        W54203  13.897   1.771  16.296
50243W        W54204  11.272   0.786  16.720
50244W        W54205  14.050   1.838  17.547
50245W        W54206  14.401   3.456  16.693
50246W        W54207  12.331   2.900  16.095
50247W        W54208  13.338   3.433  17.419
50248W        W54209  13.332   0.763  17.183
50249W        W54210  12.539   3.471  17.244
50250W        W54211  14.236   0.425  15.710
50251W        W54212  14.027   1.744  17.011
50252W        W54213  11.010   1.065  17.049
50253W        W54214  13.870   0.860  16.067
50254W        W54215  14.281   1.011  17.844
50255W        W54216  13.166   2.710  16.062
50256W        W54217  12.422   3.301  15.675
50257W        W54218  11.537   0.481  14.933
50258W        W54219  12.641   0.135  16.743
50259W        W54220  11.669   3.255  14.591
50260W        W54221  12.043   1.721  15.342
50261W        W54222  12.697   2.350  17.655
50262W        W54223  12.527   0.708  15.645
50263W        W54224  13.883   0.305  16.073
50264W        W54225  13.603   3.587  16.401
50265W        W54226  13.015   3.235  16.741
50266W        W54227  12.411   2.272  16.702
50267W        W54228  14.181   2.995  16.828
50268W        W54229  11.875   0.498  15.597
50269W        W54230  12.397   2.795  16.557
50270W        W54231  11.880   0.726  14.622
50271W        W54232  12.681   1.335  17.016
50272W        W54233  13.529   0.201  16.886
50273W        W54234  10.949   2.044  16.771
50274W        W54235  12.653   1.862  14.929
50275W        W54236  11.921   0.177  14.699
50276W        W54237  12.659   1.258  15.750
50277W        W54238  13.629   0.234  17.449
50278W        W54239  12.217   2.246  17.558
50279W        W54240  13.021   2.028  17.775
50280W        W54241  13.638   2.058  17.668
50281W        W54242  12.922   0.198  18.173
50282W        W54243  12.144   0.814  16.566
50283W        W54244  11.570   0.770  15.964
50284W        W54245  11.356   3.482  15.640
50285W        W54246  12.688   2.812  17.765
50286W        W54247  11.723   2.297  15.124
50287W        W54248  13.403   1.682  16.345
50288W        W54249  13.683   1.481  16.744
50289W        W54250  12.888   2.155  16.678
50290W        W54251  13.358   2.529  14.810
50291W        W54252  13.030   0.550  16.138
50292W        W54253  14.509   0.828  15.406
50293W        W54254  11.003   3.417  17.437
50294W        W54255  11.420   2.643  16.969
50295W        W54256  10.987   3.489  15.201
50296W        W54257  12.886   0.759  17.007
50297W        W54258  12.249   2.782  14.856
50298W        W54259  14.154   3.164  15.042
50299W        W54260  13.129   1.817  15.056
50300W        W54261  11.972   1.008  15.573
50301W        W54262  12.804   0.918  14.625
50302W        W54263  13.388   2.483  17.803
50303W        W54264  13.741   0.389  15.420
50304W        W54265  11.071   0.237  14.868
50305W        W54266  12.357   2.556  17.158
50306W        W54267  12.156   2.472  16.250
50307W        W54268  11.898   2.424  14.648
50308W        W54269  11.139   2.665  15.416
50309W        W54270  11.643   1.735  17.858
50310W        W54271  12.347   0.295  18.044
50311W        W54272  13.056   0.437  17.400
50312W        W54273  12.251   0.205  15.681
50313W        W54274  13.310   0.282  15.186
50314W        W54275  11.255   0.214  16.763
50315W        W54276  11.303   1.177  16.133
50316W        W54277  13.992   0.285  16.539
50317W        W54278  11.414   0.783  15.353
50318W        W54279  13.985   0.471  16.969
50319W        W54280  14.381   1.674  14.654
50320W        W54281  11.673   0.432  16.473
50321W        W54282  12.787   1.004  17.413
50322W        W54283  10.935   0.694  14.891
50323W        W54284  11.721   2.083  17.452
50324W        W54285  13.079   1.481  16.631
50325W        W54286  12.946   3.560  14.927
50326W        W54287  11.092   2.067  14.624
50327W        W54288  11.827   2.478  17.750
50328W        W54289  11.348   1.645  17.381
50329W        W54290  12.339   1.750  17.175
50330W        W54291  14.107   0.109  17.437
50331W        W54292  14.505   1.719  17.428
50332W        W54293  14.493   1.919  15.114
50333W        W54294  13.356   2.251  15.213
50334W        W54295  13.830   3.551  14.908
50335W        W54296  13.007   1.541  18.050
50336W        W54297  11.337   2.508  18.090
50337W        W54298  14.543   0.430  18.042
50338W        W54299  14.261   1.358  16.663
50339W        W54300  12.569   3.488  18.140
50340W        W54301  12.424   0.117  14.867
50341W        W54302  13.963   2.716  14.810
50342W        W54303  11.732   0.809  17.696
50343W        W54304  12.166   2.803  17.558
50344W        W54305  14.292   0.794  17.356
50345W        W54306  13.503   3.453  15.324
50346W        W54307  13.742   2.072  16.691
50347W        W54308  11.992   0.488  17.358
50348W        W54309  12.461   1.557  18.115
50349W        W54310  11.964   2.736  15.309
50350W        W54311  13.719   2.234  15.573
50351W        W54312  11.487   0.860  17.297
50352W        W54313  12.816   2.922  15.761
50353W        W54314  14.566   1.482  15.942
50354W        W54315  12.788   0.115  17.661
50355W        W54316  13.568   2.820  16.740
50356W        W54317  13.871   3.164  16.448
50357W        W54318  13.090   2.966  14.876
50358W        W54319  11.100   2.858  17.718
50359W        W54320  11.843   0.850  16.956
50360W        W54321  11.813   0.198  16.066
50361W        W54322  13.434   1.040  16.758
50362W        W54323  12.232   2.211  14.958
50363W        W54324  14.230   2.153  16.457
50364W        W54325  11.557   2.911  17.880
50365W        W54326  13.944   3.593  15.677
50366W        W54327  12.043   0.613  16.122
50367W        W54328  11.812   2.106  16.212
50368W        W54329  12.125   3.517  16.962
50369W        W54330  14.192   3.613  17.994
50370W        W54331  13.351   1.801  16.927
50371W        W54332  11.200   1.599  14.842
50372W        W54333  14.334   3.257  15.539
50373W        W54334  12.310   0.100  17.561
50374W        W54335  14.016   2.902  16.019
50375W        W54336  14.045   1.458  15.924
50376W        W54337  12.162   1.131  16.140
50377W        W54338  12.407   1.393  17.464
50378W        W54339  13.518   2.546  17.327
50379W        W54340  12.168   1.000  17.439
50380W        W54341  12.147   3.466  16.055
50381W        W54342  11.464   3.425  17.689
50382W        W54343  11.576   2.786  14.819
50383W        W54344  14.093   2.544  15.629
50384W        W54345  11.697   1.336  17.515
50385W        W54346  14.470   1.266  14.996
50386W        W54347  12.215   2.323  15.467
50387W        W54348  13.314   1.705  17.548
50388W        W54349  13.205   1.333  17.092
50389W        W54350  11.765   1.705  17.121
50390W        W54351  13.975   3.593  16.950
50391W        W54352  13.766   0.227  17.944
50392W        W54353  11.430   0.377  17.531
50393W        W54354  11.769   1.400  16.584
50394W        W54355  12.138   1.214  14.706
50395W        W54356  10.941   2.973  17.251
50396W        W54357  12.526   1.682  16.694
50397W        W54358  12.349   0.707  14.799
50398W        W54359  11.484   1.523  15.580
50399W        W54360  11.255   3.375  17.017
50400W        W54361  14.050   1.601  15.125
50401W        W54362  14.145   0.517  17.811
50402W        W54363  13.581   2.726  15.774
50403W        W54364  11.179   1.650  17.951
50404W        W54365  13.665   2.589  15.258
50405W        W54366  12.567   1.647  15.343
50406W        W54367  13.754   0.451  14.866
50407W        W54368  13.819   1.058  17.052
50408W        W54369  11.528   1.651  16.259
50409W        W54370  11.822   2.590  15.908
50410W        W54371  13.585   1.210  15.873
50411W        W54372  12.608   0.589  16.569
50412W        W54373  14.570   2.500  17.080
50413W        W54374  14.488   0.487  16.641
50414W        W54375  11.027   3.317  16.017
50415W        W54376  11.536   2.504  15.553
50416W        W54377  11.451   0.121  18.106
50417W        W54378  12.570   2.974  18.208
50418W        W54379  14.325   1.942  15.998
50419W        W54380  13.679   2.119  14.878
50420W        W54381  12.974   3.640  17.090
50421W        W54382  13.831   2.362  18.127
50422W        W54383  12.646   0.072  15.407
50423W        W54384  13.359   0.941  16.266
50424W        W54385  11.045   2.528  16.598
50425W        W54386  12.298   0.490  15.239
50426W        W54387  12.102   1.974  18.088
50427W        W54388  13.096   0.955  15.802
50428W        W54389  13.301   2.365  16.924
50429W        W54390  11.455   2.970  17.359
50430W        W54391  12.046   2.953  18.082
50431W        W54392  11.897   0.750  15.096
50432W        W54393  13.414   0.892  15.421
50433W        W54394  13.372   3.000  17.658
50434W        W54395  12.057   1.592  16.257
50435W        W54396  11.712   3.290  17.122
50436W        W54397  14.457   3.407  14.723
50437W        W54398  11.320   2.079  17.719
50438W        W54399  13.315   2.341  16.407
50439W        W54400  11.751   1.990  15.649
50440W        W54401  12.122   2.997  17.044
50441W        W54402  12.500   0.416  16.085
50442W        W54403  11.111   2.400  15.015
50443W        W54404  12.630   1.351  14.885
50444W        W54405  11.276   1.900  15.904
50445W        W54406  12.566   0.542  17.368
50446W        W54407  14.238   0.251  14.795
50447W        W54408  14.331   1.997  17.894
50448W        W54409  12.985   3.254  18.046
50449W        W54410  14.543   2.348  17.568
50450W        W54411  13.951   3.146  18.179
50451W        W54412  11.690   3.602  16.657
50452W        W54413  14.549   2.224  15.531
50453W        W54414  13.079   1.491  16.044
50454W        W54415  12.846   0.103  15.934
50455W        W54416  11.905   3.087  15.771
50456W        W54417  12.404   0.828  16.996
50457W        W54418  12.104   0.197  16.465
50458W        W54419  11.167   3.019  15.013
50459W        W54420  12.983   2.383  15.731
50460W        W54421  11.858   3.178  17.610
50461W        W54422  11.335   2.001  15.306
50462W        W54423  11.220   0.544  16.305
50463W        W54424  12.768   2.509  16.362
50464W        W54425  11.020   0.363  15.382
50465W        W54426  13.684   1.569  17.309
50466W        W54427  13.561   0.955  14.881
50467W        W54428  14.078   2.627  16.529
50468W        W54429  12.739   3.111  16.360
50469W        W54430  12.151   3.215  15.271
50470W        W54431  13.433   0.118  14.701
50471W        W54432  11.233   3.378  16.442
50472W        W54433  13.430   1.136  18.077
50473W        W54434  11.413   0.666  18.076
50474W        W54435  11.144   1.266  15.409
50475W        W54436  11.835   1.255  15.134
50476W        W54437  13.598   1.582  17.951
50477W        W54438  11.941   1.863  16.660
50478W        W54439  13.415   0.149  15.780
50479W        W54440  12.546   3.580  16.283
50480W        W54441  13.760   3.042  17.220
50481W        W54442  13.344   3.191  16.331
50482W        W54443  13.363   2.171  15.925
50483W        W54444  12.825   0.396  14.996
50484W        W54445  14.506   0.024  15.718
50485W        W54446  12.194   1.659  14.881
50486W        W54447  14.360   0.996  15.871
50487W        W54448  13.052   2.166  14.748
50488W        W54449  13.988   2.366  17.496
50489W        W54450  13.642   3.067  14.963
50490W        W54451  12.257   0.742  17.869
50491W        W54452  12.077   1.326  17.110
50492W        W54453  14.169   2.821  17.387
50493W        W54454  13.269   0.771  17.764
50494W        W54455  11.113   1.242  17.541
50495W        W54456  12.873   1.719  17.267
50496W        W54457  11.230   2.477  15.924
50497W        W54458  11.377   1.774  16.814
50498W        W54459  13.694   2.060  17.164
50499W        W54460  13.466   3.440  17.975
50500W        W54461  13.362   1.179  17.528
50501W        W54462  13.639   3.233  15.933
50502W        W54463  12.641   2.953  17.256
50503W        W54464  12.126   3.308  16.525
50504W        W54465  13.931   2.479  16.944
50505W        W54466  12.981   2.551  18.081
50506W        W54467  11.586   2.504  16.420
50507W        W54468  13.932   2.263  16.065
50508W        W54469  13.573   3.329  16.816
50509W        W54470  11.551   3.058  16.686
50510W        W54471  12.572   1.110  17.896
50511W        W54472  13.023   3.276  15.407
50512W        W54473  12.331   2.531  18.045
50513W        W54474  12.457   2.769  15.422
50514W        W54475  11.678   1.509  14.681
50515W        W54476  11.017   3.595  21.580
50516W        W54477  11.393   2.488  21.103
50517W        W54478  14.098   2.218  18.873
50518W        W54479  14.228   3.303  20.900
50519W        W54480  12.146   3.294  18.426
50520W        W54481  12.229   1.446  19.409
50521W        W54482  11.744   1.294  19.573
50522W        W54483  12.735   2.109  19.007
50523W        W54484  12.410   3.201  21.362
50524W        W54485  11.059   0.762  21.325
50525W        W54486  11.821   0.042  21.127
50526W        W54487  13.515   0.430  20.014
50527W        W54488  13.164   1.301  18.584
50528W        W54489  13.734   0.735  21.675
50529W        W54490  11.100   0.527  20.800
50530W        W54491  11.199   3.146  21.821
50531W        W54492  12.721   2.536  18.553
50532W        W54493  11.153   1.319  20.246
50533W        W54494  12.046   1.210  21.483
50534W        W54495  14.505   1.069  19.982
50535W        W54496  14.269   2.112  20.841
50536W        W54497  12.577   1.445  19.868
50537W        W54498  13.123   2.784  20.237
50538W        W54499  11.623   2.218  20.469
50539W        W54500  10.982   1.746  20.040
50540W        W54501  12.018   1.718  21.232
50541W        W54502  14.289   1.501  21.486
50542W        W54503  11.905   2.945  19.931
50543W        W54504  13.026   2.634  21.065
50544W        W54505  12.246   1.274  20.290
50545W        W54506  12.538   2.058  19.933
50546W        W54507  13.535   2.831  21.781
50547W        W54508  12.614   2.151  21.791
50548W        W54509  12.595   1.867  21.269
50549W        W54510  11.004   1.258  21.791
50550W        W54511  13.836   2.793  21.390
50551W        W54512  11.417   0.375  19.388
50552W        W54513  11.944   2.633  20.387
50553W        W54514  14.407   2.416  19.677
50554W        W54515  13.820   0.816  20.244
50555W        W54516  14.105   0.769  18.339
50556W        W54517  14.570   1.570  20.645
50557W        W54518  12.537   3.277  20.398
50558W        W54519  14.311   2.743  18.836
50559W        W54520  11.440   3.529  18.590
50560W        W54521  11.833   3.575  19.266
50561W        W54522  11.630   0.329  20.692
50562W        W54523  14.253   1.347  20.967
50563W        W54524  13.658   1.769  19.426
50564W        W54525  13.624   1.457  18.453
50565W        W54526  12.832   2.601  20.593
50566W        W54527  12.638   0.931  19.792
50567W        W54528  13.238   3.018  20.786
50568W        W54529  14.109   1.809  19.208
50569W        W54530  13.011   0.467  19.224
50570W        W54531  11.668   3.161  18.907
50571W        W54532  11.039   0.660  19.506
50572W        W54533  13.825   1.267  19.980
50573W        W54534  11.283   2.884  19.895
50574W        W54535  12.624   3.234  18.765
50575W        W54536  14.016   1.260  18.229
50576W        W54537  11.039   3.018  20.393
50577W        W54538  11.830   2.590  20.873
50578W        W54539  12.203   1.950  19.492
50579W        W54540  12.225   0.355  20.585
50580W        W54541  14.454   0.117  19.882
50581W        W54542  11.673   1.989  18.350
50582W        W54543  11.328   1.022  18.529
50583W        W54544  11.390   2.978  19.323
50584W        W54545  12.521   2.461  19.571
50585W        W54546  13.853   3.320  21.285
50586W        W54547  12.779   0.962  18.969
50587W        W54548  14.162   3.360  19.741
50588W        W54549  13.839   1.213  21.339
50589W        W54550  14.552   2.869  19.473
50590W        W54551  13.179   2.161  20.957
50591W        W54552  10.945   1.712  19.163
50592W        W54553  12.056   2.127  20.736
50593W        W54554  13.260   1.391  19.114
50594W        W54555  13.137   1.881  19.218
50595W        W54556  11.480   1.301  20.692
50596W        W54557  11.465   1.177  21.614
50597W        W54558  11.355   0.094  19.773
50598W        W54559  13.123   0.441  20.334
50599W        W54560  12.771   0.626  21.497
50600W        W54561  13.126   0.775  18.675
50601W        W54562  14.309   3.168  21.429
50602W        W54563  13.276   0.249  21.468
50603W        W54564  14.295   2.550  21.590
50604W        W54565  13.725   0.717  21.186
50605W        W54566  13.525   0.655  19.456
50606W        W54567  13.918   1.789  21.860
50607W        W54568  11.658   3.365  19.846
50608W        W54569  12.316   1.082  18.832
50609W        W54570  11.885   0.366  21.496
50610W        W54571  13.937   0.850  19.177
50611W        W54572  14.304   1.332  19.122
50612W        W54573  12.047   3.549  21.593
50613W        W54574  11.973   0.085  18.828
50614W        W54575  14.294   0.619  19.863
50615W        W54576  14.444   2.868  18.308
50616W        W54577  11.351   2.071  20.010
50617W        W54578  13.268   0.658  18.240
50618W        W54579  14.402   2.990  19.960
50619W        W54580  14.441   0.184  20.710
50620W        W54581  12.886   1.396  21.264
50621W        W54582  12.979   2.735  18.967
50622W        W54583  13.379   2.029  21.707
50623W        W54584  13.053   0.006  20.016
50624W        W54585  11.665   0.909  20.079
50625W        W54586  11.219   2.109  20.853
50626W        W54587  13.078   3.302  19.559
50627W        W54588  14.272   0.899  20.431
50628W        W54589  12.909   3.246  21.198
50629W        W54590  14.252   2.305  18.403
50630W        W54591  12.687   1.788  19.464
50631W        W54592  14.539   0.299  21.205
50632W        W54593  12.688   2.134  20.799
50633W        W54594  12.905   1.020  20.244
50634W        W54595  13.757   1.318  19.082
50635W        W54596  14.044   1.051  18.724
50636W        W54597  13.853   3.091  19.113
50637W        W54598  13.687   2.694  19.909
50638W        W54599  13.583   1.773  18.887
50639W        W54600  13.016   1.983  19.873
50640W        W54601  13.897   1.771  19.940
50641W        W54602  11.272   0.786  20.364
50642W        W54603  14.050   1.838  21.191
50643W        W54604  14.401   3.456  20.337
50644W        W54605  12.331   2.900  19.739
50645W        W54606  13.338   3.433  21.063
50646W        W54607  13.332   0.763  20.827
50647W        W54608  12.539   3.471  20.888
50648W        W54609  14.236   0.425  19.354
50649W        W54610  14.027   1.744  20.655
50650W        W54611  11.010   1.065  20.693
50651W        W54612  13.870   0.860  19.711
50652W        W54613  14.281   1.011  21.488
50653W        W54614  13.166   2.710  19.706
50654W        W54615  12.422   3.301  19.319
50655W        W54616  11.537   0.481  18.577
50656W        W54617  12.641   0.135  20.387
50657W        W54618  11.669   3.255  18.235
50658W        W54619  12.043   1.721  18.986
50659W        W54620  12.697   2.350  21.299
50660W        W54621  12.527   0.708  19.289
50661W        W54622  13.883   0.305  19.717
50662W        W54623  13.603   3.587  20.045
50663W        W54624  13.015   3.235  20.385
50664W        W54625  12.411   2.272  20.346
50665W        W54626  14.181   2.995  20.472
50666W        W54627  11.875   0.498  19.241
50667W        W54628  12.397   2.795  20.201
50668W        W54629  11.880   0.726  18.266
50669W        W54630  12.681   1.335  20.660
50670W        W54631  13.529   0.201  20.530
50671W        W54632  10.949   2.044  20.415
50672W        W54633  12.653   1.862  18.573
50673W        W54634  11.921   0.177  18.343
50674W        W54635  12.659   1.258  19.394
50675W        W54636  13.629   0.234  21.093
50676W        W54637  12.217   2.246  21.202
50677W        W54638  13.021   2.028  21.419
50678W        W54639  13.638   2.058  21.312
50679W        W54640  12.922   0.198  21.817
50680W        W54641  12.144   0.814  20.210
50681W        W54642  11.570   0.770  19.608
50682W        W54643  11.356   3.482  19.284
50683W        W54644  12.688   2.812  21.409
50684W        W54645  11.723   2.297  18.768
50685W        W54646  13.403   1.682  19.989
50686W        W54647  13.683   1.481  20.388
50687W        W54648  12.888   2.155  20.322
50688W        W54649  13.358   2.529  18.454
50689W        W54650  13.030   0.550  19.782
50690W        W54651  14.509   0.828  19.050
50691W        W54652  11.003   3.417  21.081
50692W        W54653  11.420   2.643  20.613
50693W        W54654  10.987   3.489  18.845
50694W        W54655  12.886   0.759  20.651
50695W        W54656  12.249   2.782  18.500
50696W        W54657  14.154   3.164  18.686
50697W        W54658  13.129   1.817  18.700
50698W        W54659  11.972   1.008  19.217
50699W        W54660  12.804   0.918  18.269
50700W        W54661  13.388   2.483  21.447
50701W        W54662  13.741   0.389  19.064
50702W        W54663  11.071   0.237  18.512
50703W        W54664  12.357   2.556  20.802
50704W        W54665  12.156   2.472  19.894
50705W        W54666  11.898   2.424  18.292
50706W        W54667  11.139   2.665  19.060
50707W        W54668  11.643   1.735  21.502
50708W        W54669  12.347   0.295  21.688
50709W        W54670  13.056   0.437  21.044
50710W        W54671  12.251   0.205  19.325
50711W        W54672  13.310   0.282  18.830
50712W        W54673  11.255   0.214  20.407
50713W        W54674  11.303   1.177  19.777
50714W        W54675  13.992   0.285  20.183
50715W        W54676  11.414   0.783  18.997
50716W        W54677  13.985   0.471  20.613
50717W        W54678  14.381   1.674  18.298
50718W        W54679  11.673   0.432  20.117
50719W        W54680  12.787   1.004  21.057
50720W        W54681  10.935   0.694  18.535
50721W        W54682  11.721   2.083  21.096
50722W        W54683  13.079   1.481  20.275
50723W        W54684  12.946   3.560  18.571
50724W        W54685  11.092   2.067  18.268
50725W        W54686  11.827   2.478  21.394
50726W        W54687  11.348   1.645  21.025
50727W        W54688  12.339   1.750  20.819
50728W        W54689  14.107   0.109  21.081
50729W        W54690  14.505   1.719  21.072
50730W        W54691  14.493   1.919  18.758
50731W        W54692  13.356   2.251  18.857
50732W        W54693  13.830   3.551  18.552
50733W        W54694  13.007   1.541  21.694
50734W        W54695  11.337   2.508  21.734
50735W        W54696  14.543   0.430  21.686
50736W        W54697  14.261   1.358  20.307
50737W        W54698  12.569   3.488  21.784
50738W        W54699  12.424   0.117  18.511
50739W        W54700  13.963   2.716  18.454
50740W        W54701  11.732   0.809  21.340
50741W        W54702  12.166   2.803  21.202
50742W        W54703  14.292   0.794  21.000
50743W        W54704  13.503   3.453  18.968
50744W        W54705  13.742   2.072  20.335
50745W        W54706  11.992   0.488  21.002
50746W        W54707  12.461   1.557  21.759
50747W        W54708  11.964   2.736  18.953
50748W        W54709  13.719   2.234  19.217
50749W        W54710  11.487   0.860  20.941
50750W        W54711  12.816   2.922  19.405
50751W        W54712  14.566   1.482  19.586
50752W        W54713  12.788   0.115  21.305
50753W        W54714  13.568   2.820  20.384
50754W        W54715  13.871   3.164  20.092
50755W        W54716  13.090   2.966  18.520
50756W        W54717  11.100   2.858  21.362
50757W        W54718  11.843   0.850  20.600
50758W        W54719  11.813   0.198  19.710
50759W        W54720  13.434   1.040  20.402
50760W        W54721  12.232   2.211  18.602
50761W        W54722  14.230   2.153  20.101
50762W        W54723  11.557   2.911  21.524
50763W        W54724  13.944   3.593  19.321
50764W        W54725  12.043   0.613  19.766
50765W        W54726  11.812   2.106  19.856
50766W        W54727  12.125   3.517  20.606
50767W        W54728  14.192   3.613  21.638
50768W        W54729  13.351   1.801  20.571
50769W        W54730  11.200   1.599  18.486
50770W        W54731  14.171   0.581  18.802
50771W        W54732  12.310   0.100  21.205
50772W        W54733  14.016   2.902  19.663
50773W        W54734  14.045   1.458  19.568
50774W        W54735  12.162   1.131  19.784
50775W        W54736  12.407   1.393  21.108
50776W        W54737  13.518   2.546  20.971
50777W        W54738  12.168   1.000  21.083
50778W        W54739  12.147   3.466  19.699
50779W        W54740  11.464   3.425  21.333
50780W        W54741  11.576   2.786  18.463
50781W        W54742  14.093   2.544  19.273
50782W        W54743  11.697   1.336  21.159
50783W        W54744  14.470   1.266  18.640
50784W        W54745  12.215   2.323  19.111
50785W        W54746  13.314   1.705  21.192
50786W        W54747  13.205   1.333  20.736
50787W        W54748  11.765   1.705  20.765
50788W        W54749  13.975   3.593  20.594
50789W        W54750  13.766   0.227  21.588
50790W        W54751  11.430   0.377  21.175
50791W        W54752  11.769   1.400  20.228
50792W        W54753  12.138   1.214  18.350
50793W        W54754  10.941   2.973  20.895
50794W        W54755  12.526   1.682  20.338
50795W        W54756  12.349   0.707  18.443
50796W        W54757  11.484   1.523  19.224
50797W        W54758  11.255   3.375  20.661
50798W        W54759  14.050   1.601  18.769
50799W        W54760  14.145   0.517  21.455
50800W        W54761  13.581   2.726  19.418
50801W        W54762  11.179   1.650  21.595
50802W        W54763  14.145   0.114  18.891
50803W        W54764  13.665   2.589  18.902
50804W        W54765  12.567   1.647  18.987
50805W        W54766  13.754   0.451  18.510
50806W        W54767  13.819   1.058  20.696
50807W        W54768  11.528   1.651  19.903
50808W        W54769  11.822   2.590  19.552
50809W        W54770  13.585   1.210  19.517
50810W        W54771  12.608   0.589  20.213
50811W        W54772  14.570   2.500  20.724
50812W        W54773  14.488   0.487  20.285
50813W        W54774  11.027   3.317  19.661
50814W        W54775  11.536   2.504  19.197
50815W        W54776  11.451   0.121  21.750
50816W        W54777  12.570   2.974  21.852
50817W        W54778  14.325   1.942  19.642
50818W        W54779  13.679   2.119  18.522
50819W        W54780  12.974   3.640  20.734
50820W        W54781  13.831   2.362  21.771
50821W        W54782  12.646   0.072  19.051
50822W        W54783  13.359   0.941  19.910
50823W        W54784  11.045   2.528  20.242
50824W        W54785  12.298   0.490  18.883
50825W        W54786  12.102   1.974  21.732
50826W        W54787  13.096   0.955  19.446
50827W        W54788  13.301   2.365  20.568
50828W        W54789  11.455   2.970  21.003
50829W        W54790  12.046   2.953  21.726
50830W        W54791  11.897   0.750  18.740
50831W        W54792  13.414   0.892  19.065
50832W        W54793  13.372   3.000  21.302
50833W        W54794  12.057   1.592  19.901
50834W        W54795  11.712   3.290  20.766
50835W        W54796  11.320   2.079  21.363
50836W        W54797  13.315   2.341  20.051
50837W        W54798  11.751   1.990  19.293
50838W        W54799  12.122   2.997  20.688
50839W        W54800  12.500   0.416  19.729
50840W        W54801  11.111   2.400  18.659
50841W        W54802  12.630   1.351  18.529
50842W        W54803  11.276   1.900  19.548
50843W        W54804  12.566   0.542  21.012
50844W        W54805  14.238   0.251  18.439
50845W        W54806  14.331   1.997  21.538
50846W        W54807  12.985   3.254  21.690
50847W        W54808  14.543   2.348  21.212
50848W        W54809  13.951   3.146  21.823
50849W        W54810  11.690   3.602  20.301
50850W        W54811  14.549   2.224  19.175
50851W        W54812  13.079   1.491  19.688
50852W        W54813  12.846   0.103  19.578
50853W        W54814  11.905   3.087  19.415
50854W        W54815  12.404   0.828  20.640
50855W        W54816  12.104   0.197  20.109
50856W        W54817  11.167   3.019  18.657
50857W        W54818  12.983   2.383  19.375
50858W        W54819  11.858   3.178  21.254
50859W        W54820  11.335   2.001  18.950
50860W        W54821  11.220   0.544  19.949
50861W        W54822  12.768   2.509  20.006
50862W        W54823  11.020   0.363  19.026
50863W        W54824  13.684   1.569  20.953
50864W        W54825  13.561   0.955  18.525
50865W        W54826  14.078   2.627  20.173
50866W        W54827  12.739   3.111  20.004
50867W        W54828  12.151   3.215  18.915
50868W        W54829  13.433   0.118  18.345
50869W        W54830  11.233   3.378  20.086
50870W        W54831  13.430   1.136  21.721
50871W        W54832  11.413   0.666  21.720
50872W        W54833  11.144   1.266  19.053
50873W        W54834  11.835   1.255  18.778
50874W        W54835  13.598   1.582  21.595
50875W        W54836  11.941   1.863  20.304
50876W        W54837  13.415   0.149  19.424
50877W        W54838  12.546   3.580  19.927
50878W        W54839  13.760   3.042  20.864
50879W        W54840  13.344   3.191  19.975
50880W        W54841  13.363   2.171  19.569
50881W        W54842  12.825   0.396  18.640
50882W        W54843  14.506   0.024  19.362
50883W        W54844  12.194   1.659  18.525
50884W        W54845  14.360   0.996  19.515
50885W        W54846  13.052   2.166  18.392
50886W        W54847  13.988   2.366  21.140
50887W        W54848  13.642   3.067  18.607
50888W        W54849  12.257   0.742  21.513
50889W        W54850  12.077   1.326  20.754
50890W        W54851  14.169   2.821  21.031
50891W        W54852  13.269   0.771  21.408
50892W        W54853  11.113   1.242  21.185
50893W        W54854  12.873   1.719  20.911
50894W        W54855  11.230   2.477  19.568
50895W        W54856  11.377   1.774  20.458
50896W        W54857  13.694   2.060  20.808
50897W        W54858  13.466   3.440  21.619
50898W        W54859  13.362   1.179  21.172
50899W        W54860  12.641   2.953  20.900
50900W        W54861  12.126   3.308  20.169
50901W        W54862  13.931   2.479  20.588
50902W        W54863  12.981   2.551  21.725
50903W        W54864  11.586   2.504  20.064
50904W        W54865  13.932   2.263  19.709
50905W        W54866  13.573   3.329  20.460
50906W        W54867  11.551   3.058  20.330
50907W        W54868  12.572   1.110  21.540
50908W        W54869  13.023   3.276  19.051
50909W        W54870  12.331   2.531  21.689
50910W        W54871  12.457   2.769  19.066
50911W        W54872  11.678   1.509  18.325
50912W        W54873  14.098   2.218  22.518
50913W        W54874  12.146   3.294  22.071
50914W        W54875  12.229   1.446  23.054
50915W        W54876  11.744   1.294  23.218
50916W        W54877  12.735   2.109  22.652
50917W        W54878  13.164   1.301  22.229
50918W        W54879  12.721   2.536  22.198
50919W        W54880  11.417   0.375  23.033
50920W        W54881  14.105   0.769  21.984
50921W        W54882  14.311   2.743  22.481
50922W        W54883  11.440   3.529  22.235
50923W        W54884  11.833   3.575  22.911
50924W        W54885  13.658   1.769  23.071
50925W        W54886  13.624   1.457  22.098
50926W        W54887  14.109   1.809  22.853
50927W        W54888  13.011   0.467  22.869
50928W        W54889  11.668   3.161  22.552
50929W        W54890  12.624   3.234  22.410
50930W        W54891  14.016   1.260  21.874
50931W        W54892  12.203   1.950  23.137
50932W        W54893  11.673   1.989  21.995
50933W        W54894  11.328   1.022  22.174
50934W        W54895  11.390   2.978  22.968
50935W        W54896  12.521   2.461  23.216
50936W        W54897  12.779   0.962  22.614
50937W        W54898  10.945   1.712  22.808
50938W        W54899  13.260   1.391  22.759
50939W        W54900  13.137   1.881  22.863
50940W        W54901  13.126   0.775  22.320
50941W        W54902  13.525   0.655  23.101
50942W        W54903  12.316   1.082  22.477
50943W        W54904  13.937   0.850  22.822
50944W        W54905  14.304   1.332  22.767
50945W        W54906  11.973   0.085  22.473
50946W        W54907  14.444   2.868  21.953
50947W        W54908  13.268   0.658  21.885
50948W        W54909  12.979   2.735  22.612
50949W        W54910  13.078   3.302  23.204
50950W        W54911  14.252   2.305  22.048
50951W        W54912  12.687   1.788  23.109
50952W        W54913  13.757   1.318  22.727
50953W        W54914  14.044   1.051  22.369
50954W        W54915  13.853   3.091  22.758
50955W        W54916  13.583   1.773  22.532
50956W        W54917  14.236   0.425  22.999
50957W        W54918  12.422   3.301  22.964
50958W        W54919  11.537   0.481  22.222
50959W        W54920  11.669   3.255  21.880
50960W        W54921  12.043   1.721  22.631
50961W        W54922  12.527   0.708  22.934
50962W        W54923  11.875   0.498  22.886
50963W        W54924  11.880   0.726  21.911
50964W        W54925  12.653   1.862  22.218
50965W        W54926  11.921   0.177  21.988
50966W        W54927  12.659   1.258  23.039
50967W        W54928  11.570   0.770  23.253
50968W        W54929  11.356   3.482  22.929
50969W        W54930  11.723   2.297  22.413
50970W        W54931  13.358   2.529  22.099
50971W        W54932  14.509   0.828  22.695
50972W        W54933  10.987   3.489  22.490
50973W        W54934  12.249   2.782  22.145
50974W        W54935  14.154   3.164  22.331
50975W        W54936  13.129   1.817  22.345
50976W        W54937  11.972   1.008  22.862
50977W        W54938  12.804   0.918  21.914
50978W        W54939  13.741   0.389  22.709
50979W        W54940  11.071   0.237  22.157
50980W        W54941  11.898   2.424  21.937
50981W        W54942  11.139   2.665  22.705
50982W        W54943  12.251   0.205  22.970
50983W        W54944  13.310   0.282  22.475
50984W        W54945  11.414   0.783  22.642
50985W        W54946  14.381   1.674  21.943
50986W        W54947  10.935   0.694  22.180
50987W        W54948  12.946   3.560  22.216
50988W        W54949  11.092   2.067  21.913
50989W        W54950  14.493   1.919  22.403
50990W        W54951  13.356   2.251  22.502
50991W        W54952  13.830   3.551  22.197
50992W        W54953  12.424   0.117  22.156
50993W        W54954  13.963   2.716  22.099
50994W        W54955  13.503   3.453  22.613
50995W        W54956  11.964   2.736  22.598
50996W        W54957  13.719   2.234  22.862
50997W        W54958  12.816   2.922  23.050
50998W        W54959  14.566   1.482  23.231
50999W        W54960  13.090   2.966  22.165
51000W        W54961  12.232   2.211  22.247
51001W        W54962  13.944   3.593  22.966
51002W        W54963  11.200   1.599  22.131
51003W        W54964  14.334   3.257  22.828
51004W        W54965  14.171   0.581  22.447
51005W        W54966  14.045   1.458  23.213
51006W        W54967  11.576   2.786  22.108
51007W        W54968  14.093   2.544  22.918
51008W        W54969  14.470   1.266  22.285
51009W        W54970  12.215   2.323  22.756
51010W        W54971  12.138   1.214  21.995
51011W        W54972  12.349   0.707  22.088
51012W        W54973  11.484   1.523  22.869
51013W        W54974  14.050   1.601  22.414
51014W        W54975  13.581   2.726  23.063
51015W        W54976  14.145   0.114  22.536
51016W        W54977  13.665   2.589  22.547
51017W        W54978  12.567   1.647  22.632
51018W        W54979  13.754   0.451  22.155
51019W        W54980  11.822   2.590  23.197
51020W        W54981  13.585   1.210  23.162
51021W        W54982  11.027   3.317  23.306
51022W        W54983  11.536   2.504  22.842
51023W        W54984  14.325   1.942  23.287
51024W        W54985  13.679   2.119  22.167
51025W        W54986  12.646   0.072  22.696
51026W        W54987  12.298   0.490  22.528
51027W        W54988  13.096   0.955  23.091
51028W        W54989  11.897   0.750  22.385
51029W        W54990  13.414   0.892  22.710
51030W        W54991  14.457   3.407  22.012
51031W        W54992  11.111   2.400  22.304
51032W        W54993  12.630   1.351  22.174
51033W        W54994  11.276   1.900  23.193
51034W        W54995  14.238   0.251  22.084
51035W        W54996  14.549   2.224  22.820
51036W        W54997  12.846   0.103  23.223
51037W        W54998  11.905   3.087  23.060
51038W        W54999  11.167   3.019  22.302
51039W        W55000  12.983   2.383  23.020
51040W        W55001  11.335   2.001  22.595
51041W        W55002  11.020   0.363  22.671
51042W        W55003  13.561   0.955  22.170
51043W        W55004  12.151   3.215  22.560
51044W        W55005  13.433   0.118  21.990
51045W        W55006  11.144   1.266  22.698
51046W        W55007  11.835   1.255  22.423
51047W        W55008  13.363   2.171  23.214
51048W        W55009  12.825   0.396  22.285
51049W        W55010  14.506   0.024  23.007
51050W        W55011  12.194   1.659  22.170
51051W        W55012  14.360   0.996  23.160
51052W        W55013  13.052   2.166  22.037
51053W        W55014  13.642   3.067  22.252
51054W        W55015  11.230   2.477  23.213
51055W        W55016  13.639   3.233  23.222
51056W        W55017  13.023   3.276  22.696
51057W        W55018  12.457   2.769  22.711
51058W        W55019  11.678   1.509  21.970
51059W        W55020  11.017   7.239   3.359
51060W        W55021  11.393   6.132   2.882
51061W        W55022  14.098   5.862   0.652
51062W        W55023  14.228   6.947   2.679
51063W        W55024  12.146   6.938   0.205
51064W        W55025  12.229   5.090   1.188
51065W        W55026  11.744   4.938   1.352
51066W        W55027  12.735   5.753   0.786
51067W        W55028  12.410   6.845   3.141
51068W        W55029  11.059   4.406   3.104
51069W        W55030  11.821   3.686   2.906
51070W        W55031  13.515   4.074   1.793
51071W        W55032  13.164   4.945   0.363
51072W        W55033  13.734   4.379   3.454
51073W        W55034  11.100   4.171   2.579
51074W        W55035  11.199   6.790   3.600
51075W        W55036  12.721   6.180   0.332
51076W        W55037  11.153   4.963   2.025
51077W        W55038  12.046   4.854   3.262
51078W        W55039  14.505   4.713   1.761
51079W        W55040  14.269   5.756   2.620
51080W        W55041  12.577   5.089   1.647
51081W        W55042  13.123   6.428   2.016
51082W        W55043  11.623   5.862   2.248
51083W        W55044  10.982   5.390   1.819
51084W        W55045  12.018   5.362   3.011
51085W        W55046  14.289   5.145   3.265
51086W        W55047  11.905   6.589   1.710
51087W        W55048  13.026   6.278   2.844
51088W        W55049  12.246   4.918   2.069
51089W        W55050  12.538   5.702   1.712
51090W        W55051  13.535   6.475   3.560
51091W        W55052  12.614   5.795   3.570
51092W        W55053  12.595   5.511   3.048
51093W        W55054  11.004   4.902   3.570
51094W        W55055  13.836   6.437   3.169
51095W        W55056  11.417   4.019   1.167
51096W        W55057  11.944   6.277   2.166
51097W        W55058  14.407   6.060   1.456
51098W        W55059  13.820   4.460   2.023
51099W        W55060  14.105   4.413   0.118
51100W        W55061  14.570   5.214   2.424
51101W        W55062  12.537   6.921   2.177
51102W        W55063  14.311   6.387   0.615
51103W        W55064  11.440   7.173   0.369
51104W        W55065  11.833   7.219   1.045
51105W        W55066  11.630   3.973   2.471
51106W        W55067  14.253   4.991   2.746
51107W        W55068  13.658   5.413   1.205
51108W        W55069  13.624   5.101   0.232
51109W        W55070  12.832   6.245   2.372
51110W        W55071  12.638   4.575   1.571
51111W        W55072  13.238   6.662   2.565
51112W        W55073  14.109   5.453   0.987
51113W        W55074  13.011   4.111   1.003
51114W        W55075  11.668   6.805   0.686
51115W        W55076  11.039   4.304   1.285
51116W        W55077  13.825   4.911   1.759
51117W        W55078  11.283   6.528   1.674
51118W        W55079  12.624   6.878   0.544
51119W        W55080  14.016   4.904   0.008
51120W        W55081  11.039   6.662   2.172
51121W        W55082  11.830   6.234   2.652
51122W        W55083  12.203   5.594   1.271
51123W        W55084  12.225   3.999   2.364
51124W        W55085  14.454   3.761   1.661
51125W        W55086  11.673   5.633   0.129
51126W        W55087  11.328   4.666   0.308
51127W        W55088  11.390   6.622   1.102
51128W        W55089  12.521   6.105   1.350
51129W        W55090  13.853   6.964   3.064
51130W        W55091  12.779   4.606   0.748
51131W        W55092  14.162   7.004   1.520
51132W        W55093  13.839   4.857   3.118
51133W        W55094  14.552   6.513   1.252
51134W        W55095  13.179   5.805   2.736
51135W        W55096  10.945   5.356   0.942
51136W        W55097  12.056   5.771   2.515
51137W        W55098  13.260   5.035   0.893
51138W        W55099  13.137   5.525   0.997
51139W        W55100  11.480   4.945   2.471
51140W        W55101  11.465   4.821   3.393
51141W        W55102  11.355   3.738   1.552
51142W        W55103  13.123   4.085   2.113
51143W        W55104  12.771   4.270   3.276
51144W        W55105  13.126   4.419   0.454
51145W        W55106  14.309   6.812   3.208
51146W        W55107  13.276   3.893   3.247
51147W        W55108  14.295   6.194   3.369
51148W        W55109  13.725   4.361   2.965
51149W        W55110  13.525   4.299   1.235
51150W        W55111  13.918   5.433   3.639
51151W        W55112  11.658   7.009   1.625
51152W        W55113  12.316   4.726   0.611
51153W        W55114  11.885   4.010   3.275
51154W        W55115  13.937   4.494   0.956
51155W        W55116  14.304   4.976   0.901
51156W        W55117  12.047   7.193   3.372
51157W        W55118  11.973   3.729   0.607
51158W        W55119  14.294   4.263   1.642
51159W        W55120  14.444   6.512   0.087
51160W        W55121  11.351   5.715   1.789
51161W        W55122  13.268   4.302   0.019
51162W        W55123  14.402   6.634   1.739
51163W        W55124  14.441   3.828   2.489
51164W        W55125  12.886   5.040   3.043
51165W        W55126  12.979   6.379   0.746
51166W        W55127  13.379   5.673   3.486
51167W        W55128  13.053   3.650   1.795
51168W        W55129  11.665   4.553   1.858
51169W        W55130  11.219   5.753   2.632
51170W        W55131  13.078   6.946   1.338
51171W        W55132  14.272   4.543   2.210
51172W        W55133  12.909   6.890   2.977
51173W        W55134  14.252   5.949   0.182
51174W        W55135  12.687   5.432   1.243
51175W        W55136  14.539   3.943   2.984
51176W        W55137  12.688   5.778   2.578
51177W        W55138  12.905   4.664   2.023
51178W        W55139  13.757   4.962   0.861
51179W        W55140  14.044   4.695   0.503
51180W        W55141  13.853   6.735   0.892
51181W        W55142  13.687   6.338   1.688
51182W        W55143  13.583   5.417   0.666
51183W        W55144  13.016   5.627   1.652
51184W        W55145  13.897   5.415   1.719
51185W        W55146  11.272   4.430   2.143
51186W        W55147  14.050   5.482   2.970
51187W        W55148  14.401   7.100   2.116
51188W        W55149  12.331   6.544   1.518
51189W        W55150  13.338   7.077   2.842
51190W        W55151  13.332   4.407   2.606
51191W        W55152  12.539   7.115   2.667
51192W        W55153  14.236   4.069   1.133
51193W        W55154  14.027   5.388   2.434
51194W        W55155  11.010   4.709   2.472
51195W        W55156  13.870   4.504   1.490
51196W        W55157  14.281   4.655   3.267
51197W        W55158  13.166   6.354   1.485
51198W        W55159  12.422   6.945   1.098
51199W        W55160  11.537   4.125   0.356
51200W        W55161  12.641   3.779   2.166
51201W        W55162  11.669   6.899   0.014
51202W        W55163  12.043   5.365   0.765
51203W        W55164  12.697   5.994   3.078
51204W        W55165  12.527   4.352   1.068
51205W        W55166  13.883   3.949   1.496
51206W        W55167  13.603   7.231   1.824
51207W        W55168  13.015   6.879   2.164
51208W        W55169  12.411   5.916   2.125
51209W        W55170  14.181   6.639   2.251
51210W        W55171  11.875   4.142   1.020
51211W        W55172  12.397   6.439   1.980
51212W        W55173  11.880   4.370   0.045
51213W        W55174  12.681   4.979   2.439
51214W        W55175  13.529   3.845   2.309
51215W        W55176  10.949   5.688   2.194
51216W        W55177  12.653   5.506   0.352
51217W        W55178  11.921   3.821   0.122
51218W        W55179  12.659   4.902   1.173
51219W        W55180  13.629   3.878   2.872
51220W        W55181  12.217   5.890   2.981
51221W        W55182  13.021   5.672   3.198
51222W        W55183  13.638   5.702   3.091
51223W        W55184  12.922   3.842   3.596
51224W        W55185  12.144   4.458   1.989
51225W        W55186  11.570   4.414   1.387
51226W        W55187  11.356   7.126   1.063
51227W        W55188  12.688   6.456   3.188
51228W        W55189  11.723   5.941   0.547
51229W        W55190  13.403   5.326   1.768
51230W        W55191  13.683   5.125   2.167
51231W        W55192  12.888   5.799   2.101
51232W        W55193  13.358   6.173   0.233
51233W        W55194  13.030   4.194   1.561
51234W        W55195  14.509   4.472   0.829
51235W        W55196  11.003   7.061   2.860
51236W        W55197  11.420   6.287   2.392
51237W        W55198  10.987   7.133   0.624
51238W        W55199  12.886   4.403   2.430
51239W        W55200  12.249   6.426   0.279
51240W        W55201  14.154   6.808   0.465
51241W        W55202  13.129   5.461   0.479
51242W        W55203  11.972   4.652   0.996
51243W        W55204  12.804   4.562   0.048
51244W        W55205  13.388   6.127   3.226
51245W        W55206  13.741   4.033   0.843
51246W        W55207  11.071   3.881   0.291
51247W        W55208  12.357   6.200   2.581
51248W        W55209  12.156   6.116   1.673
51249W        W55210  11.898   6.068   0.071
51250W        W55211  11.139   6.309   0.839
51251W        W55212  11.643   5.379   3.281
51252W        W55213  12.347   3.939   3.467
51253W        W55214  13.056   4.081   2.823
51254W        W55215  12.251   3.849   1.104
51255W        W55216  13.310   3.926   0.609
51256W        W55217  11.255   3.858   2.186
51257W        W55218  11.303   4.821   1.556
51258W        W55219  13.992   3.929   1.962
51259W        W55220  11.414   4.427   0.776
51260W        W55221  13.985   4.115   2.392
51261W        W55222  14.381   5.318   0.077
51262W        W55223  11.673   4.076   1.896
51263W        W55224  12.787   4.648   2.836
51264W        W55225  10.935   4.338   0.314
51265W        W55226  11.721   5.727   2.875
51266W        W55227  13.079   5.125   2.054
51267W        W55228  12.946   7.204   0.350
51268W        W55229  11.092   5.711   0.047
51269W        W55230  11.827   6.122   3.173
51270W        W55231  11.348   5.289   2.804
51271W        W55232  12.339   5.394   2.598
51272W        W55233  14.107   3.753   2.860
51273W        W55234  14.505   5.363   2.851
51274W        W55235  14.493   5.563   0.537
51275W        W55236  13.356   5.895   0.636
51276W        W55237  13.830   7.195   0.331
51277W        W55238  13.007   5.185   3.473
51278W        W55239  11.337   6.152   3.513
51279W        W55240  14.543   4.074   3.465
51280W        W55241  14.261   5.002   2.086
51281W        W55242  12.569   7.132   3.563
51282W        W55243  12.424   3.761   0.290
51283W        W55244  13.963   6.360   0.233
51284W        W55245  11.732   4.453   3.119
51285W        W55246  12.166   6.447   2.981
51286W        W55247  14.292   4.438   2.779
51287W        W55248  13.503   7.097   0.747
51288W        W55249  13.742   5.716   2.114
51289W        W55250  11.992   4.132   2.781
51290W        W55251  12.461   5.201   3.538
51291W        W55252  11.964   6.380   0.732
51292W        W55253  13.719   5.878   0.996
51293W        W55254  11.487   4.504   2.720
51294W        W55255  12.816   6.566   1.184
51295W        W55256  14.566   5.126   1.365
51296W        W55257  12.788   3.759   3.084
51297W        W55258  13.568   6.464   2.163
51298W        W55259  13.871   6.808   1.871
51299W        W55260  13.090   6.610   0.299
51300W        W55261  11.100   6.502   3.141
51301W        W55262  11.843   4.494   2.379
51302W        W55263  11.813   3.842   1.489
51303W        W55264  13.434   4.684   2.181
51304W        W55265  12.232   5.855   0.381
51305W        W55266  14.230   5.797   1.880
51306W        W55267  11.557   6.555   3.303
51307W        W55268  13.944   7.237   1.100
51308W        W55269  12.043   4.257   1.545
51309W        W55270  11.812   5.750   1.635
51310W        W55271  12.125   7.161   2.385
51311W        W55272  14.192   7.257   3.417
51312W        W55273  13.351   5.445   2.350
51313W        W55274  11.200   5.243   0.265
51314W        W55275  14.334   6.901   0.962
51315W        W55276  14.171   4.225   0.581
51316W        W55277  12.310   3.744   2.984
51317W        W55278  14.016   6.546   1.442
51318W        W55279  14.045   5.102   1.347
51319W        W55280  12.162   4.775   1.563
51320W        W55281  12.407   5.037   2.887
51321W        W55282  13.518   6.190   2.750
51322W        W55283  12.168   4.644   2.862
51323W        W55284  12.147   7.110   1.478
51324W        W55285  11.464   7.069   3.112
51325W        W55286  11.576   6.430   0.242
51326W        W55287  14.093   6.188   1.052
51327W        W55288  11.697   4.980   2.938
51328W        W55289  14.470   4.910   0.419
51329W        W55290  12.215   5.967   0.890
51330W        W55291  13.314   5.349   2.971
51331W        W55292  13.205   4.977   2.515
51332W        W55293  11.765   5.349   2.544
51333W        W55294  13.975   7.237   2.373
51334W        W55295  13.766   3.871   3.367
51335W        W55296  11.430   4.021   2.954
51336W        W55297  11.769   5.044   2.007
51337W        W55298  12.138   4.858   0.129
51338W        W55299  10.941   6.617   2.674
51339W        W55300  12.526   5.326   2.117
51340W        W55301  12.349   4.351   0.222
51341W        W55302  11.484   5.167   1.003
51342W        W55303  11.255   7.019   2.440
51343W        W55304  14.050   5.245   0.548
51344W        W55305  14.145   4.161   3.234
51345W        W55306  13.581   6.370   1.197
51346W        W55307  11.179   5.294   3.374
51347W        W55308  14.145   3.758   0.670
51348W        W55309  13.665   6.233   0.681
51349W        W55310  12.567   5.291   0.766
51350W        W55311  13.754   4.095   0.289
51351W        W55312  13.819   4.702   2.475
51352W        W55313  11.528   5.295   1.682
51353W        W55314  11.822   6.234   1.331
51354W        W55315  13.585   4.854   1.296
51355W        W55316  12.608   4.233   1.992
51356W        W55317  14.570   6.144   2.503
51357W        W55318  14.488   4.131   2.064
51358W        W55319  11.027   6.961   1.440
51359W        W55320  11.536   6.148   0.976
51360W        W55321  11.451   3.765   3.529
51361W        W55322  12.570   6.618   3.631
51362W        W55323  14.325   5.586   1.421
51363W        W55324  13.679   5.763   0.301
51364W        W55325  12.974   7.284   2.513
51365W        W55326  13.831   6.006   3.550
51366W        W55327  12.646   3.716   0.830
51367W        W55328  13.359   4.585   1.689
51368W        W55329  11.045   6.172   2.021
51369W        W55330  12.298   4.134   0.662
51370W        W55331  12.102   5.618   3.511
51371W        W55332  13.096   4.599   1.225
51372W        W55333  13.301   6.009   2.347
51373W        W55334  11.455   6.614   2.782
51374W        W55335  12.046   6.597   3.505
51375W        W55336  11.897   4.394   0.519
51376W        W55337  13.414   4.536   0.844
51377W        W55338  13.372   6.644   3.081
51378W        W55339  12.057   5.236   1.680
51379W        W55340  11.712   6.934   2.545
51380W        W55341  14.457   7.051   0.146
51381W        W55342  11.320   5.723   3.142
51382W        W55343  13.315   5.985   1.830
51383W        W55344  11.751   5.634   1.072
51384W        W55345  12.122   6.641   2.467
51385W        W55346  12.500   4.060   1.508
51386W        W55347  11.111   6.044   0.438
51387W        W55348  12.630   4.995   0.308
51388W        W55349  11.276   5.544   1.327
51389W        W55350  12.566   4.186   2.791
51390W        W55351  14.238   3.895   0.218
51391W        W55352  14.331   5.641   3.317
51392W        W55353  12.985   6.898   3.469
51393W        W55354  14.543   5.992   2.991
51394W        W55355  13.951   6.790   3.602
51395W        W55356  11.690   7.246   2.080
51396W        W55357  14.549   5.868   0.954
51397W        W55358  13.079   5.135   1.467
51398W        W55359  12.846   3.747   1.357
51399W        W55360  11.905   6.731   1.194
51400W        W55361  12.404   4.472   2.419
51401W        W55362  12.104   3.841   1.888
51402W        W55363  11.167   6.663   0.436
51403W        W55364  12.983   6.027   1.154
51404W        W55365  11.858   6.822   3.033
51405W        W55366  11.335   5.645   0.729
51406W        W55367  11.220   4.188   1.728
51407W        W55368  12.768   6.153   1.785
51408W        W55369  11.020   4.007   0.805
51409W        W55370  13.684   5.213   2.732
51410W        W55371  13.561   4.599   0.304
51411W        W55372  14.078   6.271   1.952
51412W        W55373  12.739   6.755   1.783
51413W        W55374  12.151   6.859   0.694
51414W        W55375  13.433   3.762   0.124
51415W        W55376  11.233   7.022   1.865
51416W        W55377  13.430   4.780   3.500
51417W        W55378  11.413   4.310   3.499
51418W        W55379  11.144   4.910   0.832
51419W        W55380  11.835   4.899   0.557
51420W        W55381  13.598   5.226   3.374
51421W        W55382  11.941   5.507   2.083
51422W        W55383  13.415   3.793   1.203
51423W        W55384  12.546   7.224   1.706
51424W        W55385  13.760   6.686   2.643
51425W        W55386  13.344   6.835   1.754
51426W        W55387  13.363   5.815   1.348
51427W        W55388  12.825   4.040   0.419
51428W        W55389  14.506   3.668   1.141
51429W        W55390  12.194   5.303   0.304
51430W        W55391  14.360   4.640   1.294
51431W        W55392  13.052   5.810   0.171
51432W        W55393  13.988   6.010   2.919
51433W        W55394  13.642   6.711   0.386
51434W        W55395  12.257   4.386   3.292
51435W        W55396  12.077   4.970   2.533
51436W        W55397  14.169   6.465   2.810
51437W        W55398  13.269   4.415   3.187
51438W        W55399  11.113   4.886   2.964
51439W        W55400  12.873   5.363   2.690
51440W        W55401  11.230   6.121   1.347
51441W        W55402  11.377   5.418   2.237
51442W        W55403  13.694   5.704   2.587
51443W        W55404  13.466   7.084   3.398
51444W        W55405  13.362   4.823   2.951
51445W        W55406  13.639   6.877   1.356
51446W        W55407  12.641   6.597   2.679
51447W        W55408  12.126   6.952   1.948
51448W        W55409  13.931   6.123   2.367
51449W        W55410  12.981   6.195   3.504
51450W        W55411  11.586   6.148   1.843
51451W        W55412  13.932   5.907   1.488
51452W        W55413  13.573   6.973   2.239
51453W        W55414  11.551   6.702   2.109
51454W        W55415  12.572   4.754   3.319
51455W        W55416  13.023   6.920   0.830
51456W        W55417  12.331   6.175   3.468
51457W        W55418  12.457   6.413   0.845
51458W        W55419  11.678   5.153   0.104
51459W        W55420  11.017   7.239   7.003
51460W        W55421  11.393   6.132   6.526
51461W        W55422  14.098   5.862   4.296
51462W        W55423  14.228   6.947   6.323
51463W        W55424  12.146   6.938   3.849
51464W        W55425  12.229   5.090   4.832
51465W        W55426  11.744   4.938   4.996
51466W        W55427  12.735   5.753   4.430
51467W        W55428  12.410   6.845   6.785
51468W        W55429  11.059   4.406   6.748
51469W        W55430  11.821   3.686   6.550
51470W        W55431  13.515   4.074   5.437
51471W        W55432  13.164   4.945   4.007
51472W        W55433  13.734   4.379   7.098
51473W        W55434  11.100   4.171   6.223
51474W        W55435  11.199   6.790   7.244
51475W        W55436  12.721   6.180   3.976
51476W        W55437  11.153   4.963   5.669
51477W        W55438  12.046   4.854   6.906
51478W        W55439  14.505   4.713   5.405
51479W        W55440  14.269   5.756   6.264
51480W        W55441  12.577   5.089   5.291
51481W        W55442  13.123   6.428   5.660
51482W        W55443  11.623   5.862   5.892
51483W        W55444  10.982   5.390   5.463
51484W        W55445  12.018   5.362   6.655
51485W        W55446  14.289   5.145   6.909
51486W        W55447  11.905   6.589   5.354
51487W        W55448  13.026   6.278   6.488
51488W        W55449  12.246   4.918   5.713
51489W        W55450  12.538   5.702   5.356
51490W        W55451  13.535   6.475   7.204
51491W        W55452  12.614   5.795   7.214
51492W        W55453  12.595   5.511   6.692
51493W        W55454  11.004   4.902   7.214
51494W        W55455  13.836   6.437   6.813
51495W        W55456  11.417   4.019   4.811
51496W        W55457  11.944   6.277   5.810
51497W        W55458  14.407   6.060   5.100
51498W        W55459  13.820   4.460   5.667
51499W        W55460  14.105   4.413   3.762
51500W        W55461  14.570   5.214   6.068
51501W        W55462  12.537   6.921   5.821
51502W        W55463  14.311   6.387   4.259
51503W        W55464  11.440   7.173   4.013
51504W        W55465  11.833   7.219   4.689
51505W        W55466  11.630   3.973   6.115
51506W        W55467  14.253   4.991   6.390
51507W        W55468  13.658   5.413   4.849
51508W        W55469  13.624   5.101   3.876
51509W        W55470  12.832   6.245   6.016
51510W        W55471  12.638   4.575   5.215
51511W        W55472  13.238   6.662   6.209
51512W        W55473  14.109   5.453   4.631
51513W        W55474  13.011   4.111   4.647
51514W        W55475  11.668   6.805   4.330
51515W        W55476  11.039   4.304   4.929
51516W        W55477  13.825   4.911   5.403
51517W        W55478  11.283   6.528   5.318
51518W        W55479  12.624   6.878   4.188
51519W        W55480  14.016   4.904   3.652
51520W        W55481  11.039   6.662   5.816
51521W        W55482  11.830   6.234   6.296
51522W        W55483  12.203   5.594   4.915
51523W        W55484  12.225   3.999   6.008
51524W        W55485  14.454   3.761   5.305
51525W        W55486  11.673   5.633   3.773
51526W        W55487  11.328   4.666   3.952
51527W        W55488  11.390   6.622   4.746
51528W        W55489  12.521   6.105   4.994
51529W        W55490  13.853   6.964   6.708
51530W        W55491  12.779   4.606   4.392
51531W        W55492  14.162   7.004   5.164
51532W        W55493  13.839   4.857   6.762
51533W        W55494  14.552   6.513   4.896
51534W        W55495  13.179   5.805   6.380
51535W        W55496  10.945   5.356   4.586
51536W        W55497  12.056   5.771   6.159
51537W        W55498  13.260   5.035   4.537
51538W        W55499  13.137   5.525   4.641
51539W        W55500  11.480   4.945   6.115
51540W        W55501  11.465   4.821   7.037
51541W        W55502  11.355   3.738   5.196
51542W        W55503  13.123   4.085   5.757
51543W        W55504  12.771   4.270   6.920
51544W        W55505  13.126   4.419   4.098
51545W        W55506  14.309   6.812   6.852
51546W        W55507  13.276   3.893   6.891
51547W        W55508  14.295   6.194   7.013
51548W        W55509  13.725   4.361   6.609
51549W        W55510  13.525   4.299   4.879
51550W        W55511  13.918   5.433   7.283
51551W        W55512  11.658   7.009   5.269
51552W        W55513  12.316   4.726   4.255
51553W        W55514  11.885   4.010   6.919
51554W        W55515  13.937   4.494   4.600
51555W        W55516  14.304   4.976   4.545
51556W        W55517  12.047   7.193   7.016
51557W        W55518  11.973   3.729   4.251
51558W        W55519  14.294   4.263   5.286
51559W        W55520  14.444   6.512   3.731
51560W        W55521  11.351   5.715   5.433
51561W        W55522  13.268   4.302   3.663
51562W        W55523  14.402   6.634   5.383
51563W        W55524  14.441   3.828   6.133
51564W        W55525  12.886   5.040   6.687
51565W        W55526  12.979   6.379   4.390
51566W        W55527  13.379   5.673   7.130
51567W        W55528  13.053   3.650   5.439
51568W        W55529  11.665   4.553   5.502
51569W        W55530  11.219   5.753   6.276
51570W        W55531  13.078   6.946   4.982
51571W        W55532  14.272   4.543   5.854
51572W        W55533  12.909   6.890   6.621
51573W        W55534  14.252   5.949   3.826
51574W        W55535  12.687   5.432   4.887
51575W        W55536  14.539   3.943   6.628
51576W        W55537  12.688   5.778   6.222
51577W        W55538  12.905   4.664   5.667
51578W        W55539  13.757   4.962   4.505
51579W        W55540  14.044   4.695   4.147
51580W        W55541  13.853   6.735   4.536
51581W        W55542  13.687   6.338   5.332
51582W        W55543  13.583   5.417   4.310
51583W        W55544  13.016   5.627   5.296
51584W        W55545  13.897   5.415   5.363
51585W        W55546  11.272   4.430   5.787
51586W        W55547  14.050   5.482   6.614
51587W        W55548  14.401   7.100   5.760
51588W        W55549  12.331   6.544   5.162
51589W        W55550  13.338   7.077   6.486
51590W        W55551  13.332   4.407   6.250
51591W        W55552  12.539   7.115   6.311
51592W        W55553  14.236   4.069   4.777
51593W        W55554  14.027   5.388   6.078
51594W        W55555  11.010   4.709   6.116
51595W        W55556  13.870   4.504   5.134
51596W        W55557  14.281   4.655   6.911
51597W        W55558  13.166   6.354   5.129
51598W        W55559  12.422   6.945   4.742
51599W        W55560  11.537   4.125   4.000
51600W        W55561  12.641   3.779   5.810
51601W        W55562  11.669   6.899   3.658
51602W        W55563  12.043   5.365   4.409
51603W        W55564  12.697   5.994   6.722
51604W        W55565  12.527   4.352   4.712
51605W        W55566  13.883   3.949   5.140
51606W        W55567  13.603   7.231   5.468
51607W        W55568  13.015   6.879   5.808
51608W        W55569  12.411   5.916   5.769
51609W        W55570  14.181   6.639   5.895
51610W        W55571  11.875   4.142   4.664
51611W        W55572  12.397   6.439   5.624
51612W        W55573  11.880   4.370   3.689
51613W        W55574  12.681   4.979   6.083
51614W        W55575  13.529   3.845   5.953
51615W        W55576  10.949   5.688   5.838
51616W        W55577  12.653   5.506   3.996
51617W        W55578  11.921   3.821   3.766
51618W        W55579  12.659   4.902   4.817
51619W        W55580  13.629   3.878   6.516
51620W        W55581  12.217   5.890   6.625
51621W        W55582  13.021   5.672   6.842
51622W        W55583  13.638   5.702   6.735
51623W        W55584  12.922   3.842   7.240
51624W        W55585  12.144   4.458   5.633
51625W        W55586  11.570   4.414   5.031
51626W        W55587  11.356   7.126   4.707
51627W        W55588  12.688   6.456   6.832
51628W        W55589  11.723   5.941   4.191
51629W        W55590  13.403   5.326   5.412
51630W        W55591  13.683   5.125   5.811
51631W        W55592  12.888   5.799   5.745
51632W        W55593  13.358   6.173   3.877
51633W        W55594  13.030   4.194   5.205
51634W        W55595  14.509   4.472   4.473
51635W        W55596  11.003   7.061   6.504
51636W        W55597  11.420   6.287   6.036
51637W        W55598  10.987   7.133   4.268
51638W        W55599  12.886   4.403   6.074
51639W        W55600  12.249   6.426   3.923
51640W        W55601  14.154   6.808   4.109
51641W        W55602  13.129   5.461   4.123
51642W        W55603  11.972   4.652   4.640
51643W        W55604  12.804   4.562   3.692
51644W        W55605  13.388   6.127   6.870
51645W        W55606  13.741   4.033   4.487
51646W        W55607  11.071   3.881   3.935
51647W        W55608  12.357   6.200   6.225
51648W        W55609  12.156   6.116   5.317
51649W        W55610  11.898   6.068   3.715
51650W        W55611  11.139   6.309   4.483
51651W        W55612  11.643   5.379   6.925
51652W        W55613  12.347   3.939   7.111
51653W        W55614  13.056   4.081   6.467
51654W        W55615  12.251   3.849   4.748
51655W        W55616  13.310   3.926   4.253
51656W        W55617  11.255   3.858   5.830
51657W        W55618  11.303   4.821   5.200
51658W        W55619  13.992   3.929   5.606
51659W        W55620  11.414   4.427   4.420
51660W        W55621  13.985   4.115   6.036
51661W        W55622  14.381   5.318   3.721
51662W        W55623  11.673   4.076   5.540
51663W        W55624  12.787   4.648   6.480
51664W        W55625  10.935   4.338   3.958
51665W        W55626  11.721   5.727   6.519
51666W        W55627  13.079   5.125   5.698
51667W        W55628  12.946   7.204   3.994
51668W        W55629  11.092   5.711   3.691
51669W        W55630  11.827   6.122   6.817
51670W        W55631  11.348   5.289   6.448
51671W        W55632  12.339   5.394   6.242
51672W        W55633  14.107   3.753   6.504
51673W        W55634  14.505   5.363   6.495
51674W        W55635  14.493   5.563   4.181
51675W        W55636  13.356   5.895   4.280
51676W        W55637  13.830   7.195   3.975
51677W        W55638  13.007   5.185   7.117
51678W        W55639  11.337   6.152   7.157
51679W        W55640  14.543   4.074   7.109
51680W        W55641  14.261   5.002   5.730
51681W        W55642  12.569   7.132   7.207
51682W        W55643  12.424   3.761   3.934
51683W        W55644  13.963   6.360   3.877
51684W        W55645  11.732   4.453   6.763
51685W        W55646  12.166   6.447   6.625
51686W        W55647  14.292   4.438   6.423
51687W        W55648  13.503   7.097   4.391
51688W        W55649  13.742   5.716   5.758
51689W        W55650  11.992   4.132   6.425
51690W        W55651  12.461   5.201   7.182
51691W        W55652  11.964   6.380   4.376
51692W        W55653  13.719   5.878   4.640
51693W        W55654  11.487   4.504   6.364
51694W        W55655  12.816   6.566   4.828
51695W        W55656  14.566   5.126   5.009
51696W        W55657  12.788   3.759   6.728
51697W        W55658  13.568   6.464   5.807
51698W        W55659  13.871   6.808   5.515
51699W        W55660  13.090   6.610   3.943
51700W        W55661  11.100   6.502   6.785
51701W        W55662  11.843   4.494   6.023
51702W        W55663  11.813   3.842   5.133
51703W        W55664  13.434   4.684   5.825
51704W        W55665  12.232   5.855   4.025
51705W        W55666  14.230   5.797   5.524
51706W        W55667  11.557   6.555   6.947
51707W        W55668  13.944   7.237   4.744
51708W        W55669  12.043   4.257   5.189
51709W        W55670  11.812   5.750   5.279
51710W        W55671  12.125   7.161   6.029
51711W        W55672  14.192   7.257   7.061
51712W        W55673  13.351   5.445   5.994
51713W        W55674  11.200   5.243   3.909
51714W        W55675  14.334   6.901   4.606
51715W        W55676  14.171   4.225   4.225
51716W        W55677  12.310   3.744   6.628
51717W        W55678  14.016   6.546   5.086
51718W        W55679  14.045   5.102   4.991
51719W        W55680  12.162   4.775   5.207
51720W        W55681  12.407   5.037   6.531
51721W        W55682  13.518   6.190   6.394
51722W        W55683  12.168   4.644   6.506
51723W        W55684  12.147   7.110   5.122
51724W        W55685  11.464   7.069   6.756
51725W        W55686  11.576   6.430   3.886
51726W        W55687  14.093   6.188   4.696
51727W        W55688  11.697   4.980   6.582
51728W        W55689  14.470   4.910   4.063
51729W        W55690  12.215   5.967   4.534
51730W        W55691  13.314   5.349   6.615
51731W        W55692  13.205   4.977   6.159
51732W        W55693  11.765   5.349   6.188
51733W        W55694  13.975   7.237   6.017
51734W        W55695  13.766   3.871   7.011
51735W        W55696  11.430   4.021   6.598
51736W        W55697  11.769   5.044   5.651
51737W        W55698  12.138   4.858   3.773
51738W        W55699  10.941   6.617   6.318
51739W        W55700  12.526   5.326   5.761
51740W        W55701  12.349   4.351   3.866
51741W        W55702  11.484   5.167   4.647
51742W        W55703  11.255   7.019   6.084
51743W        W55704  14.050   5.245   4.192
51744W        W55705  14.145   4.161   6.878
51745W        W55706  13.581   6.370   4.841
51746W        W55707  11.179   5.294   7.018
51747W        W55708  14.145   3.758   4.314
51748W        W55709  13.665   6.233   4.325
51749W        W55710  12.567   5.291   4.410
51750W        W55711  13.754   4.095   3.933
51751W        W55712  13.819   4.702   6.119
51752W        W55713  11.528   5.295   5.326
51753W        W55714  11.822   6.234   4.975
51754W        W55715  13.585   4.854   4.940
51755W        W55716  12.608   4.233   5.636
51756W        W55717  14.570   6.144   6.147
51757W        W55718  14.488   4.131   5.708
51758W        W55719  11.027   6.961   5.084
51759W        W55720  11.536   6.148   4.620
51760W        W55721  11.451   3.765   7.173
51761W        W55722  12.570   6.618   7.275
51762W        W55723  14.325   5.586   5.065
51763W        W55724  13.679   5.763   3.945
51764W        W55725  12.974   7.284   6.157
51765W        W55726  13.831   6.006   7.194
51766W        W55727  12.646   3.716   4.474
51767W        W55728  13.359   4.585   5.333
51768W        W55729  11.045   6.172   5.665
51769W        W55730  12.298   4.134   4.306
51770W        W55731  12.102   5.618   7.155
51771W        W55732  13.096   4.599   4.869
51772W        W55733  13.301   6.009   5.991
51773W        W55734  11.455   6.614   6.426
51774W        W55735  12.046   6.597   7.149
51775W        W55736  11.897   4.394   4.163
51776W        W55737  13.414   4.536   4.488
51777W        W55738  13.372   6.644   6.725
51778W        W55739  12.057   5.236   5.324
51779W        W55740  11.712   6.934   6.189
51780W        W55741  14.457   7.051   3.790
51781W        W55742  11.320   5.723   6.786
51782W        W55743  13.315   5.985   5.474
51783W        W55744  11.751   5.634   4.716
51784W        W55745  12.122   6.641   6.111
51785W        W55746  12.500   4.060   5.152
51786W        W55747  11.111   6.044   4.082
51787W        W55748  12.630   4.995   3.952
51788W        W55749  11.276   5.544   4.971
51789W        W55750  12.566   4.186   6.435
51790W        W55751  14.238   3.895   3.862
51791W        W55752  14.331   5.641   6.961
51792W        W55753  12.985   6.898   7.113
51793W        W55754  14.543   5.992   6.635
51794W        W55755  13.951   6.790   7.246
51795W        W55756  11.690   7.246   5.724
51796W        W55757  14.549   5.868   4.598
51797W        W55758  13.079   5.135   5.111
51798W        W55759  12.846   3.747   5.001
51799W        W55760  11.905   6.731   4.838
51800W        W55761  12.404   4.472   6.063
51801W        W55762  12.104   3.841   5.532
51802W        W55763  11.167   6.663   4.080
51803W        W55764  12.983   6.027   4.798
51804W        W55765  11.858   6.822   6.677
51805W        W55766  11.335   5.645   4.373
51806W        W55767  11.220   4.188   5.372
51807W        W55768  12.768   6.153   5.429
51808W        W55769  11.020   4.007   4.449
51809W        W55770  13.684   5.213   6.376
51810W        W55771  13.561   4.599   3.948
51811W        W55772  14.078   6.271   5.596
51812W        W55773  12.739   6.755   5.427
51813W        W55774  12.151   6.859   4.338
51814W        W55775  13.433   3.762   3.768
51815W        W55776  11.233   7.022   5.509
51816W        W55777  13.430   4.780   7.144
51817W        W55778  11.413   4.310   7.143
51818W        W55779  11.144   4.910   4.476
51819W        W55780  11.835   4.899   4.201
51820W        W55781  13.598   5.226   7.018
51821W        W55782  11.941   5.507   5.727
51822W        W55783  13.415   3.793   4.847
51823W        W55784  12.546   7.224   5.350
51824W        W55785  13.760   6.686   6.287
51825W        W55786  13.344   6.835   5.398
51826W        W55787  13.363   5.815   4.992
51827W        W55788  12.825   4.040   4.063
51828W        W55789  14.506   3.668   4.785
51829W        W55790  12.194   5.303   3.948
51830W        W55791  14.360   4.640   4.938
51831W        W55792  13.052   5.810   3.815
51832W        W55793  13.988   6.010   6.563
51833W        W55794  13.642   6.711   4.030
51834W        W55795  12.257   4.386   6.936
51835W        W55796  12.077   4.970   6.177
51836W        W55797  14.169   6.465   6.454
51837W        W55798  13.269   4.415   6.831
51838W        W55799  11.113   4.886   6.608
51839W        W55800  12.873   5.363   6.334
51840W        W55801  11.230   6.121   4.991
51841W        W55802  11.377   5.418   5.881
51842W        W55803  13.694   5.704   6.231
51843W        W55804  13.466   7.084   7.042
51844W        W55805  13.362   4.823   6.595
51845W        W55806  13.639   6.877   5.000
51846W        W55807  12.641   6.597   6.323
51847W        W55808  12.126   6.952   5.592
51848W        W55809  13.931   6.123   6.011
51849W        W55810  12.981   6.195   7.148
51850W        W55811  11.586   6.148   5.487
51851W        W55812  13.932   5.907   5.132
51852W        W55813  13.573   6.973   5.883
51853W        W55814  11.551   6.702   5.753
51854W        W55815  12.572   4.754   6.963
51855W        W55816  13.023   6.920   4.474
51856W        W55817  12.331   6.175   7.112
51857W        W55818  12.457   6.413   4.489
51858W        W55819  11.678   5.153   3.748
51859W        W55820  11.017   7.239  10.648
51860W        W55821  11.393   6.132  10.171
51861W        W55822  14.098   5.862   7.941
51862W        W55823  14.228   6.947   9.968
51863W        W55824  12.146   6.938   7.494
51864W        W55825  12.229   5.090   8.477
51865W        W55826  11.744   4.938   8.641
51866W        W55827  12.735   5.753   8.075
51867W        W55828  12.410   6.845  10.430
51868W        W55829  11.059   4.406  10.393
51869W        W55830  11.821   3.686  10.195
51870W        W55831  13.515   4.074   9.082
51871W        W55832  13.164   4.945   7.652
51872W        W55833  13.734   4.379  10.743
51873W        W55834  11.100   4.171   9.868
51874W        W55835  11.199   6.790  10.889
51875W        W55836  12.721   6.180   7.621
51876W        W55837  11.153   4.963   9.314
51877W        W55838  12.046   4.854  10.551
51878W        W55839  14.505   4.713   9.050
51879W        W55840  14.269   5.756   9.909
51880W        W55841  12.577   5.089   8.936
51881W        W55842  13.123   6.428   9.305
51882W        W55843  11.623   5.862   9.537
51883W        W55844  10.982   5.390   9.108
51884W        W55845  12.018   5.362  10.300
51885W        W55846  14.289   5.145  10.554
51886W        W55847  11.905   6.589   8.999
51887W        W55848  13.026   6.278  10.133
51888W        W55849  12.246   4.918   9.358
51889W        W55850  12.538   5.702   9.001
51890W        W55851  13.535   6.475  10.849
51891W        W55852  12.614   5.795  10.859
51892W        W55853  12.595   5.511  10.337
51893W        W55854  11.004   4.902  10.859
51894W        W55855  13.836   6.437  10.458
51895W        W55856  11.417   4.019   8.456
51896W        W55857  11.944   6.277   9.455
51897W        W55858  14.407   6.060   8.745
51898W        W55859  13.820   4.460   9.312
51899W        W55860  14.105   4.413   7.407
51900W        W55861  14.570   5.214   9.713
51901W        W55862  12.537   6.921   9.466
51902W        W55863  14.311   6.387   7.904
51903W        W55864  11.440   7.173   7.658
51904W        W55865  11.833   7.219   8.334
51905W        W55866  11.630   3.973   9.760
51906W        W55867  14.253   4.991  10.035
51907W        W55868  13.658   5.413   8.494
51908W        W55869  13.624   5.101   7.521
51909W        W55870  12.832   6.245   9.661
51910W        W55871  12.638   4.575   8.860
51911W        W55872  13.238   6.662   9.854
51912W        W55873  14.109   5.453   8.276
51913W        W55874  13.011   4.111   8.292
51914W        W55875  11.668   6.805   7.975
51915W        W55876  11.039   4.304   8.574
51916W        W55877  13.825   4.911   9.048
51917W        W55878  11.283   6.528   8.963
51918W        W55879  12.624   6.878   7.833
51919W        W55880  14.016   4.904   7.297
51920W        W55881  11.039   6.662   9.461
51921W        W55882  11.830   6.234   9.941
51922W        W55883  12.203   5.594   8.560
51923W        W55884  12.225   3.999   9.653
51924W        W55885  14.454   3.761   8.950
51925W        W55886  11.673   5.633   7.418
51926W        W55887  11.328   4.666   7.597
51927W        W55888  11.390   6.622   8.391
51928W        W55889  12.521   6.105   8.639
51929W        W55890  13.853   6.964  10.353
51930W        W55891  12.779   4.606   8.037
51931W        W55892  14.162   7.004   8.809
51932W        W55893  13.839   4.857  10.407
51933W        W55894  14.552   6.513   8.541
51934W        W55895  13.179   5.805  10.025
51935W        W55896  10.945   5.356   8.231
51936W        W55897  12.056   5.771   9.804
51937W        W55898  13.260   5.035   8.182
51938W        W55899  13.137   5.525   8.286
51939W        W55900  11.480   4.945   9.760
51940W        W55901  11.465   4.821  10.682
51941W        W55902  11.355   3.738   8.841
51942W        W55903  13.123   4.085   9.402
51943W        W55904  12.771   4.270  10.565
51944W        W55905  13.126   4.419   7.743
51945W        W55906  14.309   6.812  10.497
51946W        W55907  13.276   3.893  10.536
51947W        W55908  14.295   6.194  10.658
51948W        W55909  13.725   4.361  10.254
51949W        W55910  13.525   4.299   8.524
51950W        W55911  13.918   5.433  10.928
51951W        W55912  11.658   7.009   8.914
51952W        W55913  12.316   4.726   7.900
51953W        W55914  11.885   4.010  10.564
51954W        W55915  13.937   4.494   8.245
51955W        W55916  14.304   4.976   8.190
51956W        W55917  12.047   7.193  10.661
51957W        W55918  11.973   3.729   7.896
51958W        W55919  14.294   4.263   8.931
51959W        W55920  14.444   6.512   7.376
51960W        W55921  11.351   5.715   9.078
51961W        W55922  13.268   4.302   7.308
51962W        W55923  14.402   6.634   9.028
51963W        W55924  14.441   3.828   9.778
51964W        W55925  12.886   5.040  10.332
51965W        W55926  12.979   6.379   8.035
51966W        W55927  13.379   5.673  10.775
51967W        W55928  13.053   3.650   9.084
51968W        W55929  11.665   4.553   9.147
51969W        W55930  11.219   5.753   9.921
51970W        W55931  13.078   6.946   8.627
51971W        W55932  14.272   4.543   9.499
51972W        W55933  12.909   6.890  10.266
51973W        W55934  14.252   5.949   7.471
51974W        W55935  12.687   5.432   8.532
51975W        W55936  14.539   3.943  10.273
51976W        W55937  12.688   5.778   9.867
51977W        W55938  12.905   4.664   9.312
51978W        W55939  13.757   4.962   8.150
51979W        W55940  14.044   4.695   7.792
51980W        W55941  13.853   6.735   8.181
51981W        W55942  13.687   6.338   8.977
51982W        W55943  13.583   5.417   7.955
51983W        W55944  13.016   5.627   8.941
51984W        W55945  13.897   5.415   9.008
51985W        W55946  11.272   4.430   9.432
51986W        W55947  14.050   5.482  10.259
51987W        W55948  14.401   7.100   9.405
51988W        W55949  12.331   6.544   8.807
51989W        W55950  13.338   7.077  10.131
51990W        W55951  13.332   4.407   9.895
51991W        W55952  12.539   7.115   9.956
51992W        W55953  14.236   4.069   8.422
51993W        W55954  14.027   5.388   9.723
51994W        W55955  11.010   4.709   9.761
51995W        W55956  13.870   4.504   8.779
51996W        W55957  14.281   4.655  10.556
51997W        W55958  13.166   6.354   8.774
51998W        W55959  12.422   6.945   8.387
51999W        W55960  11.537   4.125   7.645
52000W        W55961  12.641   3.779   9.455
52001W        W55962  11.669   6.899   7.303
52002W        W55963  12.043   5.365   8.054
52003W        W55964  12.697   5.994  10.367
52004W        W55965  12.527   4.352   8.357
52005W        W55966  13.883   3.949   8.785
52006W        W55967  13.603   7.231   9.113
52007W        W55968  13.015   6.879   9.453
52008W        W55969  12.411   5.916   9.414
52009W        W55970  14.181   6.639   9.540
52010W        W55971  11.875   4.142   8.309
52011W        W55972  12.397   6.439   9.269
52012W        W55973  11.880   4.370   7.334
52013W        W55974  12.681   4.979   9.728
52014W        W55975  13.529   3.845   9.598
52015W        W55976  10.949   5.688   9.483
52016W        W55977  12.653   5.506   7.641
52017W        W55978  11.921   3.821   7.411
52018W        W55979  12.659   4.902   8.462
52019W        W55980  13.629   3.878  10.161
52020W        W55981  12.217   5.890  10.270
52021W        W55982  13.021   5.672  10.487
52022W        W55983  13.638   5.702  10.380
52023W        W55984  12.922   3.842  10.885
52024W        W55985  12.144   4.458   9.278
52025W        W55986  11.570   4.414   8.676
52026W        W55987  11.356   7.126   8.352
52027W        W55988  12.688   6.456  10.477
52028W        W55989  11.723   5.941   7.836
52029W        W55990  13.403   5.326   9.057
52030W        W55991  13.683   5.125   9.456
52031W        W55992  12.888   5.799   9.390
52032W        W55993  13.358   6.173   7.522
52033W        W55994  13.030   4.194   8.850
52034W        W55995  14.509   4.472   8.118
52035W        W55996  11.003   7.061  10.149
52036W        W55997  11.420   6.287   9.681
52037W        W55998  10.987   7.133   7.913
52038W        W55999  12.886   4.403   9.719
52039W        W56000  12.249   6.426   7.568
52040W        W56001  14.154   6.808   7.754
52041W        W56002  13.129   5.461   7.768
52042W        W56003  11.972   4.652   8.285
52043W        W56004  12.804   4.562   7.337
52044W        W56005  13.388   6.127  10.515
52045W        W56006  13.741   4.033   8.132
52046W        W56007  11.071   3.881   7.580
52047W        W56008  12.357   6.200   9.870
52048W        W56009  12.156   6.116   8.962
52049W        W56010  11.898   6.068   7.360
52050W        W56011  11.139   6.309   8.128
52051W        W56012  11.643   5.379  10.570
52052W        W56013  12.347   3.939  10.756
52053W        W56014  13.056   4.081  10.112
52054W        W56015  12.251   3.849   8.393
52055W        W56016  13.310   3.926   7.898
52056W        W56017  11.255   3.858   9.475
52057W        W56018  11.303   4.821   8.845
52058W        W56019  13.992   3.929   9.251
52059W        W56020  11.414   4.427   8.065
52060W        W56021  13.985   4.115   9.681
52061W        W56022  14.381   5.318   7.366
52062W        W56023  11.673   4.076   9.185
52063W        W56024  12.787   4.648  10.125
52064W        W56025  10.935   4.338   7.603
52065W        W56026  11.721   5.727  10.164
52066W        W56027  13.079   5.125   9.343
52067W        W56028  12.946   7.204   7.639
52068W        W56029  11.092   5.711   7.336
52069W        W56030  11.827   6.122  10.462
52070W        W56031  11.348   5.289  10.093
52071W        W56032  12.339   5.394   9.887
52072W        W56033  14.107   3.753  10.149
52073W        W56034  14.505   5.363  10.140
52074W        W56035  14.493   5.563   7.826
52075W        W56036  13.356   5.895   7.925
52076W        W56037  13.830   7.195   7.620
52077W        W56038  13.007   5.185  10.762
52078W        W56039  11.337   6.152  10.802
52079W        W56040  14.543   4.074  10.754
52080W        W56041  14.261   5.002   9.375
52081W        W56042  12.569   7.132  10.852
52082W        W56043  12.424   3.761   7.579
52083W        W56044  13.963   6.360   7.522
52084W        W56045  11.732   4.453  10.408
52085W        W56046  12.166   6.447  10.270
52086W        W56047  14.292   4.438  10.068
52087W        W56048  13.503   7.097   8.036
52088W        W56049  13.742   5.716   9.403
52089W        W56050  11.992   4.132  10.070
52090W        W56051  12.461   5.201  10.827
52091W        W56052  11.964   6.380   8.021
52092W        W56053  13.719   5.878   8.285
52093W        W56054  11.487   4.504  10.009
52094W        W56055  12.816   6.566   8.473
52095W        W56056  14.566   5.126   8.654
52096W        W56057  12.788   3.759  10.373
52097W        W56058  13.568   6.464   9.452
52098W        W56059  13.871   6.808   9.160
52099W        W56060  13.090   6.610   7.588
52100W        W56061  11.100   6.502  10.430
52101W        W56062  11.843   4.494   9.668
52102W        W56063  11.813   3.842   8.778
52103W        W56064  13.434   4.684   9.470
52104W        W56065  12.232   5.855   7.670
52105W        W56066  14.230   5.797   9.169
52106W        W56067  11.557   6.555  10.592
52107W        W56068  13.944   7.237   8.389
52108W        W56069  12.043   4.257   8.834
52109W        W56070  11.812   5.750   8.924
52110W        W56071  12.125   7.161   9.674
52111W        W56072  14.192   7.257  10.706
52112W        W56073  13.351   5.445   9.639
52113W        W56074  11.200   5.243   7.554
52114W        W56075  14.334   6.901   8.251
52115W        W56076  14.171   4.225   7.870
52116W        W56077  12.310   3.744  10.273
52117W        W56078  14.016   6.546   8.731
52118W        W56079  14.045   5.102   8.636
52119W        W56080  12.162   4.775   8.852
52120W        W56081  12.407   5.037  10.176
52121W        W56082  13.518   6.190  10.039
52122W        W56083  12.168   4.644  10.151
52123W        W56084  12.147   7.110   8.767
52124W        W56085  11.464   7.069  10.401
52125W        W56086  11.576   6.430   7.531
52126W        W56087  14.093   6.188   8.341
52127W        W56088  11.697   4.980  10.227
52128W        W56089  14.470   4.910   7.708
52129W        W56090  12.215   5.967   8.179
52130W        W56091  13.314   5.349  10.260
52131W        W56092  13.205   4.977   9.804
52132W        W56093  11.765   5.349   9.833
52133W        W56094  13.975   7.237   9.662
52134W        W56095  13.766   3.871  10.656
52135W        W56096  11.430   4.021  10.243
52136W        W56097  11.769   5.044   9.296
52137W        W56098  12.138   4.858   7.418
52138W        W56099  10.941   6.617   9.963
52139W        W56100  12.526   5.326   9.406
52140W        W56101  12.349   4.351   7.511
52141W        W56102  11.484   5.167   8.292
52142W        W56103  11.255   7.019   9.729
52143W        W56104  14.050   5.245   7.837
52144W        W56105  14.145   4.161  10.523
52145W        W56106  13.581   6.370   8.486
52146W        W56107  11.179   5.294  10.663
52147W        W56108  14.145   3.758   7.959
52148W        W56109  13.665   6.233   7.970
52149W        W56110  12.567   5.291   8.055
52150W        W56111  13.754   4.095   7.578
52151W        W56112  13.819   4.702   9.764
52152W        W56113  11.528   5.295   8.971
52153W        W56114  11.822   6.234   8.620
52154W        W56115  13.585   4.854   8.585
52155W        W56116  12.608   4.233   9.281
52156W        W56117  14.570   6.144   9.792
52157W        W56118  14.488   4.131   9.353
52158W        W56119  11.027   6.961   8.729
52159W        W56120  11.536   6.148   8.265
52160W        W56121  11.451   3.765  10.818
52161W        W56122  12.570   6.618  10.920
52162W        W56123  14.325   5.586   8.710
52163W        W56124  13.679   5.763   7.590
52164W        W56125  12.974   7.284   9.802
52165W        W56126  13.831   6.006  10.839
52166W        W56127  12.646   3.716   8.119
52167W        W56128  13.359   4.585   8.978
52168W        W56129  11.045   6.172   9.310
52169W        W56130  12.298   4.134   7.951
52170W        W56131  12.102   5.618  10.800
52171W        W56132  13.096   4.599   8.514
52172W        W56133  13.301   6.009   9.636
52173W        W56134  11.455   6.614  10.071
52174W        W56135  12.046   6.597  10.794
52175W        W56136  11.897   4.394   7.808
52176W        W56137  13.414   4.536   8.133
52177W        W56138  13.372   6.644  10.370
52178W        W56139  12.057   5.236   8.969
52179W        W56140  11.712   6.934   9.834
52180W        W56141  14.457   7.051   7.435
52181W        W56142  11.320   5.723  10.431
52182W        W56143  13.315   5.985   9.119
52183W        W56144  11.751   5.634   8.361
52184W        W56145  12.122   6.641   9.756
52185W        W56146  12.500   4.060   8.797
52186W        W56147  11.111   6.044   7.727
52187W        W56148  12.630   4.995   7.597
52188W        W56149  11.276   5.544   8.616
52189W        W56150  12.566   4.186  10.080
52190W        W56151  14.238   3.895   7.507
52191W        W56152  14.331   5.641  10.606
52192W        W56153  12.985   6.898  10.758
52193W        W56154  14.543   5.992  10.280
52194W        W56155  13.951   6.790  10.891
52195W        W56156  11.690   7.246   9.369
52196W        W56157  14.549   5.868   8.243
52197W        W56158  13.079   5.135   8.756
52198W        W56159  12.846   3.747   8.646
52199W        W56160  11.905   6.731   8.483
52200W        W56161  12.404   4.472   9.708
52201W        W56162  12.104   3.841   9.177
52202W        W56163  11.167   6.663   7.725
52203W        W56164  12.983   6.027   8.443
52204W        W56165  11.858   6.822  10.322
52205W        W56166  11.335   5.645   8.018
52206W        W56167  11.220   4.188   9.017
52207W        W56168  12.768   6.153   9.074
52208W        W56169  11.020   4.007   8.094
52209W        W56170  13.684   5.213  10.021
52210W        W56171  13.561   4.599   7.593
52211W        W56172  14.078   6.271   9.241
52212W        W56173  12.739   6.755   9.072
52213W        W56174  12.151   6.859   7.983
52214W        W56175  13.433   3.762   7.413
52215W        W56176  11.233   7.022   9.154
52216W        W56177  13.430   4.780  10.789
52217W        W56178  11.413   4.310  10.788
52218W        W56179  11.144   4.910   8.121
52219W        W56180  11.835   4.899   7.846
52220W        W56181  13.598   5.226  10.663
52221W        W56182  11.941   5.507   9.372
52222W        W56183  13.415   3.793   8.492
52223W        W56184  12.546   7.224   8.995
52224W        W56185  13.760   6.686   9.932
52225W        W56186  13.344   6.835   9.043
52226W        W56187  13.363   5.815   8.637
52227W        W56188  12.825   4.040   7.708
52228W        W56189  14.506   3.668   8.430
52229W        W56190  12.194   5.303   7.593
52230W        W56191  14.360   4.640   8.583
52231W        W56192  13.052   5.810   7.460
52232W        W56193  13.988   6.010  10.208
52233W        W56194  13.642   6.711   7.675
52234W        W56195  12.257   4.386  10.581
52235W        W56196  12.077   4.970   9.822
52236W        W56197  14.169   6.465  10.099
52237W        W56198  13.269   4.415  10.476
52238W        W56199  11.113   4.886  10.253
52239W        W56200  12.873   5.363   9.979
52240W        W56201  11.230   6.121   8.636
52241W        W56202  11.377   5.418   9.526
52242W        W56203  13.694   5.704   9.876
52243W        W56204  13.466   7.084  10.687
52244W        W56205  13.362   4.823  10.240
52245W        W56206  13.639   6.877   8.645
52246W        W56207  12.641   6.597   9.968
52247W        W56208  12.126   6.952   9.237
52248W        W56209  13.931   6.123   9.656
52249W        W56210  12.981   6.195  10.793
52250W        W56211  11.586   6.148   9.132
52251W        W56212  13.932   5.907   8.777
52252W        W56213  13.573   6.973   9.528
52253W        W56214  11.551   6.702   9.398
52254W        W56215  12.572   4.754  10.608
52255W        W56216  13.023   6.920   8.119
52256W        W56217  12.331   6.175  10.757
52257W        W56218  12.457   6.413   8.134
52258W        W56219  11.678   5.153   7.393
52259W        W56220  11.017   7.239  14.292
52260W        W56221  11.393   6.132  13.815
52261W        W56222  14.098   5.862  11.585
52262W        W56223  14.228   6.947  13.612
52263W        W56224  12.146   6.938  11.138
52264W        W56225  12.229   5.090  12.121
52265W        W56226  11.744   4.938  12.285
52266W        W56227  12.735   5.753  11.719
52267W        W56228  12.410   6.845  14.074
52268W        W56229  11.059   4.406  14.037
52269W        W56230  11.821   3.686  13.839
52270W        W56231  13.515   4.074  12.726
52271W        W56232  13.164   4.945  11.296
52272W        W56233  13.734   4.379  14.387
52273W        W56234  11.100   4.171  13.512
52274W        W56235  11.199   6.790  14.533
52275W        W56236  12.721   6.180  11.265
52276W        W56237  11.153   4.963  12.958
52277W        W56238  12.046   4.854  14.195
52278W        W56239  14.505   4.713  12.694
52279W        W56240  14.269   5.756  13.553
52280W        W56241  12.577   5.089  12.580
52281W        W56242  13.123   6.428  12.949
52282W        W56243  11.623   5.862  13.181
52283W        W56244  10.982   5.390  12.752
52284W        W56245  12.018   5.362  13.944
52285W        W56246  14.289   5.145  14.198
52286W        W56247  11.905   6.589  12.643
52287W        W56248  13.026   6.278  13.777
52288W        W56249  12.246   4.918  13.002
52289W        W56250  12.538   5.702  12.645
52290W        W56251  13.535   6.475  14.493
52291W        W56252  12.614   5.795  14.503
52292W        W56253  12.595   5.511  13.981
52293W        W56254  11.004   4.902  14.503
52294W        W56255  13.836   6.437  14.102
52295W        W56256  11.417   4.019  12.100
52296W        W56257  11.944   6.277  13.099
52297W        W56258  14.407   6.060  12.389
52298W        W56259  13.820   4.460  12.956
52299W        W56260  14.105   4.413  11.051
52300W        W56261  14.570   5.214  13.357
52301W        W56262  12.537   6.921  13.110
52302W        W56263  14.311   6.387  11.548
52303W        W56264  11.440   7.173  11.302
52304W        W56265  11.833   7.219  11.978
52305W        W56266  11.630   3.973  13.404
52306W        W56267  14.253   4.991  13.679
52307W        W56268  13.658   5.413  12.138
52308W        W56269  13.624   5.101  11.165
52309W        W56270  12.832   6.245  13.305
52310W        W56271  12.638   4.575  12.504
52311W        W56272  13.238   6.662  13.498
52312W        W56273  14.109   5.453  11.920
52313W        W56274  13.011   4.111  11.936
52314W        W56275  11.668   6.805  11.619
52315W        W56276  11.039   4.304  12.218
52316W        W56277  13.825   4.911  12.692
52317W        W56278  11.283   6.528  12.607
52318W        W56279  12.624   6.878  11.477
52319W        W56280  14.016   4.904  10.941
52320W        W56281  11.039   6.662  13.105
52321W        W56282  11.830   6.234  13.585
52322W        W56283  12.203   5.594  12.204
52323W        W56284  12.225   3.999  13.297
52324W        W56285  14.454   3.761  12.594
52325W        W56286  11.673   5.633  11.062
52326W        W56287  11.328   4.666  11.241
52327W        W56288  11.390   6.622  12.035
52328W        W56289  12.521   6.105  12.283
52329W        W56290  13.853   6.964  13.997
52330W        W56291  12.779   4.606  11.681
52331W        W56292  14.162   7.004  12.453
52332W        W56293  13.839   4.857  14.051
52333W        W56294  14.552   6.513  12.185
52334W        W56295  13.179   5.805  13.669
52335W        W56296  10.945   5.356  11.875
52336W        W56297  12.056   5.771  13.448
52337W        W56298  13.260   5.035  11.826
52338W        W56299  13.137   5.525  11.930
52339W        W56300  11.480   4.945  13.404
52340W        W56301  11.465   4.821  14.326
52341W        W56302  11.355   3.738  12.485
52342W        W56303  13.123   4.085  13.046
52343W        W56304  12.771   4.270  14.209
52344W        W56305  13.126   4.419  11.387
52345W        W56306  14.309   6.812  14.141
52346W        W56307  13.276   3.893  14.180
52347W        W56308  14.295   6.194  14.302
52348W        W56309  13.725   4.361  13.898
52349W        W56310  13.525   4.299  12.168
52350W        W56311  13.918   5.433  14.572
52351W        W56312  11.658   7.009  12.558
52352W        W56313  12.316   4.726  11.544
52353W        W56314  11.885   4.010  14.208
52354W        W56315  13.937   4.494  11.889
52355W        W56316  14.304   4.976  11.834
52356W        W56317  12.047   7.193  14.305
52357W        W56318  11.973   3.729  11.540
52358W        W56319  14.294   4.263  12.575
52359W        W56320  14.444   6.512  11.020
52360W        W56321  11.351   5.715  12.722
52361W        W56322  13.268   4.302  10.952
52362W        W56323  14.402   6.634  12.672
52363W        W56324  14.441   3.828  13.422
52364W        W56325  12.979   6.379  11.679
52365W        W56326  13.379   5.673  14.419
52366W        W56327  13.053   3.650  12.728
52367W        W56328  11.665   4.553  12.791
52368W        W56329  11.219   5.753  13.565
52369W        W56330  13.078   6.946  12.271
52370W        W56331  14.272   4.543  13.143
52371W        W56332  12.909   6.890  13.910
52372W        W56333  14.252   5.949  11.115
52373W        W56334  12.687   5.432  12.176
52374W        W56335  14.539   3.943  13.917
52375W        W56336  12.688   5.778  13.511
52376W        W56337  12.905   4.664  12.956
52377W        W56338  13.757   4.962  11.794
52378W        W56339  14.044   4.695  11.436
52379W        W56340  13.853   6.735  11.825
52380W        W56341  13.687   6.338  12.621
52381W        W56342  13.583   5.417  11.599
52382W        W56343  13.016   5.627  12.585
52383W        W56344  13.897   5.415  12.652
52384W        W56345  11.272   4.430  13.076
52385W        W56346  14.050   5.482  13.903
52386W        W56347  14.401   7.100  13.049
52387W        W56348  12.331   6.544  12.451
52388W        W56349  13.338   7.077  13.775
52389W        W56350  13.332   4.407  13.539
52390W        W56351  12.539   7.115  13.600
52391W        W56352  14.236   4.069  12.066
52392W        W56353  14.027   5.388  13.367
52393W        W56354  11.010   4.709  13.405
52394W        W56355  13.870   4.504  12.423
52395W        W56356  14.281   4.655  14.200
52396W        W56357  13.166   6.354  12.418
52397W        W56358  12.422   6.945  12.031
52398W        W56359  11.537   4.125  11.289
52399W        W56360  12.641   3.779  13.099
52400W        W56361  11.669   6.899  10.947
52401W        W56362  12.043   5.365  11.698
52402W        W56363  12.697   5.994  14.011
52403W        W56364  12.527   4.352  12.001
52404W        W56365  13.883   3.949  12.429
52405W        W56366  13.603   7.231  12.757
52406W        W56367  13.015   6.879  13.097
52407W        W56368  12.411   5.916  13.058
52408W        W56369  14.181   6.639  13.184
52409W        W56370  11.875   4.142  11.953
52410W        W56371  12.397   6.439  12.913
52411W        W56372  11.880   4.370  10.978
52412W        W56373  13.529   3.845  13.242
52413W        W56374  10.949   5.688  13.127
52414W        W56375  12.653   5.506  11.285
52415W        W56376  11.921   3.821  11.055
52416W        W56377  12.659   4.902  12.106
52417W        W56378  13.629   3.878  13.805
52418W        W56379  12.217   5.890  13.914
52419W        W56380  13.021   5.672  14.131
52420W        W56381  13.638   5.702  14.024
52421W        W56382  12.922   3.842  14.529
52422W        W56383  12.144   4.458  12.922
52423W        W56384  11.570   4.414  12.320
52424W        W56385  11.356   7.126  11.996
52425W        W56386  12.688   6.456  14.121
52426W        W56387  11.723   5.941  11.480
52427W        W56388  13.403   5.326  12.701
52428W        W56389  13.683   5.125  13.100
52429W        W56390  12.888   5.799  13.034
52430W        W56391  13.358   6.173  11.166
52431W        W56392  13.030   4.194  12.494
52432W        W56393  14.509   4.472  11.762
52433W        W56394  11.003   7.061  13.793
52434W        W56395  11.420   6.287  13.325
52435W        W56396  10.987   7.133  11.557
52436W        W56397  12.886   4.403  13.363
52437W        W56398  12.249   6.426  11.212
52438W        W56399  14.154   6.808  11.398
52439W        W56400  13.129   5.461  11.412
52440W        W56401  11.972   4.652  11.929
52441W        W56402  12.804   4.562  10.981
52442W        W56403  13.388   6.127  14.159
52443W        W56404  13.741   4.033  11.776
52444W        W56405  11.071   3.881  11.224
52445W        W56406  12.357   6.200  13.514
52446W        W56407  12.156   6.116  12.606
52447W        W56408  11.898   6.068  11.004
52448W        W56409  11.139   6.309  11.772
52449W        W56410  11.643   5.379  14.214
52450W        W56411  12.347   3.939  14.400
52451W        W56412  13.056   4.081  13.756
52452W        W56413  12.251   3.849  12.037
52453W        W56414  13.310   3.926  11.542
52454W        W56415  11.255   3.858  13.119
52455W        W56416  11.303   4.821  12.489
52456W        W56417  13.992   3.929  12.895
52457W        W56418  11.414   4.427  11.709
52458W        W56419  13.985   4.115  13.325
52459W        W56420  14.381   5.318  11.010
52460W        W56421  11.673   4.076  12.829
52461W        W56422  10.935   4.338  11.247
52462W        W56423  11.721   5.727  13.808
52463W        W56424  13.079   5.125  12.987
52464W        W56425  12.946   7.204  11.283
52465W        W56426  11.092   5.711  10.980
52466W        W56427  11.827   6.122  14.106
52467W        W56428  11.348   5.289  13.737
52468W        W56429  12.339   5.394  13.531
52469W        W56430  14.107   3.753  13.793
52470W        W56431  14.505   5.363  13.784
52471W        W56432  14.493   5.563  11.470
52472W        W56433  13.356   5.895  11.569
52473W        W56434  13.830   7.195  11.264
52474W        W56435  13.007   5.185  14.406
52475W        W56436  11.337   6.152  14.446
52476W        W56437  14.543   4.074  14.398
52477W        W56438  14.261   5.002  13.019
52478W        W56439  12.569   7.132  14.496
52479W        W56440  12.424   3.761  11.223
52480W        W56441  13.963   6.360  11.166
52481W        W56442  11.732   4.453  14.052
52482W        W56443  12.166   6.447  13.914
52483W        W56444  14.292   4.438  13.712
52484W        W56445  13.503   7.097  11.680
52485W        W56446  13.742   5.716  13.047
52486W        W56447  11.992   4.132  13.714
52487W        W56448  12.461   5.201  14.471
52488W        W56449  11.964   6.380  11.665
52489W        W56450  13.719   5.878  11.929
52490W        W56451  11.487   4.504  13.653
52491W        W56452  12.816   6.566  12.117
52492W        W56453  14.566   5.126  12.298
52493W        W56454  12.788   3.759  14.017
52494W        W56455  13.568   6.464  13.096
52495W        W56456  13.871   6.808  12.804
52496W        W56457  13.090   6.610  11.232
52497W        W56458  11.100   6.502  14.074
52498W        W56459  11.843   4.494  13.312
52499W        W56460  11.813   3.842  12.422
52500W        W56461  13.434   4.684  13.114
52501W        W56462  12.232   5.855  11.314
52502W        W56463  14.230   5.797  12.813
52503W        W56464  11.557   6.555  14.236
52504W        W56465  13.944   7.237  12.033
52505W        W56466  12.043   4.257  12.478
52506W        W56467  11.812   5.750  12.568
52507W        W56468  12.125   7.161  13.318
52508W        W56469  14.192   7.257  14.350
52509W        W56470  13.351   5.445  13.283
52510W        W56471  11.200   5.243  11.198
52511W        W56472  14.334   6.901  11.895
52512W        W56473  14.171   4.225  11.514
52513W        W56474  12.310   3.744  13.917
52514W        W56475  14.016   6.546  12.375
52515W        W56476  14.045   5.102  12.280
52516W        W56477  12.162   4.775  12.496
52517W        W56478  12.407   5.037  13.820
52518W        W56479  13.518   6.190  13.683
52519W        W56480  12.168   4.644  13.795
52520W        W56481  12.147   7.110  12.411
52521W        W56482  11.464   7.069  14.045
52522W        W56483  11.576   6.430  11.175
52523W        W56484  14.093   6.188  11.985
52524W        W56485  11.697   4.980  13.871
52525W        W56486  14.470   4.910  11.352
52526W        W56487  12.215   5.967  11.823
52527W        W56488  13.314   5.349  13.904
52528W        W56489  13.205   4.977  13.448
52529W        W56490  11.765   5.349  13.477
52530W        W56491  13.975   7.237  13.306
52531W        W56492  13.766   3.871  14.300
52532W        W56493  11.430   4.021  13.887
52533W        W56494  11.769   5.044  12.940
52534W        W56495  12.138   4.858  11.062
52535W        W56496  10.941   6.617  13.607
52536W        W56497  12.526   5.326  13.050
52537W        W56498  12.349   4.351  11.155
52538W        W56499  11.484   5.167  11.936
52539W        W56500  11.255   7.019  13.373
52540W        W56501  14.050   5.245  11.481
52541W        W56502  14.145   4.161  14.167
52542W        W56503  13.581   6.370  12.130
52543W        W56504  11.179   5.294  14.307
52544W        W56505  14.145   3.758  11.603
52545W        W56506  13.665   6.233  11.614
52546W        W56507  12.567   5.291  11.699
52547W        W56508  13.754   4.095  11.222
52548W        W56509  13.819   4.702  13.408
52549W        W56510  11.528   5.295  12.615
52550W        W56511  11.822   6.234  12.264
52551W        W56512  13.585   4.854  12.229
52552W        W56513  12.608   4.233  12.925
52553W        W56514  14.570   6.144  13.436
52554W        W56515  14.488   4.131  12.997
52555W        W56516  11.027   6.961  12.373
52556W        W56517  11.536   6.148  11.909
52557W        W56518  11.451   3.765  14.462
52558W        W56519  12.570   6.618  14.564
52559W        W56520  14.325   5.586  12.354
52560W        W56521  13.679   5.763  11.234
52561W        W56522  12.974   7.284  13.446
52562W        W56523  13.831   6.006  14.483
52563W        W56524  12.646   3.716  11.763
52564W        W56525  13.359   4.585  12.622
52565W        W56526  11.045   6.172  12.954
52566W        W56527  12.298   4.134  11.595
52567W        W56528  12.102   5.618  14.444
52568W        W56529  13.096   4.599  12.158
52569W        W56530  13.301   6.009  13.280
52570W        W56531  11.455   6.614  13.715
52571W        W56532  12.046   6.597  14.438
52572W        W56533  11.897   4.394  11.452
52573W        W56534  13.414   4.536  11.777
52574W        W56535  13.372   6.644  14.014
52575W        W56536  12.057   5.236  12.613
52576W        W56537  11.712   6.934  13.478
52577W        W56538  14.457   7.051  11.079
52578W        W56539  11.320   5.723  14.075
52579W        W56540  13.315   5.985  12.763
52580W        W56541  11.751   5.634  12.005
52581W        W56542  12.122   6.641  13.400
52582W        W56543  12.500   4.060  12.441
52583W        W56544  11.111   6.044  11.371
52584W        W56545  12.630   4.995  11.241
52585W        W56546  11.276   5.544  12.260
52586W        W56547  12.566   4.186  13.724
52587W        W56548  14.238   3.895  11.151
52588W        W56549  14.331   5.641  14.250
52589W        W56550  12.985   6.898  14.402
52590W        W56551  14.543   5.992  13.924
52591W        W56552  13.951   6.790  14.535
52592W        W56553  11.690   7.246  13.013
52593W        W56554  14.549   5.868  11.887
52594W        W56555  13.079   5.135  12.400
52595W        W56556  12.846   3.747  12.290
52596W        W56557  11.905   6.731  12.127
52597W        W56558  12.404   4.472  13.352
52598W        W56559  12.104   3.841  12.821
52599W        W56560  11.167   6.663  11.369
52600W        W56561  12.983   6.027  12.087
52601W        W56562  11.858   6.822  13.966
52602W        W56563  11.335   5.645  11.662
52603W        W56564  11.220   4.188  12.661
52604W        W56565  12.768   6.153  12.718
52605W        W56566  11.020   4.007  11.738
52606W        W56567  13.684   5.213  13.665
52607W        W56568  13.561   4.599  11.237
52608W        W56569  14.078   6.271  12.885
52609W        W56570  12.739   6.755  12.716
52610W        W56571  12.151   6.859  11.627
52611W        W56572  13.433   3.762  11.057
52612W        W56573  11.233   7.022  12.798
52613W        W56574  13.430   4.780  14.433
52614W        W56575  11.413   4.310  14.432
52615W        W56576  11.144   4.910  11.765
52616W        W56577  11.835   4.899  11.490
52617W        W56578  13.598   5.226  14.307
52618W        W56579  11.941   5.507  13.016
52619W        W56580  13.415   3.793  12.136
52620W        W56581  12.546   7.224  12.639
52621W        W56582  13.760   6.686  13.576
52622W        W56583  13.344   6.835  12.687
52623W        W56584  13.363   5.815  12.281
52624W        W56585  12.825   4.040  11.352
52625W        W56586  14.506   3.668  12.074
52626W        W56587  12.194   5.303  11.237
52627W        W56588  14.360   4.640  12.227
52628W        W56589  13.052   5.810  11.104
52629W        W56590  13.988   6.010  13.852
52630W        W56591  13.642   6.711  11.319
52631W        W56592  12.257   4.386  14.225
52632W        W56593  12.077   4.970  13.466
52633W        W56594  14.169   6.465  13.743
52634W        W56595  11.113   4.886  13.897
52635W        W56596  12.873   5.363  13.623
52636W        W56597  11.230   6.121  12.280
52637W        W56598  11.377   5.418  13.170
52638W        W56599  13.694   5.704  13.520
52639W        W56600  13.466   7.084  14.331
52640W        W56601  13.362   4.823  13.884
52641W        W56602  13.639   6.877  12.289
52642W        W56603  12.641   6.597  13.612
52643W        W56604  12.126   6.952  12.881
52644W        W56605  13.931   6.123  13.300
52645W        W56606  12.981   6.195  14.437
52646W        W56607  11.586   6.148  12.776
52647W        W56608  13.932   5.907  12.421
52648W        W56609  13.573   6.973  13.172
52649W        W56610  11.551   6.702  13.042
52650W        W56611  13.023   6.920  11.763
52651W        W56612  12.331   6.175  14.401
52652W        W56613  12.457   6.413  11.778
52653W        W56614  11.678   5.153  11.037
52654W        W56615  11.017   7.239  17.936
52655W        W56616  11.393   6.132  17.459
52656W        W56617  14.098   5.862  15.229
52657W        W56618  14.228   6.947  17.256
52658W        W56619  12.146   6.938  14.782
52659W        W56620  12.229   5.090  15.765
52660W        W56621  11.744   4.938  15.929
52661W        W56622  12.735   5.753  15.363
52662W        W56623  12.410   6.845  17.718
52663W        W56624  11.059   4.406  17.681
52664W        W56625  11.821   3.686  17.483
52665W        W56626  13.515   4.074  16.370
52666W        W56627  13.164   4.945  14.940
52667W        W56628  13.734   4.379  18.031
52668W        W56629  11.100   4.171  17.156
52669W        W56630  11.199   6.790  18.177
52670W        W56631  12.721   6.180  14.909
52671W        W56632  11.153   4.963  16.602
52672W        W56633  12.046   4.854  17.839
52673W        W56634  14.505   4.713  16.338
52674W        W56635  14.269   5.756  17.197
52675W        W56636  12.577   5.089  16.224
52676W        W56637  13.123   6.428  16.593
52677W        W56638  11.623   5.862  16.825
52678W        W56639  10.982   5.390  16.396
52679W        W56640  12.018   5.362  17.588
52680W        W56641  14.289   5.145  17.842
52681W        W56642  11.905   6.589  16.287
52682W        W56643  13.026   6.278  17.421
52683W        W56644  12.246   4.918  16.646
52684W        W56645  12.538   5.702  16.289
52685W        W56646  13.535   6.475  18.137
52686W        W56647  12.614   5.795  18.147
52687W        W56648  12.595   5.511  17.625
52688W        W56649  11.004   4.902  18.147
52689W        W56650  13.836   6.437  17.746
52690W        W56651  11.417   4.019  15.744
52691W        W56652  11.944   6.277  16.743
52692W        W56653  14.407   6.060  16.033
52693W        W56654  13.820   4.460  16.600
52694W        W56655  14.105   4.413  14.695
52695W        W56656  14.570   5.214  17.001
52696W        W56657  12.537   6.921  16.754
52697W        W56658  14.311   6.387  15.192
52698W        W56659  11.440   7.173  14.946
52699W        W56660  11.833   7.219  15.622
52700W        W56661  11.630   3.973  17.048
52701W        W56662  14.253   4.991  17.323
52702W        W56663  13.658   5.413  15.782
52703W        W56664  13.624   5.101  14.809
52704W        W56665  12.832   6.245  16.949
52705W        W56666  12.638   4.575  16.148
52706W        W56667  13.238   6.662  17.142
52707W        W56668  14.109   5.453  15.564
52708W        W56669  13.011   4.111  15.580
52709W        W56670  11.668   6.805  15.263
52710W        W56671  11.039   4.304  15.862
52711W        W56672  13.825   4.911  16.336
52712W        W56673  11.283   6.528  16.251
52713W        W56674  12.624   6.878  15.121
52714W        W56675  14.016   4.904  14.585
52715W        W56676  11.039   6.662  16.749
52716W        W56677  11.830   6.234  17.229
52717W        W56678  12.203   5.594  15.848
52718W        W56679  12.225   3.999  16.941
52719W        W56680  14.454   3.761  16.238
52720W        W56681  11.673   5.633  14.706
52721W        W56682  11.328   4.666  14.885
52722W        W56683  11.390   6.622  15.679
52723W        W56684  12.521   6.105  15.927
52724W        W56685  13.853   6.964  17.641
52725W        W56686  12.779   4.606  15.325
52726W        W56687  14.162   7.004  16.097
52727W        W56688  13.839   4.857  17.695
52728W        W56689  14.552   6.513  15.829
52729W        W56690  13.179   5.805  17.313
52730W        W56691  10.945   5.356  15.519
52731W        W56692  12.056   5.771  17.092
52732W        W56693  13.260   5.035  15.470
52733W        W56694  13.137   5.525  15.574
52734W        W56695  11.480   4.945  17.048
52735W        W56696  11.465   4.821  17.970
52736W        W56697  11.355   3.738  16.129
52737W        W56698  13.123   4.085  16.690
52738W        W56699  12.771   4.270  17.853
52739W        W56700  13.126   4.419  15.031
52740W        W56701  14.309   6.812  17.785
52741W        W56702  13.276   3.893  17.824
52742W        W56703  14.295   6.194  17.946
52743W        W56704  13.725   4.361  17.542
52744W        W56705  13.525   4.299  15.812
52745W        W56706  13.918   5.433  18.216
52746W        W56707  11.658   7.009  16.202
52747W        W56708  12.316   4.726  15.188
52748W        W56709  11.885   4.010  17.852
52749W        W56710  13.937   4.494  15.533
52750W        W56711  14.304   4.976  15.478
52751W        W56712  12.047   7.193  17.949
52752W        W56713  11.973   3.729  15.184
52753W        W56714  14.294   4.263  16.219
52754W        W56715  14.444   6.512  14.664
52755W        W56716  11.351   5.715  16.366
52756W        W56717  13.268   4.302  14.596
52757W        W56718  14.402   6.634  16.316
52758W        W56719  14.441   3.828  17.066
52759W        W56720  12.886   5.040  17.620
52760W        W56721  12.979   6.379  15.323
52761W        W56722  13.379   5.673  18.063
52762W        W56723  13.053   3.650  16.372
52763W        W56724  11.665   4.553  16.435
52764W        W56725  11.219   5.753  17.209
52765W        W56726  13.078   6.946  15.915
52766W        W56727  14.272   4.543  16.787
52767W        W56728  12.909   6.890  17.554
52768W        W56729  14.252   5.949  14.759
52769W        W56730  12.687   5.432  15.820
52770W        W56731  14.539   3.943  17.561
52771W        W56732  12.688   5.778  17.155
52772W        W56733  12.905   4.664  16.600
52773W        W56734  13.757   4.962  15.438
52774W        W56735  14.044   4.695  15.080
52775W        W56736  13.853   6.735  15.469
52776W        W56737  13.687   6.338  16.265
52777W        W56738  13.583   5.417  15.243
52778W        W56739  13.016   5.627  16.229
52779W        W56740  13.897   5.415  16.296
52780W        W56741  11.272   4.430  16.720
52781W        W56742  14.050   5.482  17.547
52782W        W56743  14.401   7.100  16.693
52783W        W56744  12.331   6.544  16.095
52784W        W56745  13.338   7.077  17.419
52785W        W56746  13.332   4.407  17.183
52786W        W56747  12.539   7.115  17.244
52787W        W56748  14.236   4.069  15.710
52788W        W56749  14.027   5.388  17.011
52789W        W56750  11.010   4.709  17.049
52790W        W56751  13.870   4.504  16.067
52791W        W56752  14.281   4.655  17.844
52792W        W56753  13.166   6.354  16.062
52793W        W56754  12.422   6.945  15.675
52794W        W56755  11.537   4.125  14.933
52795W        W56756  12.641   3.779  16.743
52796W        W56757  11.669   6.899  14.591
52797W        W56758  12.043   5.365  15.342
52798W        W56759  12.697   5.994  17.655
52799W        W56760  12.527   4.352  15.645
52800W        W56761  13.883   3.949  16.073
52801W        W56762  13.603   7.231  16.401
52802W        W56763  13.015   6.879  16.741
52803W        W56764  12.411   5.916  16.702
52804W        W56765  14.181   6.639  16.828
52805W        W56766  11.875   4.142  15.597
52806W        W56767  12.397   6.439  16.557
52807W        W56768  11.880   4.370  14.622
52808W        W56769  12.681   4.979  17.016
52809W        W56770  13.529   3.845  16.886
52810W        W56771  10.949   5.688  16.771
52811W        W56772  12.653   5.506  14.929
52812W        W56773  11.921   3.821  14.699
52813W        W56774  12.659   4.902  15.750
52814W        W56775  13.629   3.878  17.449
52815W        W56776  12.217   5.890  17.558
52816W        W56777  13.021   5.672  17.775
52817W        W56778  13.638   5.702  17.668
52818W        W56779  12.922   3.842  18.173
52819W        W56780  12.144   4.458  16.566
52820W        W56781  11.570   4.414  15.964
52821W        W56782  11.356   7.126  15.640
52822W        W56783  12.688   6.456  17.765
52823W        W56784  11.723   5.941  15.124
52824W        W56785  13.403   5.326  16.345
52825W        W56786  13.683   5.125  16.744
52826W        W56787  12.888   5.799  16.678
52827W        W56788  13.358   6.173  14.810
52828W        W56789  13.030   4.194  16.138
52829W        W56790  14.509   4.472  15.406
52830W        W56791  11.003   7.061  17.437
52831W        W56792  11.420   6.287  16.969
52832W        W56793  10.987   7.133  15.201
52833W        W56794  12.886   4.403  17.007
52834W        W56795  12.249   6.426  14.856
52835W        W56796  14.154   6.808  15.042
52836W        W56797  13.129   5.461  15.056
52837W        W56798  11.972   4.652  15.573
52838W        W56799  12.804   4.562  14.625
52839W        W56800  13.388   6.127  17.803
52840W        W56801  13.741   4.033  15.420
52841W        W56802  11.071   3.881  14.868
52842W        W56803  12.357   6.200  17.158
52843W        W56804  12.156   6.116  16.250
52844W        W56805  11.898   6.068  14.648
52845W        W56806  11.139   6.309  15.416
52846W        W56807  11.643   5.379  17.858
52847W        W56808  12.347   3.939  18.044
52848W        W56809  13.056   4.081  17.400
52849W        W56810  12.251   3.849  15.681
52850W        W56811  13.310   3.926  15.186
52851W        W56812  11.255   3.858  16.763
52852W        W56813  11.303   4.821  16.133
52853W        W56814  13.992   3.929  16.539
52854W        W56815  11.414   4.427  15.353
52855W        W56816  13.985   4.115  16.969
52856W        W56817  14.381   5.318  14.654
52857W        W56818  11.673   4.076  16.473
52858W        W56819  12.787   4.648  17.413
52859W        W56820  10.935   4.338  14.891
52860W        W56821  11.721   5.727  17.452
52861W        W56822  13.079   5.125  16.631
52862W        W56823  12.946   7.204  14.927
52863W        W56824  11.092   5.711  14.624
52864W        W56825  11.827   6.122  17.750
52865W        W56826  11.348   5.289  17.381
52866W        W56827  12.339   5.394  17.175
52867W        W56828  14.107   3.753  17.437
52868W        W56829  14.505   5.363  17.428
52869W        W56830  14.493   5.563  15.114
52870W        W56831  13.356   5.895  15.213
52871W        W56832  13.830   7.195  14.908
52872W        W56833  13.007   5.185  18.050
52873W        W56834  11.337   6.152  18.090
52874W        W56835  14.543   4.074  18.042
52875W        W56836  14.261   5.002  16.663
52876W        W56837  12.569   7.132  18.140
52877W        W56838  12.424   3.761  14.867
52878W        W56839  13.963   6.360  14.810
52879W        W56840  11.732   4.453  17.696
52880W        W56841  12.166   6.447  17.558
52881W        W56842  14.292   4.438  17.356
52882W        W56843  13.503   7.097  15.324
52883W        W56844  13.742   5.716  16.691
52884W        W56845  11.992   4.132  17.358
52885W        W56846  12.461   5.201  18.115
52886W        W56847  11.964   6.380  15.309
52887W        W56848  13.719   5.878  15.573
52888W        W56849  11.487   4.504  17.297
52889W        W56850  12.816   6.566  15.761
52890W        W56851  14.566   5.126  15.942
52891W        W56852  12.788   3.759  17.661
52892W        W56853  13.568   6.464  16.740
52893W        W56854  13.871   6.808  16.448
52894W        W56855  13.090   6.610  14.876
52895W        W56856  11.100   6.502  17.718
52896W        W56857  11.843   4.494  16.956
52897W        W56858  11.813   3.842  16.066
52898W        W56859  13.434   4.684  16.758
52899W        W56860  12.232   5.855  14.958
52900W        W56861  14.230   5.797  16.457
52901W        W56862  11.557   6.555  17.880
52902W        W56863  13.944   7.237  15.677
52903W        W56864  12.043   4.257  16.122
52904W        W56865  11.812   5.750  16.212
52905W        W56866  12.125   7.161  16.962
52906W        W56867  14.192   7.257  17.994
52907W        W56868  13.351   5.445  16.927
52908W        W56869  14.334   6.901  15.539
52909W        W56870  14.171   4.225  15.158
52910W        W56871  12.310   3.744  17.561
52911W        W56872  14.016   6.546  16.019
52912W        W56873  14.045   5.102  15.924
52913W        W56874  12.162   4.775  16.140
52914W        W56875  12.407   5.037  17.464
52915W        W56876  13.518   6.190  17.327
52916W        W56877  12.168   4.644  17.439
52917W        W56878  12.147   7.110  16.055
52918W        W56879  11.464   7.069  17.689
52919W        W56880  11.576   6.430  14.819
52920W        W56881  14.093   6.188  15.629
52921W        W56882  11.697   4.980  17.515
52922W        W56883  14.470   4.910  14.996
52923W        W56884  12.215   5.967  15.467
52924W        W56885  13.314   5.349  17.548
52925W        W56886  13.205   4.977  17.092
52926W        W56887  11.765   5.349  17.121
52927W        W56888  13.975   7.237  16.950
52928W        W56889  13.766   3.871  17.944
52929W        W56890  11.430   4.021  17.531
52930W        W56891  11.769   5.044  16.584
52931W        W56892  12.138   4.858  14.706
52932W        W56893  10.941   6.617  17.251
52933W        W56894  12.526   5.326  16.694
52934W        W56895  12.349   4.351  14.799
52935W        W56896  11.255   7.019  17.017
52936W        W56897  14.050   5.245  15.125
52937W        W56898  14.145   4.161  17.811
52938W        W56899  13.581   6.370  15.774
52939W        W56900  11.179   5.294  17.951
52940W        W56901  14.145   3.758  15.247
52941W        W56902  13.665   6.233  15.258
52942W        W56903  12.567   5.291  15.343
52943W        W56904  13.754   4.095  14.866
52944W        W56905  13.819   4.702  17.052
52945W        W56906  11.528   5.295  16.259
52946W        W56907  11.822   6.234  15.908
52947W        W56908  13.585   4.854  15.873
52948W        W56909  12.608   4.233  16.569
52949W        W56910  14.570   6.144  17.080
52950W        W56911  14.488   4.131  16.641
52951W        W56912  11.027   6.961  16.017
52952W        W56913  11.536   6.148  15.553
52953W        W56914  11.451   3.765  18.106
52954W        W56915  12.570   6.618  18.208
52955W        W56916  14.325   5.586  15.998
52956W        W56917  13.679   5.763  14.878
52957W        W56918  12.974   7.284  17.090
52958W        W56919  13.831   6.006  18.127
52959W        W56920  12.646   3.716  15.407
52960W        W56921  13.359   4.585  16.266
52961W        W56922  11.045   6.172  16.598
52962W        W56923  12.298   4.134  15.239
52963W        W56924  12.102   5.618  18.088
52964W        W56925  13.096   4.599  15.802
52965W        W56926  13.301   6.009  16.924
52966W        W56927  11.455   6.614  17.359
52967W        W56928  12.046   6.597  18.082
52968W        W56929  11.897   4.394  15.096
52969W        W56930  13.414   4.536  15.421
52970W        W56931  13.372   6.644  17.658
52971W        W56932  12.057   5.236  16.257
52972W        W56933  11.712   6.934  17.122
52973W        W56934  14.457   7.051  14.723
52974W        W56935  11.320   5.723  17.719
52975W        W56936  13.315   5.985  16.407
52976W        W56937  12.122   6.641  17.044
52977W        W56938  12.500   4.060  16.085
52978W        W56939  11.111   6.044  15.015
52979W        W56940  12.630   4.995  14.885
52980W        W56941  11.276   5.544  15.904
52981W        W56942  12.566   4.186  17.368
52982W        W56943  14.238   3.895  14.795
52983W        W56944  14.331   5.641  17.894
52984W        W56945  12.985   6.898  18.046
52985W        W56946  14.543   5.992  17.568
52986W        W56947  13.951   6.790  18.179
52987W        W56948  11.690   7.246  16.657
52988W        W56949  14.549   5.868  15.531
52989W        W56950  13.079   5.135  16.044
52990W        W56951  12.846   3.747  15.934
52991W        W56952  11.905   6.731  15.771
52992W        W56953  12.404   4.472  16.996
52993W        W56954  12.104   3.841  16.465
52994W        W56955  11.167   6.663  15.013
52995W        W56956  12.983   6.027  15.731
52996W        W56957  11.858   6.822  17.610
52997W        W56958  11.220   4.188  16.305
52998W        W56959  12.768   6.153  16.362
52999W        W56960  11.020   4.007  15.382
53000W        W56961  13.684   5.213  17.309
53001W        W56962  13.561   4.599  14.881
53002W        W56963  14.078   6.271  16.529
53003W        W56964  12.739   6.755  16.360
53004W        W56965  12.151   6.859  15.271
53005W        W56966  13.433   3.762  14.701
53006W        W56967  11.233   7.022  16.442
53007W        W56968  13.430   4.780  18.077
53008W        W56969  11.413   4.310  18.076
53009W        W56970  11.144   4.910  15.409
53010W        W56971  11.835   4.899  15.134
53011W        W56972  13.598   5.226  17.951
53012W        W56973  11.941   5.507  16.660
53013W        W56974  13.415   3.793  15.780
53014W        W56975  12.546   7.224  16.283
53015W        W56976  13.760   6.686  17.220
53016W        W56977  13.344   6.835  16.331
53017W        W56978  13.363   5.815  15.925
53018W        W56979  12.825   4.040  14.996
53019W        W56980  14.506   3.668  15.718
53020W        W56981  12.194   5.303  14.881
53021W        W56982  14.360   4.640  15.871
53022W        W56983  13.052   5.810  14.748
53023W        W56984  13.988   6.010  17.496
53024W        W56985  13.642   6.711  14.963
53025W        W56986  12.257   4.386  17.869
53026W        W56987  12.077   4.970  17.110
53027W        W56988  14.169   6.465  17.387
53028W        W56989  13.269   4.415  17.764
53029W        W56990  11.113   4.886  17.541
53030W        W56991  12.873   5.363  17.267
53031W        W56992  11.230   6.121  15.924
53032W        W56993  11.377   5.418  16.814
53033W        W56994  13.694   5.704  17.164
53034W        W56995  13.466   7.084  17.975
53035W        W56996  13.362   4.823  17.528
53036W        W56997  13.639   6.877  15.933
53037W        W56998  12.641   6.597  17.256
53038W        W56999  12.126   6.952  16.525
53039W        W57000  13.931   6.123  16.944
53040W        W57001  12.981   6.195  18.081
53041W        W57002  11.586   6.148  16.420
53042W        W57003  13.932   5.907  16.065
53043W        W57004  13.573   6.973  16.816
53044W        W57005  11.551   6.702  16.686
53045W        W57006  12.572   4.754  17.896
53046W        W57007  13.023   6.920  15.407
53047W        W57008  12.331   6.175  18.045
53048W        W57009  12.457   6.413  15.422
53049W        W57010  11.678   5.153  14.681
53050W        W57011  11.017   7.239  21.580
53051W        W57012  11.393   6.132  21.103
53052W        W57013  14.098   5.862  18.873
53053W        W57014  14.228   6.947  20.900
53054W        W57015  12.146   6.938  18.426
53055W        W57016  12.229   5.090  19.409
53056W        W57017  11.744   4.938  19.573
53057W        W57018  12.735   5.753  19.007
53058W        W57019  12.410   6.845  21.362
53059W        W57020  11.059   4.406  21.325
53060W        W57021  11.821   3.686  21.127
53061W        W57022  13.515   4.074  20.014
53062W        W57023  13.164   4.945  18.584
53063W        W57024  13.734   4.379  21.675
53064W        W57025  11.100   4.171  20.800
53065W        W57026  11.199   6.790  21.821
53066W        W57027  12.721   6.180  18.553
53067W        W57028  11.153   4.963  20.246
53068W        W57029  12.046   4.854  21.483
53069W        W57030  14.505   4.713  19.982
53070W        W57031  14.269   5.756  20.841
53071W        W57032  12.577   5.089  19.868
53072W        W57033  13.123   6.428  20.237
53073W        W57034  11.623   5.862  20.469
53074W        W57035  10.982   5.390  20.040
53075W        W57036  12.018   5.362  21.232
53076W        W57037  14.289   5.145  21.486
53077W        W57038  11.905   6.589  19.931
53078W        W57039  13.026   6.278  21.065
53079W        W57040  12.246   4.918  20.290
53080W        W57041  12.538   5.702  19.933
53081W        W57042  13.535   6.475  21.781
53082W        W57043  12.614   5.795  21.791
53083W        W57044  12.595   5.511  21.269
53084W        W57045  11.004   4.902  21.791
53085W        W57046  13.836   6.437  21.390
53086W        W57047  11.417   4.019  19.388
53087W        W57048  11.944   6.277  20.387
53088W        W57049  14.407   6.060  19.677
53089W        W57050  13.820   4.460  20.244
53090W        W57051  14.105   4.413  18.339
53091W        W57052  14.570   5.214  20.645
53092W        W57053  12.537   6.921  20.398
53093W        W57054  14.311   6.387  18.836
53094W        W57055  11.440   7.173  18.590
53095W        W57056  11.833   7.219  19.266
53096W        W57057  11.630   3.973  20.692
53097W        W57058  14.253   4.991  20.967
53098W        W57059  13.658   5.413  19.426
53099W        W57060  13.624   5.101  18.453
53100W        W57061  12.832   6.245  20.593
53101W        W57062  12.638   4.575  19.792
53102W        W57063  13.238   6.662  20.786
53103W        W57064  14.109   5.453  19.208
53104W        W57065  13.011   4.111  19.224
53105W        W57066  11.668   6.805  18.907
53106W        W57067  11.039   4.304  19.506
53107W        W57068  13.825   4.911  19.980
53108W        W57069  11.283   6.528  19.895
53109W        W57070  12.624   6.878  18.765
53110W        W57071  14.016   4.904  18.229
53111W        W57072  11.039   6.662  20.393
53112W        W57073  11.830   6.234  20.873
53113W        W57074  12.203   5.594  19.492
53114W        W57075  12.225   3.999  20.585
53115W        W57076  14.454   3.761  19.882
53116W        W57077  11.673   5.633  18.350
53117W        W57078  11.328   4.666  18.529
53118W        W57079  11.390   6.622  19.323
53119W        W57080  12.521   6.105  19.571
53120W        W57081  13.853   6.964  21.285
53121W        W57082  12.779   4.606  18.969
53122W        W57083  14.162   7.004  19.741
53123W        W57084  13.839   4.857  21.339
53124W        W57085  14.552   6.513  19.473
53125W        W57086  13.179   5.805  20.957
53126W        W57087  10.945   5.356  19.163
53127W        W57088  12.056   5.771  20.736
53128W        W57089  13.260   5.035  19.114
53129W        W57090  13.137   5.525  19.218
53130W        W57091  11.480   4.945  20.692
53131W        W57092  11.465   4.821  21.614
53132W        W57093  11.355   3.738  19.773
53133W        W57094  13.123   4.085  20.334
53134W        W57095  12.771   4.270  21.497
53135W        W57096  13.126   4.419  18.675
53136W        W57097  14.309   6.812  21.429
53137W        W57098  13.276   3.893  21.468
53138W        W57099  14.295   6.194  21.590
53139W        W57100  13.725   4.361  21.186
53140W        W57101  13.525   4.299  19.456
53141W        W57102  13.918   5.433  21.860
53142W        W57103  11.658   7.009  19.846
53143W        W57104  12.316   4.726  18.832
53144W        W57105  11.885   4.010  21.496
53145W        W57106  13.937   4.494  19.177
53146W        W57107  14.304   4.976  19.122
53147W        W57108  12.047   7.193  21.593
53148W        W57109  11.973   3.729  18.828
53149W        W57110  14.294   4.263  19.863
53150W        W57111  14.444   6.512  18.308
53151W        W57112  11.351   5.715  20.010
53152W        W57113  13.268   4.302  18.240
53153W        W57114  14.402   6.634  19.960
53154W        W57115  14.441   3.828  20.710
53155W        W57116  12.886   5.040  21.264
53156W        W57117  12.979   6.379  18.967
53157W        W57118  13.379   5.673  21.707
53158W        W57119  13.053   3.650  20.016
53159W        W57120  11.665   4.553  20.079
53160W        W57121  11.219   5.753  20.853
53161W        W57122  13.078   6.946  19.559
53162W        W57123  14.272   4.543  20.431
53163W        W57124  12.909   6.890  21.198
53164W        W57125  14.252   5.949  18.403
53165W        W57126  12.687   5.432  19.464
53166W        W57127  14.539   3.943  21.205
53167W        W57128  12.688   5.778  20.799
53168W        W57129  12.905   4.664  20.244
53169W        W57130  13.757   4.962  19.082
53170W        W57131  14.044   4.695  18.724
53171W        W57132  13.853   6.735  19.113
53172W        W57133  13.687   6.338  19.909
53173W        W57134  13.583   5.417  18.887
53174W        W57135  13.016   5.627  19.873
53175W        W57136  13.897   5.415  19.940
53176W        W57137  11.272   4.430  20.364
53177W        W57138  14.050   5.482  21.191
53178W        W57139  14.401   7.100  20.337
53179W        W57140  12.331   6.544  19.739
53180W        W57141  13.338   7.077  21.063
53181W        W57142  13.332   4.407  20.827
53182W        W57143  12.539   7.115  20.888
53183W        W57144  14.236   4.069  19.354
53184W        W57145  14.027   5.388  20.655
53185W        W57146  11.010   4.709  20.693
53186W        W57147  13.870   4.504  19.711
53187W        W57148  14.281   4.655  21.488
53188W        W57149  13.166   6.354  19.706
53189W        W57150  12.422   6.945  19.319
53190W        W57151  11.537   4.125  18.577
53191W        W57152  12.641   3.779  20.387
53192W        W57153  11.669   6.899  18.235
53193W        W57154  12.043   5.365  18.986
53194W        W57155  12.697   5.994  21.299
53195W        W57156  12.527   4.352  19.289
53196W        W57157  13.883   3.949  19.717
53197W        W57158  13.603   7.231  20.045
53198W        W57159  13.015   6.879  20.385
53199W        W57160  12.411   5.916  20.346
53200W        W57161  14.181   6.639  20.472
53201W        W57162  11.875   4.142  19.241
53202W        W57163  12.397   6.439  20.201
53203W        W57164  11.880   4.370  18.266
53204W        W57165  12.681   4.979  20.660
53205W        W57166  13.529   3.845  20.530
53206W        W57167  10.949   5.688  20.415
53207W        W57168  12.653   5.506  18.573
53208W        W57169  11.921   3.821  18.343
53209W        W57170  12.659   4.902  19.394
53210W        W57171  13.629   3.878  21.093
53211W        W57172  12.217   5.890  21.202
53212W        W57173  13.021   5.672  21.419
53213W        W57174  13.638   5.702  21.312
53214W        W57175  12.922   3.842  21.817
53215W        W57176  12.144   4.458  20.210
53216W        W57177  11.570   4.414  19.608
53217W        W57178  11.356   7.126  19.284
53218W        W57179  12.688   6.456  21.409
53219W        W57180  11.723   5.941  18.768
53220W        W57181  13.403   5.326  19.989
53221W        W57182  13.683   5.125  20.388
53222W        W57183  12.888   5.799  20.322
53223W        W57184  13.358   6.173  18.454
53224W        W57185  13.030   4.194  19.782
53225W        W57186  14.509   4.472  19.050
53226W        W57187  11.003   7.061  21.081
53227W        W57188  11.420   6.287  20.613
53228W        W57189  10.987   7.133  18.845
53229W        W57190  12.886   4.403  20.651
53230W        W57191  12.249   6.426  18.500
53231W        W57192  14.154   6.808  18.686
53232W        W57193  13.129   5.461  18.700
53233W        W57194  11.972   4.652  19.217
53234W        W57195  12.804   4.562  18.269
53235W        W57196  13.388   6.127  21.447
53236W        W57197  13.741   4.033  19.064
53237W        W57198  11.071   3.881  18.512
53238W        W57199  12.357   6.200  20.802
53239W        W57200  12.156   6.116  19.894
53240W        W57201  11.898   6.068  18.292
53241W        W57202  11.139   6.309  19.060
53242W        W57203  11.643   5.379  21.502
53243W        W57204  12.347   3.939  21.688
53244W        W57205  13.056   4.081  21.044
53245W        W57206  12.251   3.849  19.325
53246W        W57207  13.310   3.926  18.830
53247W        W57208  11.255   3.858  20.407
53248W        W57209  11.303   4.821  19.777
53249W        W57210  13.992   3.929  20.183
53250W        W57211  11.414   4.427  18.997
53251W        W57212  13.985   4.115  20.613
53252W        W57213  14.381   5.318  18.298
53253W        W57214  11.673   4.076  20.117
53254W        W57215  12.787   4.648  21.057
53255W        W57216  10.935   4.338  18.535
53256W        W57217  11.721   5.727  21.096
53257W        W57218  13.079   5.125  20.275
53258W        W57219  12.946   7.204  18.571
53259W        W57220  11.092   5.711  18.268
53260W        W57221  11.827   6.122  21.394
53261W        W57222  11.348   5.289  21.025
53262W        W57223  12.339   5.394  20.819
53263W        W57224  14.107   3.753  21.081
53264W        W57225  14.505   5.363  21.072
53265W        W57226  14.493   5.563  18.758
53266W        W57227  13.356   5.895  18.857
53267W        W57228  13.830   7.195  18.552
53268W        W57229  13.007   5.185  21.694
53269W        W57230  11.337   6.152  21.734
53270W        W57231  14.543   4.074  21.686
53271W        W57232  14.261   5.002  20.307
53272W        W57233  12.569   7.132  21.784
53273W        W57234  12.424   3.761  18.511
53274W        W57235  13.963   6.360  18.454
53275W        W57236  11.732   4.453  21.340
53276W        W57237  12.166   6.447  21.202
53277W        W57238  14.292   4.438  21.000
53278W        W57239  13.503   7.097  18.968
53279W        W57240  13.742   5.716  20.335
53280W        W57241  11.992   4.132  21.002
53281W        W57242  12.461   5.201  21.759
53282W        W57243  11.964   6.380  18.953
53283W        W57244  13.719   5.878  19.217
53284W        W57245  11.487   4.504  20.941
53285W        W57246  12.816   6.566  19.405
53286W        W57247  14.566   5.126  19.586
53287W        W57248  12.788   3.759  21.305
53288W        W57249  13.568   6.464  20.384
53289W        W57250  13.871   6.808  20.092
53290W        W57251  13.090   6.610  18.520
53291W        W57252  11.100   6.502  21.362
53292W        W57253  11.843   4.494  20.600
53293W        W57254  11.813   3.842  19.710
53294W        W57255  13.434   4.684  20.402
53295W        W57256  12.232   5.855  18.602
53296W        W57257  14.230   5.797  20.101
53297W        W57258  11.557   6.555  21.524
53298W        W57259  13.944   7.237  19.321
53299W        W57260  12.043   4.257  19.766
53300W        W57261  11.812   5.750  19.856
53301W        W57262  12.125   7.161  20.606
53302W        W57263  14.192   7.257  21.638
53303W        W57264  13.351   5.445  20.571
53304W        W57265  11.200   5.243  18.486
53305W        W57266  14.334   6.901  19.183
53306W        W57267  14.171   4.225  18.802
53307W        W57268  12.310   3.744  21.205
53308W        W57269  14.016   6.546  19.663
53309W        W57270  14.045   5.102  19.568
53310W        W57271  12.162   4.775  19.784
53311W        W57272  12.407   5.037  21.108
53312W        W57273  13.518   6.190  20.971
53313W        W57274  12.168   4.644  21.083
53314W        W57275  12.147   7.110  19.699
53315W        W57276  11.464   7.069  21.333
53316W        W57277  11.576   6.430  18.463
53317W        W57278  14.093   6.188  19.273
53318W        W57279  11.697   4.980  21.159
53319W        W57280  14.470   4.910  18.640
53320W        W57281  12.215   5.967  19.111
53321W        W57282  13.314   5.349  21.192
53322W        W57283  13.205   4.977  20.736
53323W        W57284  11.765   5.349  20.765
53324W        W57285  13.975   7.237  20.594
53325W        W57286  13.766   3.871  21.588
53326W        W57287  11.430   4.021  21.175
53327W        W57288  11.769   5.044  20.228
53328W        W57289  12.138   4.858  18.350
53329W        W57290  10.941   6.617  20.895
53330W        W57291  12.526   5.326  20.338
53331W        W57292  12.349   4.351  18.443
53332W        W57293  11.484   5.167  19.224
53333W        W57294  11.255   7.019  20.661
53334W        W57295  14.050   5.245  18.769
53335W        W57296  14.145   4.161  21.455
53336W        W57297  13.581   6.370  19.418
53337W        W57298  11.179   5.294  21.595
53338W        W57299  13.665   6.233  18.902
53339W        W57300  12.567   5.291  18.987
53340W        W57301  13.754   4.095  18.510
53341W        W57302  13.819   4.702  20.696
53342W        W57303  11.528   5.295  19.903
53343W        W57304  11.822   6.234  19.552
53344W        W57305  13.585   4.854  19.517
53345W        W57306  12.608   4.233  20.213
53346W        W57307  14.570   6.144  20.724
53347W        W57308  14.488   4.131  20.285
53348W        W57309  11.027   6.961  19.661
53349W        W57310  11.536   6.148  19.197
53350W        W57311  11.451   3.765  21.750
53351W        W57312  12.570   6.618  21.852
53352W        W57313  14.325   5.586  19.642
53353W        W57314  13.679   5.763  18.522
53354W        W57315  12.974   7.284  20.734
53355W        W57316  13.831   6.006  21.771
53356W        W57317  12.646   3.716  19.051
53357W        W57318  13.359   4.585  19.910
53358W        W57319  11.045   6.172  20.242
53359W        W57320  12.298   4.134  18.883
53360W        W57321  12.102   5.618  21.732
53361W        W57322  13.096   4.599  19.446
53362W        W57323  13.301   6.009  20.568
53363W        W57324  11.455   6.614  21.003
53364W        W57325  12.046   6.597  21.726
53365W        W57326  11.897   4.394  18.740
53366W        W57327  13.414   4.536  19.065
53367W        W57328  13.372   6.644  21.302
53368W        W57329  12.057   5.236  19.901
53369W        W57330  11.712   6.934  20.766
53370W        W57331  14.457   7.051  18.367
53371W        W57332  11.320   5.723  21.363
53372W        W57333  13.315   5.985  20.051
53373W        W57334  11.751   5.634  19.293
53374W        W57335  12.122   6.641  20.688
53375W        W57336  12.500   4.060  19.729
53376W        W57337  11.111   6.044  18.659
53377W        W57338  12.630   4.995  18.529
53378W        W57339  11.276   5.544  19.548
53379W        W57340  12.566   4.186  21.012
53380W        W57341  14.238   3.895  18.439
53381W        W57342  14.331   5.641  21.538
53382W        W57343  12.985   6.898  21.690
53383W        W57344  14.543   5.992  21.212
53384W        W57345  13.951   6.790  21.823
53385W        W57346  11.690   7.246  20.301
53386W        W57347  14.549   5.868  19.175
53387W        W57348  13.079   5.135  19.688
53388W        W57349  12.846   3.747  19.578
53389W        W57350  11.905   6.731  19.415
53390W        W57351  12.404   4.472  20.640
53391W        W57352  12.104   3.841  20.109
53392W        W57353  11.167   6.663  18.657
53393W        W57354  12.983   6.027  19.375
53394W        W57355  11.858   6.822  21.254
53395W        W57356  11.335   5.645  18.950
53396W        W57357  11.220   4.188  19.949
53397W        W57358  12.768   6.153  20.006
53398W        W57359  11.020   4.007  19.026
53399W        W57360  13.684   5.213  20.953
53400W        W57361  13.561   4.599  18.525
53401W        W57362  14.078   6.271  20.173
53402W        W57363  12.739   6.755  20.004
53403W        W57364  12.151   6.859  18.915
53404W        W57365  13.433   3.762  18.345
53405W        W57366  11.233   7.022  20.086
53406W        W57367  13.430   4.780  21.721
53407W        W57368  11.413   4.310  21.720
53408W        W57369  11.144   4.910  19.053
53409W        W57370  11.835   4.899  18.778
53410W        W57371  13.598   5.226  21.595
53411W        W57372  11.941   5.507  20.304
53412W        W57373  13.415   3.793  19.424
53413W        W57374  12.546   7.224  19.927
53414W        W57375  13.760   6.686  20.864
53415W        W57376  13.344   6.835  19.975
53416W        W57377  13.363   5.815  19.569
53417W        W57378  12.825   4.040  18.640
53418W        W57379  12.194   5.303  18.525
53419W        W57380  14.360   4.640  19.515
53420W        W57381  13.052   5.810  18.392
53421W        W57382  13.988   6.010  21.140
53422W        W57383  13.642   6.711  18.607
53423W        W57384  12.257   4.386  21.513
53424W        W57385  12.077   4.970  20.754
53425W        W57386  14.169   6.465  21.031
53426W        W57387  13.269   4.415  21.408
53427W        W57388  11.113   4.886  21.185
53428W        W57389  12.873   5.363  20.911
53429W        W57390  11.230   6.121  19.568
53430W        W57391  11.377   5.418  20.458
53431W        W57392  13.694   5.704  20.808
53432W        W57393  13.466   7.084  21.619
53433W        W57394  13.362   4.823  21.172
53434W        W57395  13.639   6.877  19.577
53435W        W57396  12.641   6.597  20.900
53436W        W57397  12.126   6.952  20.169
53437W        W57398  13.931   6.123  20.588
53438W        W57399  12.981   6.195  21.725
53439W        W57400  11.586   6.148  20.064
53440W        W57401  13.932   5.907  19.709
53441W        W57402  13.573   6.973  20.460
53442W        W57403  11.551   6.702  20.330
53443W        W57404  12.572   4.754  21.540
53444W        W57405  13.023   6.920  19.051
53445W        W57406  12.331   6.175  21.689
53446W        W57407  12.457   6.413  19.066
53447W        W57408  11.678   5.153  18.325
53448W        W57409  14.098   5.862  22.518
53449W        W57410  12.146   6.938  22.071
53450W        W57411  12.229   5.090  23.054
53451W        W57412  11.744   4.938  23.218
53452W        W57413  12.735   5.753  22.652
53453W        W57414  13.164   4.945  22.229
53454W        W57415  12.721   6.180  22.198
53455W        W57416  11.417   4.019  23.033
53456W        W57417  14.105   4.413  21.984
53457W        W57418  14.311   6.387  22.481
53458W        W57419  11.440   7.173  22.235
53459W        W57420  11.833   7.219  22.911
53460W        W57421  13.658   5.413  23.071
53461W        W57422  13.624   5.101  22.098
53462W        W57423  14.109   5.453  22.853
53463W        W57424  13.011   4.111  22.869
53464W        W57425  11.668   6.805  22.552
53465W        W57426  12.624   6.878  22.410
53466W        W57427  14.016   4.904  21.874
53467W        W57428  12.203   5.594  23.137
53468W        W57429  11.673   5.633  21.995
53469W        W57430  11.328   4.666  22.174
53470W        W57431  11.390   6.622  22.968
53471W        W57432  12.521   6.105  23.216
53472W        W57433  12.779   4.606  22.614
53473W        W57434  10.945   5.356  22.808
53474W        W57435  13.260   5.035  22.759
53475W        W57436  13.137   5.525  22.863
53476W        W57437  13.126   4.419  22.320
53477W        W57438  13.525   4.299  23.101
53478W        W57439  12.316   4.726  22.477
53479W        W57440  13.937   4.494  22.822
53480W        W57441  14.304   4.976  22.767
53481W        W57442  11.973   3.729  22.473
53482W        W57443  14.444   6.512  21.953
53483W        W57444  13.268   4.302  21.885
53484W        W57445  12.979   6.379  22.612
53485W        W57446  13.078   6.946  23.204
53486W        W57447  14.252   5.949  22.048
53487W        W57448  12.687   5.432  23.109
53488W        W57449  13.757   4.962  22.727
53489W        W57450  14.044   4.695  22.369
53490W        W57451  13.853   6.735  22.758
53491W        W57452  13.583   5.417  22.532
53492W        W57453  14.236   4.069  22.999
53493W        W57454  12.422   6.945  22.964
53494W        W57455  11.537   4.125  22.222
53495W        W57456  11.669   6.899  21.880
53496W        W57457  12.043   5.365  22.631
53497W        W57458  12.527   4.352  22.934
53498W        W57459  11.875   4.142  22.886
53499W        W57460  11.880   4.370  21.911
53500W        W57461  12.653   5.506  22.218
53501W        W57462  11.921   3.821  21.988
53502W        W57463  12.659   4.902  23.039
53503W        W57464  11.570   4.414  23.253
53504W        W57465  11.356   7.126  22.929
53505W        W57466  11.723   5.941  22.413
53506W        W57467  13.358   6.173  22.099
53507W        W57468  14.509   4.472  22.695
53508W        W57469  10.987   7.133  22.490
53509W        W57470  12.249   6.426  22.145
53510W        W57471  14.154   6.808  22.331
53511W        W57472  13.129   5.461  22.345
53512W        W57473  11.972   4.652  22.862
53513W        W57474  12.804   4.562  21.914
53514W        W57475  13.741   4.033  22.709
53515W        W57476  11.071   3.881  22.157
53516W        W57477  11.898   6.068  21.937
53517W        W57478  11.139   6.309  22.705
53518W        W57479  12.251   3.849  22.970
53519W        W57480  13.310   3.926  22.475
53520W        W57481  11.414   4.427  22.642
53521W        W57482  14.381   5.318  21.943
53522W        W57483  10.935   4.338  22.180
53523W        W57484  12.946   7.204  22.216
53524W        W57485  11.092   5.711  21.913
53525W        W57486  14.493   5.563  22.403
53526W        W57487  13.356   5.895  22.502
53527W        W57488  13.830   7.195  22.197
53528W        W57489  12.424   3.761  22.156
53529W        W57490  13.963   6.360  22.099
53530W        W57491  13.503   7.097  22.613
53531W        W57492  11.964   6.380  22.598
53532W        W57493  13.719   5.878  22.862
53533W        W57494  12.816   6.566  23.050
53534W        W57495  14.566   5.126  23.231
53535W        W57496  13.090   6.610  22.165
53536W        W57497  12.232   5.855  22.247
53537W        W57498  13.944   7.237  22.966
53538W        W57499  11.200   5.243  22.131
53539W        W57500  14.334   6.901  22.828
53540W        W57501  14.171   4.225  22.447
53541W        W57502  14.045   5.102  23.213
53542W        W57503  11.576   6.430  22.108
53543W        W57504  14.093   6.188  22.918
53544W        W57505  14.470   4.910  22.285
53545W        W57506  12.215   5.967  22.756
53546W        W57507  12.138   4.858  21.995
53547W        W57508  12.349   4.351  22.088
53548W        W57509  11.484   5.167  22.869
53549W        W57510  14.050   5.245  22.414
53550W        W57511  13.581   6.370  23.063
53551W        W57512  14.145   3.758  22.536
53552W        W57513  13.665   6.233  22.547
53553W        W57514  12.567   5.291  22.632
53554W        W57515  13.754   4.095  22.155
53555W        W57516  11.822   6.234  23.197
53556W        W57517  13.585   4.854  23.162
53557W        W57518  11.027   6.961  23.306
53558W        W57519  11.536   6.148  22.842
53559W        W57520  14.325   5.586  23.287
53560W        W57521  13.679   5.763  22.167
53561W        W57522  12.646   3.716  22.696
53562W        W57523  12.298   4.134  22.528
53563W        W57524  13.096   4.599  23.091
53564W        W57525  11.897   4.394  22.385
53565W        W57526  13.414   4.536  22.710
53566W        W57527  14.457   7.051  22.012
53567W        W57528  11.111   6.044  22.304
53568W        W57529  12.630   4.995  22.174
53569W        W57530  11.276   5.544  23.193
53570W        W57531  14.238   3.895  22.084
53571W        W57532  14.549   5.868  22.820
53572W        W57533  12.846   3.747  23.223
53573W        W57534  11.905   6.731  23.060
53574W        W57535  11.167   6.663  22.302
53575W        W57536  12.983   6.027  23.020
53576W        W57537  11.335   5.645  22.595
53577W        W57538  11.020   4.007  22.671
53578W        W57539  13.561   4.599  22.170
53579W        W57540  12.151   6.859  22.560
53580W        W57541  13.433   3.762  21.990
53581W        W57542  11.144   4.910  22.698
53582W        W57543  11.835   4.899  22.423
53583W        W57544  13.363   5.815  23.214
53584W        W57545  12.825   4.040  22.285
53585W        W57546  14.506   3.668  23.007
53586W        W57547  12.194   5.303  22.170
53587W        W57548  14.360   4.640  23.160
53588W        W57549  13.052   5.810  22.037
53589W        W57550  13.642   6.711  22.252
53590W        W57551  11.230   6.121  23.213
53591W        W57552  13.639   6.877  23.222
53592W        W57553  13.023   6.920  22.696
53593W        W57554  12.457   6.413  22.711
53594W        W57555  11.678   5.153  21.970
53595W        W57556  11.017  10.884   3.359
53596W        W57557  11.393   9.777   2.882
53597W        W57558  14.098   9.507   0.652
53598W        W57559  14.228  10.592   2.679
53599W        W57560  12.146  10.583   0.205
53600W        W57561  12.229   8.735   1.188
53601W        W57562  11.744   8.583   1.352
53602W        W57563  12.735   9.398   0.786
53603W        W57564  12.410  10.490   3.141
53604W        W57565  11.059   8.051   3.104
53605W        W57566  11.821   7.331   2.906
53606W        W57567  13.515   7.719   1.793
53607W        W57568  13.164   8.590   0.363
53608W        W57569  13.734   8.024   3.454
53609W        W57570  11.100   7.816   2.579
53610W        W57571  11.199  10.435   3.600
53611W        W57572  12.721   9.825   0.332
53612W        W57573  11.153   8.608   2.025
53613W        W57574  12.046   8.499   3.262
53614W        W57575  14.505   8.358   1.761
53615W        W57576  14.269   9.401   2.620
53616W        W57577  12.577   8.734   1.647
53617W        W57578  13.123  10.073   2.016
53618W        W57579  11.623   9.507   2.248
53619W        W57580  10.982   9.035   1.819
53620W        W57581  12.018   9.007   3.011
53621W        W57582  14.289   8.790   3.265
53622W        W57583  11.905  10.234   1.710
53623W        W57584  13.026   9.923   2.844
53624W        W57585  12.246   8.563   2.069
53625W        W57586  12.538   9.347   1.712
53626W        W57587  13.535  10.120   3.560
53627W        W57588  12.614   9.440   3.570
53628W        W57589  12.595   9.156   3.048
53629W        W57590  11.004   8.547   3.570
53630W        W57591  13.836  10.082   3.169
53631W        W57592  11.417   7.664   1.167
53632W        W57593  11.944   9.922   2.166
53633W        W57594  14.407   9.705   1.456
53634W        W57595  13.820   8.105   2.023
53635W        W57596  14.105   8.058   0.118
53636W        W57597  14.570   8.859   2.424
53637W        W57598  12.537  10.566   2.177
53638W        W57599  14.311  10.032   0.615
53639W        W57600  11.440  10.818   0.369
53640W        W57601  11.833  10.864   1.045
53641W        W57602  11.630   7.618   2.471
53642W        W57603  14.253   8.636   2.746
53643W        W57604  13.658   9.058   1.205
53644W        W57605  13.624   8.746   0.232
53645W        W57606  12.832   9.890   2.372
53646W        W57607  12.638   8.220   1.571
53647W        W57608  13.238  10.307   2.565
53648W        W57609  14.109   9.098   0.987
53649W        W57610  13.011   7.756   1.003
53650W        W57611  11.668  10.450   0.686
53651W        W57612  11.039   7.949   1.285
53652W        W57613  13.825   8.556   1.759
53653W        W57614  11.283  10.173   1.674
53654W        W57615  12.624  10.523   0.544
53655W        W57616  14.016   8.549   0.008
53656W        W57617  11.039  10.307   2.172
53657W        W57618  11.830   9.879   2.652
53658W        W57619  12.203   9.239   1.271
53659W        W57620  12.225   7.644   2.364
53660W        W57621  14.454   7.406   1.661
53661W        W57622  11.673   9.278   0.129
53662W        W57623  11.328   8.311   0.308
53663W        W57624  11.390  10.267   1.102
53664W        W57625  12.521   9.750   1.350
53665W        W57626  13.853  10.609   3.064
53666W        W57627  12.779   8.251   0.748
53667W        W57628  14.162  10.649   1.520
53668W        W57629  13.839   8.502   3.118
53669W        W57630  14.552  10.158   1.252
53670W        W57631  13.179   9.450   2.736
53671W        W57632  12.056   9.416   2.515
53672W        W57633  13.260   8.680   0.893
53673W        W57634  13.137   9.170   0.997
53674W        W57635  11.480   8.590   2.471
53675W        W57636  11.465   8.466   3.393
53676W        W57637  11.355   7.383   1.552
53677W        W57638  13.123   7.730   2.113
53678W        W57639  12.771   7.915   3.276
53679W        W57640  13.126   8.064   0.454
53680W        W57641  14.309  10.457   3.208
53681W        W57642  13.276   7.538   3.247
53682W        W57643  14.295   9.839   3.369
53683W        W57644  13.725   8.006   2.965
53684W        W57645  13.525   7.944   1.235
53685W        W57646  13.918   9.078   3.639
53686W        W57647  11.658  10.654   1.625
53687W        W57648  12.316   8.371   0.611
53688W        W57649  11.885   7.655   3.275
53689W        W57650  13.937   8.139   0.956
53690W        W57651  14.304   8.621   0.901
53691W        W57652  12.047  10.838   3.372
53692W        W57653  11.973   7.374   0.607
53693W        W57654  14.294   7.908   1.642
53694W        W57655  14.444  10.157   0.087
53695W        W57656  11.351   9.360   1.789
53696W        W57657  13.268   7.947   0.019
53697W        W57658  14.402  10.279   1.739
53698W        W57659  14.441   7.473   2.489
53699W        W57660  12.886   8.685   3.043
53700W        W57661  12.979  10.024   0.746
53701W        W57662  13.379   9.318   3.486
53702W        W57663  13.053   7.295   1.795
53703W        W57664  11.665   8.198   1.858
53704W        W57665  11.219   9.398   2.632
53705W        W57666  13.078  10.591   1.338
53706W        W57667  14.272   8.188   2.210
53707W        W57668  12.909  10.535   2.977
53708W        W57669  14.252   9.594   0.182
53709W        W57670  12.687   9.077   1.243
53710W        W57671  14.539   7.588   2.984
53711W        W57672  12.688   9.423   2.578
53712W        W57673  12.905   8.309   2.023
53713W        W57674  13.757   8.607   0.861
53714W        W57675  14.044   8.340   0.503
53715W        W57676  13.853  10.380   0.892
53716W        W57677  13.687   9.983   1.688
53717W        W57678  13.583   9.062   0.666
53718W        W57679  13.016   9.272   1.652
53719W        W57680  13.897   9.060   1.719
53720W        W57681  11.272   8.075   2.143
53721W        W57682  14.050   9.127   2.970
53722W        W57683  12.331  10.189   1.518
53723W        W57684  13.338  10.722   2.842
53724W        W57685  13.332   8.052   2.606
53725W        W57686  12.539  10.760   2.667
53726W        W57687  14.236   7.714   1.133
53727W        W57688  14.027   9.033   2.434
53728W        W57689  11.010   8.354   2.472
53729W        W57690  13.870   8.149   1.490
53730W        W57691  14.281   8.300   3.267
53731W        W57692  13.166   9.999   1.485
53732W        W57693  12.422  10.590   1.098
53733W        W57694  11.537   7.770   0.356
53734W        W57695  12.641   7.424   2.166
53735W        W57696  11.669  10.544   0.014
53736W        W57697  12.043   9.010   0.765
53737W        W57698  12.697   9.639   3.078
53738W        W57699  12.527   7.997   1.068
53739W        W57700  13.883   7.594   1.496
53740W        W57701  13.603  10.876   1.824
53741W        W57702  13.015  10.524   2.164
53742W        W57703  12.411   9.561   2.125
53743W        W57704  14.181  10.284   2.251
53744W        W57705  11.875   7.787   1.020
53745W        W57706  12.397  10.084   1.980
53746W        W57707  11.880   8.015   0.045
53747W        W57708  12.681   8.624   2.439
53748W        W57709  13.529   7.490   2.309
53749W        W57710  10.949   9.333   2.194
53750W        W57711  12.653   9.151   0.352
53751W        W57712  11.921   7.466   0.122
53752W        W57713  12.659   8.547   1.173
53753W        W57714  13.629   7.523   2.872
53754W        W57715  12.217   9.535   2.981
53755W        W57716  13.021   9.317   3.198
53756W        W57717  13.638   9.347   3.091
53757W        W57718  12.922   7.487   3.596
53758W        W57719  12.144   8.103   1.989
53759W        W57720  11.570   8.059   1.387
53760W        W57721  11.356  10.771   1.063
53761W        W57722  12.688  10.101   3.188
53762W        W57723  11.723   9.586   0.547
53763W        W57724  13.403   8.971   1.768
53764W        W57725  13.683   8.770   2.167
53765W        W57726  12.888   9.444   2.101
53766W        W57727  13.358   9.818   0.233
53767W        W57728  13.030   7.839   1.561
53768W        W57729  14.509   8.117   0.829
53769W        W57730  11.003  10.706   2.860
53770W        W57731  11.420   9.932   2.392
53771W        W57732  10.987  10.778   0.624
53772W        W57733  12.886   8.048   2.430
53773W        W57734  12.249  10.071   0.279
53774W        W57735  14.154  10.453   0.465
53775W        W57736  13.129   9.106   0.479
53776W        W57737  11.972   8.297   0.996
53777W        W57738  12.804   8.207   0.048
53778W        W57739  13.388   9.772   3.226
53779W        W57740  13.741   7.678   0.843
53780W        W57741  11.071   7.526   0.291
53781W        W57742  12.357   9.845   2.581
53782W        W57743  12.156   9.761   1.673
53783W        W57744  11.898   9.713   0.071
53784W        W57745  11.139   9.954   0.839
53785W        W57746  11.643   9.024   3.281
53786W        W57747  12.347   7.584   3.467
53787W        W57748  13.056   7.726   2.823
53788W        W57749  12.251   7.494   1.104
53789W        W57750  13.310   7.571   0.609
53790W        W57751  11.255   7.503   2.186
53791W        W57752  11.303   8.466   1.556
53792W        W57753  13.992   7.574   1.962
53793W        W57754  11.414   8.072   0.776
53794W        W57755  13.985   7.760   2.392
53795W        W57756  14.381   8.963   0.077
53796W        W57757  11.673   7.721   1.896
53797W        W57758  12.787   8.293   2.836
53798W        W57759  10.935   7.983   0.314
53799W        W57760  11.721   9.372   2.875
53800W        W57761  13.079   8.770   2.054
53801W        W57762  12.946  10.849   0.350
53802W        W57763  11.092   9.356   0.047
53803W        W57764  11.827   9.767   3.173
53804W        W57765  11.348   8.934   2.804
53805W        W57766  12.339   9.039   2.598
53806W        W57767  14.107   7.398   2.860
53807W        W57768  14.505   9.008   2.851
53808W        W57769  14.493   9.208   0.537
53809W        W57770  13.356   9.540   0.636
53810W        W57771  13.830  10.840   0.331
53811W        W57772  13.007   8.830   3.473
53812W        W57773  11.337   9.797   3.513
53813W        W57774  14.543   7.719   3.465
53814W        W57775  14.261   8.647   2.086
53815W        W57776  12.569  10.777   3.563
53816W        W57777  12.424   7.406   0.290
53817W        W57778  13.963  10.005   0.233
53818W        W57779  11.732   8.098   3.119
53819W        W57780  12.166  10.092   2.981
53820W        W57781  14.292   8.083   2.779
53821W        W57782  13.503  10.742   0.747
53822W        W57783  13.742   9.361   2.114
53823W        W57784  11.992   7.777   2.781
53824W        W57785  12.461   8.846   3.538
53825W        W57786  11.964  10.025   0.732
53826W        W57787  13.719   9.523   0.996
53827W        W57788  11.487   8.149   2.720
53828W        W57789  12.816  10.211   1.184
53829W        W57790  14.566   8.771   1.365
53830W        W57791  12.788   7.404   3.084
53831W        W57792  13.568  10.109   2.163
53832W        W57793  13.871  10.453   1.871
53833W        W57794  13.090  10.255   0.299
53834W        W57795  11.100  10.147   3.141
53835W        W57796  11.843   8.139   2.379
53836W        W57797  11.813   7.487   1.489
53837W        W57798  13.434   8.329   2.181
53838W        W57799  12.232   9.500   0.381
53839W        W57800  14.230   9.442   1.880
53840W        W57801  11.557  10.200   3.303
53841W        W57802  13.944  10.882   1.100
53842W        W57803  12.043   7.902   1.545
53843W        W57804  11.812   9.395   1.635
53844W        W57805  12.125  10.806   2.385
53845W        W57806  14.192  10.902   3.417
53846W        W57807  13.351   9.090   2.350
53847W        W57808  11.200   8.888   0.265
53848W        W57809  14.334  10.546   0.962
53849W        W57810  14.171   7.870   0.581
53850W        W57811  12.310   7.389   2.984
53851W        W57812  14.016  10.191   1.442
53852W        W57813  14.045   8.747   1.347
53853W        W57814  12.162   8.420   1.563
53854W        W57815  12.407   8.682   2.887
53855W        W57816  13.518   9.835   2.750
53856W        W57817  12.168   8.289   2.862
53857W        W57818  12.147  10.755   1.478
53858W        W57819  11.464  10.714   3.112
53859W        W57820  11.576  10.075   0.242
53860W        W57821  14.093   9.833   1.052
53861W        W57822  11.697   8.625   2.938
53862W        W57823  14.470   8.555   0.419
53863W        W57824  12.215   9.612   0.890
53864W        W57825  13.314   8.994   2.971
53865W        W57826  13.205   8.622   2.515
53866W        W57827  11.765   8.994   2.544
53867W        W57828  13.975  10.882   2.373
53868W        W57829  13.766   7.516   3.367
53869W        W57830  11.430   7.666   2.954
53870W        W57831  11.769   8.689   2.007
53871W        W57832  12.138   8.503   0.129
53872W        W57833  10.941  10.262   2.674
53873W        W57834  12.526   8.971   2.117
53874W        W57835  12.349   7.996   0.222
53875W        W57836  11.255  10.664   2.440
53876W        W57837  14.050   8.890   0.548
53877W        W57838  14.145   7.806   3.234
53878W        W57839  13.581  10.015   1.197
53879W        W57840  11.179   8.939   3.374
53880W        W57841  14.145   7.403   0.670
53881W        W57842  13.665   9.878   0.681
53882W        W57843  12.567   8.936   0.766
53883W        W57844  13.754   7.740   0.289
53884W        W57845  13.819   8.347   2.475
53885W        W57846  11.528   8.940   1.682
53886W        W57847  11.822   9.879   1.331
53887W        W57848  13.585   8.499   1.296
53888W        W57849  12.608   7.878   1.992
53889W        W57850  14.570   9.789   2.503
53890W        W57851  14.488   7.776   2.064
53891W        W57852  11.027  10.606   1.440
53892W        W57853  11.536   9.793   0.976
53893W        W57854  11.451   7.410   3.529
53894W        W57855  12.570  10.263   3.631
53895W        W57856  14.325   9.231   1.421
53896W        W57857  13.679   9.408   0.301
53897W        W57858  12.974  10.929   2.513
53898W        W57859  13.831   9.651   3.550
53899W        W57860  12.646   7.361   0.830
53900W        W57861  13.359   8.230   1.689
53901W        W57862  11.045   9.817   2.021
53902W        W57863  12.298   7.779   0.662
53903W        W57864  12.102   9.263   3.511
53904W        W57865  13.096   8.244   1.225
53905W        W57866  13.301   9.654   2.347
53906W        W57867  11.455  10.259   2.782
53907W        W57868  12.046  10.242   3.505
53908W        W57869  11.897   8.039   0.519
53909W        W57870  13.414   8.181   0.844
53910W        W57871  13.372  10.289   3.081
53911W        W57872  12.057   8.881   1.680
53912W        W57873  11.712  10.579   2.545
53913W        W57874  14.457  10.696   0.146
53914W        W57875  11.320   9.368   3.142
53915W        W57876  13.315   9.630   1.830
53916W        W57877  11.751   9.279   1.072
53917W        W57878  12.122  10.286   2.467
53918W        W57879  12.500   7.705   1.508
53919W        W57880  11.111   9.689   0.438
53920W        W57881  12.630   8.640   0.308
53921W        W57882  11.276   9.189   1.327
53922W        W57883  12.566   7.831   2.791
53923W        W57884  14.238   7.540   0.218
53924W        W57885  14.331   9.286   3.317
53925W        W57886  12.985  10.543   3.469
53926W        W57887  14.543   9.637   2.991
53927W        W57888  13.951  10.435   3.602
53928W        W57889  11.690  10.891   2.080
53929W        W57890  14.549   9.513   0.954
53930W        W57891  13.079   8.780   1.467
53931W        W57892  12.846   7.392   1.357
53932W        W57893  11.905  10.376   1.194
53933W        W57894  12.404   8.117   2.419
53934W        W57895  12.104   7.486   1.888
53935W        W57896  11.167  10.308   0.436
53936W        W57897  12.983   9.672   1.154
53937W        W57898  11.858  10.467   3.033
53938W        W57899  11.335   9.290   0.729
53939W        W57900  11.220   7.833   1.728
53940W        W57901  12.768   9.798   1.785
53941W        W57902  11.020   7.652   0.805
53942W        W57903  13.684   8.858   2.732
53943W        W57904  13.561   8.244   0.304
53944W        W57905  14.078   9.916   1.952
53945W        W57906  12.739  10.400   1.783
53946W        W57907  12.151  10.504   0.694
53947W        W57908  13.433   7.407   0.124
53948W        W57909  11.233  10.667   1.865
53949W        W57910  13.430   8.425   3.500
53950W        W57911  11.413   7.955   3.499
53951W        W57912  11.144   8.555   0.832
53952W        W57913  11.835   8.544   0.557
53953W        W57914  13.598   8.871   3.374
53954W        W57915  11.941   9.152   2.083
53955W        W57916  13.415   7.438   1.203
53956W        W57917  12.546  10.869   1.706
53957W        W57918  13.760  10.331   2.643
53958W        W57919  13.344  10.480   1.754
53959W        W57920  13.363   9.460   1.348
53960W        W57921  12.825   7.685   0.419
53961W        W57922  14.506   7.313   1.141
53962W        W57923  12.194   8.948   0.304
53963W        W57924  14.360   8.285   1.294
53964W        W57925  13.052   9.455   0.171
53965W        W57926  13.988   9.655   2.919
53966W        W57927  13.642  10.356   0.386
53967W        W57928  12.257   8.031   3.292
53968W        W57929  12.077   8.615   2.533
53969W        W57930  14.169  10.110   2.810
53970W        W57931  13.269   8.060   3.187
53971W        W57932  11.113   8.531   2.964
53972W        W57933  12.873   9.008   2.690
53973W        W57934  11.230   9.766   1.347
53974W        W57935  11.377   9.063   2.237
53975W        W57936  13.694   9.349   2.587
53976W        W57937  13.466  10.729   3.398
53977W        W57938  13.362   8.468   2.951
53978W        W57939  13.639  10.522   1.356
53979W        W57940  12.641  10.242   2.679
53980W        W57941  12.126  10.597   1.948
53981W        W57942  13.931   9.768   2.367
53982W        W57943  12.981   9.840   3.504
53983W        W57944  11.586   9.793   1.843
53984W        W57945  13.932   9.552   1.488
53985W        W57946  13.573  10.618   2.239
53986W        W57947  11.551  10.347   2.109
53987W        W57948  12.572   8.399   3.319
53988W        W57949  13.023  10.565   0.830
53989W        W57950  12.331   9.820   3.468
53990W        W57951  12.457  10.058   0.845
53991W        W57952  11.678   8.798   0.104
53992W        W57953  11.017  10.884   7.003
53993W        W57954  11.393   9.777   6.526
53994W        W57955  14.098   9.507   4.296
53995W        W57956  14.228  10.592   6.323
53996W        W57957  12.146  10.583   3.849
53997W        W57958  12.229   8.735   4.832
53998W        W57959  11.744   8.583   4.996
53999W        W57960  12.735   9.398   4.430
54000W        W57961  12.410  10.490   6.785
54001W        W57962  11.059   8.051   6.748
54002W        W57963  11.821   7.331   6.550
54003W        W57964  13.515   7.719   5.437
54004W        W57965  13.164   8.590   4.007
54005W        W57966  13.734   8.024   7.098
54006W        W57967  11.100   7.816   6.223
54007W        W57968  11.199  10.435   7.244
54008W        W57969  12.721   9.825   3.976
54009W        W57970  11.153   8.608   5.669
54010W        W57971  12.046   8.499   6.906
54011W        W57972  14.505   8.358   5.405
54012W        W57973  14.269   9.401   6.264
54013W        W57974  12.577   8.734   5.291
54014W        W57975  13.123  10.073   5.660
54015W        W57976  11.623   9.507   5.892
54016W        W57977  10.982   9.035   5.463
54017W        W57978  12.018   9.007   6.655
54018W        W57979  14.289   8.790   6.909
54019W        W57980  11.905  10.234   5.354
54020W        W57981  13.026   9.923   6.488
54021W        W57982  12.246   8.563   5.713
54022W        W57983  12.538   9.347   5.356
54023W        W57984  13.535  10.120   7.204
54024W        W57985  12.614   9.440   7.214
54025W        W57986  12.595   9.156   6.692
54026W        W57987  11.004   8.547   7.214
54027W        W57988  13.836  10.082   6.813
54028W        W57989  11.417   7.664   4.811
54029W        W57990  11.944   9.922   5.810
54030W        W57991  14.407   9.705   5.100
54031W        W57992  13.820   8.105   5.667
54032W        W57993  14.105   8.058   3.762
54033W        W57994  14.570   8.859   6.068
54034W        W57995  12.537  10.566   5.821
54035W        W57996  14.311  10.032   4.259
54036W        W57997  11.440  10.818   4.013
54037W        W57998  11.833  10.864   4.689
54038W        W57999  11.630   7.618   6.115
54039W        W58000  14.253   8.636   6.390
54040W        W58001  13.658   9.058   4.849
54041W        W58002  13.624   8.746   3.876
54042W        W58003  12.832   9.890   6.016
54043W        W58004  12.638   8.220   5.215
54044W        W58005  13.238  10.307   6.209
54045W        W58006  14.109   9.098   4.631
54046W        W58007  13.011   7.756   4.647
54047W        W58008  11.668  10.450   4.330
54048W        W58009  11.039   7.949   4.929
54049W        W58010  13.825   8.556   5.403
54050W        W58011  11.283  10.173   5.318
54051W        W58012  12.624  10.523   4.188
54052W        W58013  14.016   8.549   3.652
54053W        W58014  11.039  10.307   5.816
54054W        W58015  11.830   9.879   6.296
54055W        W58016  12.203   9.239   4.915
54056W        W58017  12.225   7.644   6.008
54057W        W58018  14.454   7.406   5.305
54058W        W58019  11.673   9.278   3.773
54059W        W58020  11.328   8.311   3.952
54060W        W58021  11.390  10.267   4.746
54061W        W58022  12.521   9.750   4.994
54062W        W58023  13.853  10.609   6.708
54063W        W58024  12.779   8.251   4.392
54064W        W58025  14.162  10.649   5.164
54065W        W58026  13.839   8.502   6.762
54066W        W58027  14.552  10.158   4.896
54067W        W58028  13.179   9.450   6.380
54068W        W58029  10.945   9.001   4.586
54069W        W58030  12.056   9.416   6.159
54070W        W58031  13.260   8.680   4.537
54071W        W58032  13.137   9.170   4.641
54072W        W58033  11.480   8.590   6.115
54073W        W58034  11.465   8.466   7.037
54074W        W58035  11.355   7.383   5.196
54075W        W58036  13.123   7.730   5.757
54076W        W58037  12.771   7.915   6.920
54077W        W58038  13.126   8.064   4.098
54078W        W58039  14.309  10.457   6.852
54079W        W58040  13.276   7.538   6.891
54080W        W58041  14.295   9.839   7.013
54081W        W58042  13.725   8.006   6.609
54082W        W58043  13.525   7.944   4.879
54083W        W58044  13.918   9.078   7.283
54084W        W58045  11.658  10.654   5.269
54085W        W58046  12.316   8.371   4.255
54086W        W58047  11.885   7.655   6.919
54087W        W58048  13.937   8.139   4.600
54088W        W58049  14.304   8.621   4.545
54089W        W58050  12.047  10.838   7.016
54090W        W58051  11.973   7.374   4.251
54091W        W58052  14.294   7.908   5.286
54092W        W58053  14.444  10.157   3.731
54093W        W58054  11.351   9.360   5.433
54094W        W58055  13.268   7.947   3.663
54095W        W58056  14.402  10.279   5.383
54096W        W58057  14.441   7.473   6.133
54097W        W58058  12.886   8.685   6.687
54098W        W58059  12.979  10.024   4.390
54099W        W58060  13.379   9.318   7.130
54100W        W58061  13.053   7.295   5.439
54101W        W58062  11.665   8.198   5.502
54102W        W58063  11.219   9.398   6.276
54103W        W58064  13.078  10.591   4.982
54104W        W58065  14.272   8.188   5.854
54105W        W58066  12.909  10.535   6.621
54106W        W58067  14.252   9.594   3.826
54107W        W58068  12.687   9.077   4.887
54108W        W58069  14.539   7.588   6.628
54109W        W58070  12.688   9.423   6.222
54110W        W58071  12.905   8.309   5.667
54111W        W58072  13.757   8.607   4.505
54112W        W58073  14.044   8.340   4.147
54113W        W58074  13.853  10.380   4.536
54114W        W58075  13.687   9.983   5.332
54115W        W58076  13.583   9.062   4.310
54116W        W58077  13.016   9.272   5.296
54117W        W58078  13.897   9.060   5.363
54118W        W58079  11.272   8.075   5.787
54119W        W58080  14.050   9.127   6.614
54120W        W58081  14.401  10.745   5.760
54121W        W58082  12.331  10.189   5.162
54122W        W58083  13.338  10.722   6.486
54123W        W58084  13.332   8.052   6.250
54124W        W58085  12.539  10.760   6.311
54125W        W58086  14.236   7.714   4.777
54126W        W58087  14.027   9.033   6.078
54127W        W58088  11.010   8.354   6.116
54128W        W58089  13.870   8.149   5.134
54129W        W58090  14.281   8.300   6.911
54130W        W58091  13.166   9.999   5.129
54131W        W58092  12.422  10.590   4.742
54132W        W58093  11.537   7.770   4.000
54133W        W58094  12.641   7.424   5.810
54134W        W58095  11.669  10.544   3.658
54135W        W58096  12.043   9.010   4.409
54136W        W58097  12.697   9.639   6.722
54137W        W58098  12.527   7.997   4.712
54138W        W58099  13.883   7.594   5.140
54139W        W58100  13.603  10.876   5.468
54140W        W58101  13.015  10.524   5.808
54141W        W58102  12.411   9.561   5.769
54142W        W58103  14.181  10.284   5.895
54143W        W58104  11.875   7.787   4.664
54144W        W58105  12.397  10.084   5.624
54145W        W58106  11.880   8.015   3.689
54146W        W58107  12.681   8.624   6.083
54147W        W58108  13.529   7.490   5.953
54148W        W58109  10.949   9.333   5.838
54149W        W58110  12.653   9.151   3.996
54150W        W58111  11.921   7.466   3.766
54151W        W58112  12.659   8.547   4.817
54152W        W58113  13.629   7.523   6.516
54153W        W58114  12.217   9.535   6.625
54154W        W58115  13.021   9.317   6.842
54155W        W58116  13.638   9.347   6.735
54156W        W58117  12.922   7.487   7.240
54157W        W58118  12.144   8.103   5.633
54158W        W58119  11.570   8.059   5.031
54159W        W58120  11.356  10.771   4.707
54160W        W58121  12.688  10.101   6.832
54161W        W58122  11.723   9.586   4.191
54162W        W58123  13.403   8.971   5.412
54163W        W58124  13.683   8.770   5.811
54164W        W58125  12.888   9.444   5.745
54165W        W58126  13.358   9.818   3.877
54166W        W58127  13.030   7.839   5.205
54167W        W58128  14.509   8.117   4.473
54168W        W58129  11.003  10.706   6.504
54169W        W58130  11.420   9.932   6.036
54170W        W58131  10.987  10.778   4.268
54171W        W58132  12.886   8.048   6.074
54172W        W58133  12.249  10.071   3.923
54173W        W58134  14.154  10.453   4.109
54174W        W58135  13.129   9.106   4.123
54175W        W58136  11.972   8.297   4.640
54176W        W58137  12.804   8.207   3.692
54177W        W58138  13.388   9.772   6.870
54178W        W58139  13.741   7.678   4.487
54179W        W58140  11.071   7.526   3.935
54180W        W58141  12.357   9.845   6.225
54181W        W58142  12.156   9.761   5.317
54182W        W58143  11.898   9.713   3.715
54183W        W58144  11.139   9.954   4.483
54184W        W58145  11.643   9.024   6.925
54185W        W58146  12.347   7.584   7.111
54186W        W58147  13.056   7.726   6.467
54187W        W58148  12.251   7.494   4.748
54188W        W58149  13.310   7.571   4.253
54189W        W58150  11.255   7.503   5.830
54190W        W58151  11.303   8.466   5.200
54191W        W58152  13.992   7.574   5.606
54192W        W58153  11.414   8.072   4.420
54193W        W58154  13.985   7.760   6.036
54194W        W58155  14.381   8.963   3.721
54195W        W58156  11.673   7.721   5.540
54196W        W58157  12.787   8.293   6.480
54197W        W58158  10.935   7.983   3.958
54198W        W58159  11.721   9.372   6.519
54199W        W58160  13.079   8.770   5.698
54200W        W58161  12.946  10.849   3.994
54201W        W58162  11.092   9.356   3.691
54202W        W58163  11.827   9.767   6.817
54203W        W58164  11.348   8.934   6.448
54204W        W58165  12.339   9.039   6.242
54205W        W58166  14.107   7.398   6.504
54206W        W58167  14.505   9.008   6.495
54207W        W58168  14.493   9.208   4.181
54208W        W58169  13.356   9.540   4.280
54209W        W58170  13.830  10.840   3.975
54210W        W58171  13.007   8.830   7.117
54211W        W58172  11.337   9.797   7.157
54212W        W58173  14.543   7.719   7.109
54213W        W58174  14.261   8.647   5.730
54214W        W58175  12.569  10.777   7.207
54215W        W58176  12.424   7.406   3.934
54216W        W58177  13.963  10.005   3.877
54217W        W58178  11.732   8.098   6.763
54218W        W58179  12.166  10.092   6.625
54219W        W58180  14.292   8.083   6.423
54220W        W58181  13.503  10.742   4.391
54221W        W58182  13.742   9.361   5.758
54222W        W58183  11.992   7.777   6.425
54223W        W58184  12.461   8.846   7.182
54224W        W58185  11.964  10.025   4.376
54225W        W58186  13.719   9.523   4.640
54226W        W58187  11.487   8.149   6.364
54227W        W58188  12.816  10.211   4.828
54228W        W58189  14.566   8.771   5.009
54229W        W58190  12.788   7.404   6.728
54230W        W58191  13.568  10.109   5.807
54231W        W58192  13.871  10.453   5.515
54232W        W58193  13.090  10.255   3.943
54233W        W58194  11.100  10.147   6.785
54234W        W58195  11.843   8.139   6.023
54235W        W58196  11.813   7.487   5.133
54236W        W58197  13.434   8.329   5.825
54237W        W58198  12.232   9.500   4.025
54238W        W58199  14.230   9.442   5.524
54239W        W58200  11.557  10.200   6.947
54240W        W58201  13.944  10.882   4.744
54241W        W58202  12.043   7.902   5.189
54242W        W58203  11.812   9.395   5.279
54243W        W58204  12.125  10.806   6.029
54244W        W58205  14.192  10.902   7.061
54245W        W58206  13.351   9.090   5.994
54246W        W58207  11.200   8.888   3.909
54247W        W58208  14.334  10.546   4.606
54248W        W58209  14.171   7.870   4.225
54249W        W58210  12.310   7.389   6.628
54250W        W58211  14.016  10.191   5.086
54251W        W58212  14.045   8.747   4.991
54252W        W58213  12.162   8.420   5.207
54253W        W58214  12.407   8.682   6.531
54254W        W58215  13.518   9.835   6.394
54255W        W58216  12.168   8.289   6.506
54256W        W58217  12.147  10.755   5.122
54257W        W58218  11.464  10.714   6.756
54258W        W58219  11.576  10.075   3.886
54259W        W58220  14.093   9.833   4.696
54260W        W58221  11.697   8.625   6.582
54261W        W58222  14.470   8.555   4.063
54262W        W58223  12.215   9.612   4.534
54263W        W58224  13.314   8.994   6.615
54264W        W58225  13.205   8.622   6.159
54265W        W58226  11.765   8.994   6.188
54266W        W58227  13.975  10.882   6.017
54267W        W58228  13.766   7.516   7.011
54268W        W58229  11.430   7.666   6.598
54269W        W58230  11.769   8.689   5.651
54270W        W58231  12.138   8.503   3.773
54271W        W58232  10.941  10.262   6.318
54272W        W58233  12.526   8.971   5.761
54273W        W58234  12.349   7.996   3.866
54274W        W58235  11.484   8.812   4.647
54275W        W58236  11.255  10.664   6.084
54276W        W58237  14.050   8.890   4.192
54277W        W58238  14.145   7.806   6.878
54278W        W58239  13.581  10.015   4.841
54279W        W58240  11.179   8.939   7.018
54280W        W58241  14.145   7.403   4.314
54281W        W58242  13.665   9.878   4.325
54282W        W58243  12.567   8.936   4.410
54283W        W58244  13.754   7.740   3.933
54284W        W58245  13.819   8.347   6.119
54285W        W58246  11.528   8.940   5.326
54286W        W58247  11.822   9.879   4.975
54287W        W58248  13.585   8.499   4.940
54288W        W58249  12.608   7.878   5.636
54289W        W58250  14.570   9.789   6.147
54290W        W58251  14.488   7.776   5.708
54291W        W58252  11.027  10.606   5.084
54292W        W58253  11.536   9.793   4.620
54293W        W58254  11.451   7.410   7.173
54294W        W58255  12.570  10.263   7.275
54295W        W58256  14.325   9.231   5.065
54296W        W58257  13.679   9.408   3.945
54297W        W58258  12.974  10.929   6.157
54298W        W58259  13.831   9.651   7.194
54299W        W58260  12.646   7.361   4.474
54300W        W58261  13.359   8.230   5.333
54301W        W58262  11.045   9.817   5.665
54302W        W58263  12.298   7.779   4.306
54303W        W58264  12.102   9.263   7.155
54304W        W58265  13.096   8.244   4.869
54305W        W58266  13.301   9.654   5.991
54306W        W58267  11.455  10.259   6.426
54307W        W58268  12.046  10.242   7.149
54308W        W58269  11.897   8.039   4.163
54309W        W58270  13.414   8.181   4.488
54310W        W58271  13.372  10.289   6.725
54311W        W58272  12.057   8.881   5.324
54312W        W58273  11.712  10.579   6.189
54313W        W58274  14.457  10.696   3.790
54314W        W58275  11.320   9.368   6.786
54315W        W58276  13.315   9.630   5.474
54316W        W58277  11.751   9.279   4.716
54317W        W58278  12.122  10.286   6.111
54318W        W58279  12.500   7.705   5.152
54319W        W58280  11.111   9.689   4.082
54320W        W58281  12.630   8.640   3.952
54321W        W58282  11.276   9.189   4.971
54322W        W58283  12.566   7.831   6.435
54323W        W58284  14.238   7.540   3.862
54324W        W58285  14.331   9.286   6.961
54325W        W58286  12.985  10.543   7.113
54326W        W58287  14.543   9.637   6.635
54327W        W58288  13.951  10.435   7.246
54328W        W58289  11.690  10.891   5.724
54329W        W58290  14.549   9.513   4.598
54330W        W58291  13.079   8.780   5.111
54331W        W58292  12.846   7.392   5.001
54332W        W58293  11.905  10.376   4.838
54333W        W58294  12.404   8.117   6.063
54334W        W58295  12.104   7.486   5.532
54335W        W58296  11.167  10.308   4.080
54336W        W58297  12.983   9.672   4.798
54337W        W58298  11.858  10.467   6.677
54338W        W58299  11.335   9.290   4.373
54339W        W58300  11.220   7.833   5.372
54340W        W58301  12.768   9.798   5.429
54341W        W58302  11.020   7.652   4.449
54342W        W58303  13.684   8.858   6.376
54343W        W58304  13.561   8.244   3.948
54344W        W58305  14.078   9.916   5.596
54345W        W58306  12.739  10.400   5.427
54346W        W58307  12.151  10.504   4.338
54347W        W58308  13.433   7.407   3.768
54348W        W58309  11.233  10.667   5.509
54349W        W58310  13.430   8.425   7.144
54350W        W58311  11.413   7.955   7.143
54351W        W58312  11.144   8.555   4.476
54352W        W58313  11.835   8.544   4.201
54353W        W58314  13.598   8.871   7.018
54354W        W58315  11.941   9.152   5.727
54355W        W58316  13.415   7.438   4.847
54356W        W58317  12.546  10.869   5.350
54357W        W58318  13.760  10.331   6.287
54358W        W58319  13.344  10.480   5.398
54359W        W58320  13.363   9.460   4.992
54360W        W58321  12.825   7.685   4.063
54361W        W58322  14.506   7.313   4.785
54362W        W58323  12.194   8.948   3.948
54363W        W58324  14.360   8.285   4.938
54364W        W58325  13.052   9.455   3.815
54365W        W58326  13.988   9.655   6.563
54366W        W58327  13.642  10.356   4.030
54367W        W58328  12.257   8.031   6.936
54368W        W58329  12.077   8.615   6.177
54369W        W58330  14.169  10.110   6.454
54370W        W58331  13.269   8.060   6.831
54371W        W58332  11.113   8.531   6.608
54372W        W58333  12.873   9.008   6.334
54373W        W58334  11.230   9.766   4.991
54374W        W58335  11.377   9.063   5.881
54375W        W58336  13.694   9.349   6.231
54376W        W58337  13.466  10.729   7.042
54377W        W58338  13.362   8.468   6.595
54378W        W58339  13.639  10.522   5.000
54379W        W58340  12.641  10.242   6.323
54380W        W58341  12.126  10.597   5.592
54381W        W58342  13.931   9.768   6.011
54382W        W58343  12.981   9.840   7.148
54383W        W58344  11.586   9.793   5.487
54384W        W58345  13.932   9.552   5.132
54385W        W58346  13.573  10.618   5.883
54386W        W58347  11.551  10.347   5.753
54387W        W58348  12.572   8.399   6.963
54388W        W58349  13.023  10.565   4.474
54389W        W58350  12.331   9.820   7.112
54390W        W58351  12.457  10.058   4.489
54391W        W58352  11.678   8.798   3.748
54392W        W58353  11.017  10.884  10.648
54393W        W58354  11.393   9.777  10.171
54394W        W58355  14.098   9.507   7.941
54395W        W58356  14.228  10.592   9.968
54396W        W58357  12.146  10.583   7.494
54397W        W58358  12.229   8.735   8.477
54398W        W58359  11.744   8.583   8.641
54399W        W58360  12.735   9.398   8.075
54400W        W58361  12.410  10.490  10.430
54401W        W58362  11.059   8.051  10.393
54402W        W58363  11.821   7.331  10.195
54403W        W58364  13.515   7.719   9.082
54404W        W58365  13.164   8.590   7.652
54405W        W58366  13.734   8.024  10.743
54406W        W58367  11.100   7.816   9.868
54407W        W58368  11.199  10.435  10.889
54408W        W58369  12.721   9.825   7.621
54409W        W58370  11.153   8.608   9.314
54410W        W58371  12.046   8.499  10.551
54411W        W58372  14.505   8.358   9.050
54412W        W58373  14.269   9.401   9.909
54413W        W58374  12.577   8.734   8.936
54414W        W58375  13.123  10.073   9.305
54415W        W58376  11.623   9.507   9.537
54416W        W58377  10.982   9.035   9.108
54417W        W58378  12.018   9.007  10.300
54418W        W58379  14.289   8.790  10.554
54419W        W58380  11.905  10.234   8.999
54420W        W58381  13.026   9.923  10.133
54421W        W58382  12.246   8.563   9.358
54422W        W58383  12.538   9.347   9.001
54423W        W58384  13.535  10.120  10.849
54424W        W58385  12.614   9.440  10.859
54425W        W58386  12.595   9.156  10.337
54426W        W58387  11.004   8.547  10.859
54427W        W58388  13.836  10.082  10.458
54428W        W58389  11.417   7.664   8.456
54429W        W58390  11.944   9.922   9.455
54430W        W58391  14.407   9.705   8.745
54431W        W58392  13.820   8.105   9.312
54432W        W58393  14.105   8.058   7.407
54433W        W58394  14.570   8.859   9.713
54434W        W58395  12.537  10.566   9.466
54435W        W58396  14.311  10.032   7.904
54436W        W58397  11.440  10.818   7.658
54437W        W58398  11.833  10.864   8.334
54438W        W58399  11.630   7.618   9.760
54439W        W58400  14.253   8.636  10.035
54440W        W58401  13.658   9.058   8.494
54441W        W58402  13.624   8.746   7.521
54442W        W58403  12.832   9.890   9.661
54443W        W58404  12.638   8.220   8.860
54444W        W58405  13.238  10.307   9.854
54445W        W58406  14.109   9.098   8.276
54446W        W58407  13.011   7.756   8.292
54447W        W58408  11.668  10.450   7.975
54448W        W58409  11.039   7.949   8.574
54449W        W58410  13.825   8.556   9.048
54450W        W58411  11.283  10.173   8.963
54451W        W58412  12.624  10.523   7.833
54452W        W58413  14.016   8.549   7.297
54453W        W58414  11.039  10.307   9.461
54454W        W58415  11.830   9.879   9.941
54455W        W58416  12.203   9.239   8.560
54456W        W58417  12.225   7.644   9.653
54457W        W58418  14.454   7.406   8.950
54458W        W58419  11.673   9.278   7.418
54459W        W58420  11.328   8.311   7.597
54460W        W58421  11.390  10.267   8.391
54461W        W58422  12.521   9.750   8.639
54462W        W58423  13.853  10.609  10.353
54463W        W58424  12.779   8.251   8.037
54464W        W58425  14.162  10.649   8.809
54465W        W58426  13.839   8.502  10.407
54466W        W58427  14.552  10.158   8.541
54467W        W58428  13.179   9.450  10.025
54468W        W58429  10.945   9.001   8.231
54469W        W58430  12.056   9.416   9.804
54470W        W58431  13.260   8.680   8.182
54471W        W58432  13.137   9.170   8.286
54472W        W58433  11.480   8.590   9.760
54473W        W58434  11.465   8.466  10.682
54474W        W58435  11.355   7.383   8.841
54475W        W58436  13.123   7.730   9.402
54476W        W58437  12.771   7.915  10.565
54477W        W58438  13.126   8.064   7.743
54478W        W58439  14.309  10.457  10.497
54479W        W58440  13.276   7.538  10.536
54480W        W58441  14.295   9.839  10.658
54481W        W58442  13.725   8.006  10.254
54482W        W58443  13.525   7.944   8.524
54483W        W58444  13.918   9.078  10.928
54484W        W58445  11.658  10.654   8.914
54485W        W58446  12.316   8.371   7.900
54486W        W58447  11.885   7.655  10.564
54487W        W58448  13.937   8.139   8.245
54488W        W58449  14.304   8.621   8.190
54489W        W58450  12.047  10.838  10.661
54490W        W58451  11.973   7.374   7.896
54491W        W58452  14.294   7.908   8.931
54492W        W58453  14.444  10.157   7.376
54493W        W58454  11.351   9.360   9.078
54494W        W58455  13.268   7.947   7.308
54495W        W58456  14.402  10.279   9.028
54496W        W58457  14.441   7.473   9.778
54497W        W58458  12.886   8.685  10.332
54498W        W58459  12.979  10.024   8.035
54499W        W58460  13.379   9.318  10.775
54500W        W58461  13.053   7.295   9.084
54501W        W58462  11.665   8.198   9.147
54502W        W58463  11.219   9.398   9.921
54503W        W58464  13.078  10.591   8.627
54504W        W58465  14.272   8.188   9.499
54505W        W58466  12.909  10.535  10.266
54506W        W58467  14.252   9.594   7.471
54507W        W58468  12.687   9.077   8.532
54508W        W58469  14.539   7.588  10.273
54509W        W58470  12.688   9.423   9.867
54510W        W58471  12.905   8.309   9.312
54511W        W58472  13.757   8.607   8.150
54512W        W58473  14.044   8.340   7.792
54513W        W58474  13.853  10.380   8.181
54514W        W58475  13.687   9.983   8.977
54515W        W58476  13.583   9.062   7.955
54516W        W58477  13.016   9.272   8.941
54517W        W58478  13.897   9.060   9.008
54518W        W58479  11.272   8.075   9.432
54519W        W58480  14.050   9.127  10.259
54520W        W58481  14.401  10.745   9.405
54521W        W58482  12.331  10.189   8.807
54522W        W58483  13.338  10.722  10.131
54523W        W58484  13.332   8.052   9.895
54524W        W58485  12.539  10.760   9.956
54525W        W58486  14.236   7.714   8.422
54526W        W58487  14.027   9.033   9.723
54527W        W58488  11.010   8.354   9.761
54528W        W58489  13.870   8.149   8.779
54529W        W58490  14.281   8.300  10.556
54530W        W58491  13.166   9.999   8.774
54531W        W58492  12.422  10.590   8.387
54532W        W58493  11.537   7.770   7.645
54533W        W58494  12.641   7.424   9.455
54534W        W58495  11.669  10.544   7.303
54535W        W58496  12.043   9.010   8.054
54536W        W58497  12.697   9.639  10.367
54537W        W58498  12.527   7.997   8.357
54538W        W58499  13.883   7.594   8.785
54539W        W58500  13.603  10.876   9.113
54540W        W58501  13.015  10.524   9.453
54541W        W58502  12.411   9.561   9.414
54542W        W58503  14.181  10.284   9.540
54543W        W58504  11.875   7.787   8.309
54544W        W58505  12.397  10.084   9.269
54545W        W58506  11.880   8.015   7.334
54546W        W58507  12.681   8.624   9.728
54547W        W58508  13.529   7.490   9.598
54548W        W58509  10.949   9.333   9.483
54549W        W58510  12.653   9.151   7.641
54550W        W58511  11.921   7.466   7.411
54551W        W58512  12.659   8.547   8.462
54552W        W58513  13.629   7.523  10.161
54553W        W58514  12.217   9.535  10.270
54554W        W58515  13.021   9.317  10.487
54555W        W58516  13.638   9.347  10.380
54556W        W58517  12.922   7.487  10.885
54557W        W58518  12.144   8.103   9.278
54558W        W58519  11.570   8.059   8.676
54559W        W58520  11.356  10.771   8.352
54560W        W58521  12.688  10.101  10.477
54561W        W58522  11.723   9.586   7.836
54562W        W58523  13.403   8.971   9.057
54563W        W58524  13.683   8.770   9.456
54564W        W58525  12.888   9.444   9.390
54565W        W58526  13.358   9.818   7.522
54566W        W58527  13.030   7.839   8.850
54567W        W58528  14.509   8.117   8.118
54568W        W58529  11.003  10.706  10.149
54569W        W58530  11.420   9.932   9.681
54570W        W58531  10.987  10.778   7.913
54571W        W58532  12.886   8.048   9.719
54572W        W58533  12.249  10.071   7.568
54573W        W58534  14.154  10.453   7.754
54574W        W58535  13.129   9.106   7.768
54575W        W58536  11.972   8.297   8.285
54576W        W58537  12.804   8.207   7.337
54577W        W58538  13.388   9.772  10.515
54578W        W58539  13.741   7.678   8.132
54579W        W58540  11.071   7.526   7.580
54580W        W58541  12.357   9.845   9.870
54581W        W58542  12.156   9.761   8.962
54582W        W58543  11.898   9.713   7.360
54583W        W58544  11.139   9.954   8.128
54584W        W58545  11.643   9.024  10.570
54585W        W58546  12.347   7.584  10.756
54586W        W58547  13.056   7.726  10.112
54587W        W58548  12.251   7.494   8.393
54588W        W58549  13.310   7.571   7.898
54589W        W58550  11.255   7.503   9.475
54590W        W58551  11.303   8.466   8.845
54591W        W58552  13.992   7.574   9.251
54592W        W58553  11.414   8.072   8.065
54593W        W58554  13.985   7.760   9.681
54594W        W58555  14.381   8.963   7.366
54595W        W58556  11.673   7.721   9.185
54596W        W58557  12.787   8.293  10.125
54597W        W58558  10.935   7.983   7.603
54598W        W58559  11.721   9.372  10.164
54599W        W58560  13.079   8.770   9.343
54600W        W58561  12.946  10.849   7.639
54601W        W58562  11.092   9.356   7.336
54602W        W58563  11.827   9.767  10.462
54603W        W58564  11.348   8.934  10.093
54604W        W58565  12.339   9.039   9.887
54605W        W58566  14.107   7.398  10.149
54606W        W58567  14.505   9.008  10.140
54607W        W58568  14.493   9.208   7.826
54608W        W58569  13.356   9.540   7.925
54609W        W58570  13.830  10.840   7.620
54610W        W58571  13.007   8.830  10.762
54611W        W58572  11.337   9.797  10.802
54612W        W58573  14.543   7.719  10.754
54613W        W58574  14.261   8.647   9.375
54614W        W58575  12.569  10.777  10.852
54615W        W58576  12.424   7.406   7.579
54616W        W58577  13.963  10.005   7.522
54617W        W58578  11.732   8.098  10.408
54618W        W58579  12.166  10.092  10.270
54619W        W58580  14.292   8.083  10.068
54620W        W58581  13.503  10.742   8.036
54621W        W58582  13.742   9.361   9.403
54622W        W58583  11.992   7.777  10.070
54623W        W58584  12.461   8.846  10.827
54624W        W58585  11.964  10.025   8.021
54625W        W58586  13.719   9.523   8.285
54626W        W58587  11.487   8.149  10.009
54627W        W58588  12.816  10.211   8.473
54628W        W58589  14.566   8.771   8.654
54629W        W58590  12.788   7.404  10.373
54630W        W58591  13.568  10.109   9.452
54631W        W58592  13.871  10.453   9.160
54632W        W58593  13.090  10.255   7.588
54633W        W58594  11.100  10.147  10.430
54634W        W58595  11.843   8.139   9.668
54635W        W58596  11.813   7.487   8.778
54636W        W58597  13.434   8.329   9.470
54637W        W58598  12.232   9.500   7.670
54638W        W58599  14.230   9.442   9.169
54639W        W58600  11.557  10.200  10.592
54640W        W58601  13.944  10.882   8.389
54641W        W58602  12.043   7.902   8.834
54642W        W58603  11.812   9.395   8.924
54643W        W58604  12.125  10.806   9.674
54644W        W58605  14.192  10.902  10.706
54645W        W58606  13.351   9.090   9.639
54646W        W58607  11.200   8.888   7.554
54647W        W58608  14.334  10.546   8.251
54648W        W58609  14.171   7.870   7.870
54649W        W58610  12.310   7.389  10.273
54650W        W58611  14.016  10.191   8.731
54651W        W58612  14.045   8.747   8.636
54652W        W58613  12.162   8.420   8.852
54653W        W58614  12.407   8.682  10.176
54654W        W58615  13.518   9.835  10.039
54655W        W58616  12.168   8.289  10.151
54656W        W58617  12.147  10.755   8.767
54657W        W58618  11.464  10.714  10.401
54658W        W58619  11.576  10.075   7.531
54659W        W58620  14.093   9.833   8.341
54660W        W58621  11.697   8.625  10.227
54661W        W58622  14.470   8.555   7.708
54662W        W58623  12.215   9.612   8.179
54663W        W58624  13.314   8.994  10.260
54664W        W58625  13.205   8.622   9.804
54665W        W58626  11.765   8.994   9.833
54666W        W58627  13.975  10.882   9.662
54667W        W58628  13.766   7.516  10.656
54668W        W58629  11.430   7.666  10.243
54669W        W58630  11.769   8.689   9.296
54670W        W58631  12.138   8.503   7.418
54671W        W58632  10.941  10.262   9.963
54672W        W58633  12.526   8.971   9.406
54673W        W58634  12.349   7.996   7.511
54674W        W58635  11.484   8.812   8.292
54675W        W58636  11.255  10.664   9.729
54676W        W58637  14.050   8.890   7.837
54677W        W58638  14.145   7.806  10.523
54678W        W58639  13.581  10.015   8.486
54679W        W58640  11.179   8.939  10.663
54680W        W58641  14.145   7.403   7.959
54681W        W58642  13.665   9.878   7.970
54682W        W58643  12.567   8.936   8.055
54683W        W58644  13.754   7.740   7.578
54684W        W58645  13.819   8.347   9.764
54685W        W58646  11.528   8.940   8.971
54686W        W58647  11.822   9.879   8.620
54687W        W58648  13.585   8.499   8.585
54688W        W58649  12.608   7.878   9.281
54689W        W58650  14.570   9.789   9.792
54690W        W58651  14.488   7.776   9.353
54691W        W58652  11.027  10.606   8.729
54692W        W58653  11.536   9.793   8.265
54693W        W58654  11.451   7.410  10.818
54694W        W58655  12.570  10.263  10.920
54695W        W58656  14.325   9.231   8.710
54696W        W58657  13.679   9.408   7.590
54697W        W58658  12.974  10.929   9.802
54698W        W58659  13.831   9.651  10.839
54699W        W58660  12.646   7.361   8.119
54700W        W58661  13.359   8.230   8.978
54701W        W58662  11.045   9.817   9.310
54702W        W58663  12.298   7.779   7.951
54703W        W58664  12.102   9.263  10.800
54704W        W58665  13.096   8.244   8.514
54705W        W58666  13.301   9.654   9.636
54706W        W58667  11.455  10.259  10.071
54707W        W58668  12.046  10.242  10.794
54708W        W58669  11.897   8.039   7.808
54709W        W58670  13.414   8.181   8.133
54710W        W58671  13.372  10.289  10.370
54711W        W58672  12.057   8.881   8.969
54712W        W58673  11.712  10.579   9.834
54713W        W58674  14.457  10.696   7.435
54714W        W58675  11.320   9.368  10.431
54715W        W58676  13.315   9.630   9.119
54716W        W58677  11.751   9.279   8.361
54717W        W58678  12.122  10.286   9.756
54718W        W58679  12.500   7.705   8.797
54719W        W58680  11.111   9.689   7.727
54720W        W58681  12.630   8.640   7.597
54721W        W58682  11.276   9.189   8.616
54722W        W58683  12.566   7.831  10.080
54723W        W58684  14.238   7.540   7.507
54724W        W58685  14.331   9.286  10.606
54725W        W58686  12.985  10.543  10.758
54726W        W58687  14.543   9.637  10.280
54727W        W58688  13.951  10.435  10.891
54728W        W58689  11.690  10.891   9.369
54729W        W58690  14.549   9.513   8.243
54730W        W58691  13.079   8.780   8.756
54731W        W58692  12.846   7.392   8.646
54732W        W58693  11.905  10.376   8.483
54733W        W58694  12.404   8.117   9.708
54734W        W58695  12.104   7.486   9.177
54735W        W58696  11.167  10.308   7.725
54736W        W58697  12.983   9.672   8.443
54737W        W58698  11.858  10.467  10.322
54738W        W58699  11.335   9.290   8.018
54739W        W58700  11.220   7.833   9.017
54740W        W58701  12.768   9.798   9.074
54741W        W58702  11.020   7.652   8.094
54742W        W58703  13.684   8.858  10.021
54743W        W58704  13.561   8.244   7.593
54744W        W58705  14.078   9.916   9.241
54745W        W58706  12.739  10.400   9.072
54746W        W58707  12.151  10.504   7.983
54747W        W58708  13.433   7.407   7.413
54748W        W58709  11.233  10.667   9.154
54749W        W58710  13.430   8.425  10.789
54750W        W58711  11.413   7.955  10.788
54751W        W58712  11.144   8.555   8.121
54752W        W58713  11.835   8.544   7.846
54753W        W58714  13.598   8.871  10.663
54754W        W58715  11.941   9.152   9.372
54755W        W58716  13.415   7.438   8.492
54756W        W58717  12.546  10.869   8.995
54757W        W58718  13.760  10.331   9.932
54758W        W58719  13.344  10.480   9.043
54759W        W58720  13.363   9.460   8.637
54760W        W58721  12.825   7.685   7.708
54761W        W58722  14.506   7.313   8.430
54762W        W58723  12.194   8.948   7.593
54763W        W58724  14.360   8.285   8.583
54764W        W58725  13.052   9.455   7.460
54765W        W58726  13.988   9.655  10.208
54766W        W58727  13.642  10.356   7.675
54767W        W58728  12.257   8.031  10.581
54768W        W58729  12.077   8.615   9.822
54769W        W58730  14.169  10.110  10.099
54770W        W58731  13.269   8.060  10.476
54771W        W58732  11.113   8.531  10.253
54772W        W58733  12.873   9.008   9.979
54773W        W58734  11.230   9.766   8.636
54774W        W58735  11.377   9.063   9.526
54775W        W58736  13.694   9.349   9.876
54776W        W58737  13.466  10.729  10.687
54777W        W58738  13.362   8.468  10.240
54778W        W58739  13.639  10.522   8.645
54779W        W58740  12.641  10.242   9.968
54780W        W58741  12.126  10.597   9.237
54781W        W58742  13.931   9.768   9.656
54782W        W58743  12.981   9.840  10.793
54783W        W58744  11.586   9.793   9.132
54784W        W58745  13.932   9.552   8.777
54785W        W58746  13.573  10.618   9.528
54786W        W58747  11.551  10.347   9.398
54787W        W58748  12.572   8.399  10.608
54788W        W58749  13.023  10.565   8.119
54789W        W58750  12.331   9.820  10.757
54790W        W58751  12.457  10.058   8.134
54791W        W58752  11.678   8.798   7.393
54792W        W58753  11.017  10.884  14.292
54793W        W58754  11.393   9.777  13.815
54794W        W58755  14.098   9.507  11.585
54795W        W58756  14.228  10.592  13.612
54796W        W58757  12.146  10.583  11.138
54797W        W58758  12.229   8.735  12.121
54798W        W58759  11.744   8.583  12.285
54799W        W58760  12.735   9.398  11.719
54800W        W58761  12.410  10.490  14.074
54801W        W58762  11.059   8.051  14.037
54802W        W58763  11.821   7.331  13.839
54803W        W58764  13.515   7.719  12.726
54804W        W58765  13.164   8.590  11.296
54805W        W58766  13.734   8.024  14.387
54806W        W58767  11.100   7.816  13.512
54807W        W58768  11.199  10.435  14.533
54808W        W58769  12.721   9.825  11.265
54809W        W58770  12.046   8.499  14.195
54810W        W58771  14.505   8.358  12.694
54811W        W58772  14.269   9.401  13.553
54812W        W58773  12.577   8.734  12.580
54813W        W58774  13.123  10.073  12.949
54814W        W58775  10.982   9.035  12.752
54815W        W58776  12.018   9.007  13.944
54816W        W58777  14.289   8.790  14.198
54817W        W58778  11.905  10.234  12.643
54818W        W58779  13.026   9.923  13.777
54819W        W58780  12.246   8.563  13.002
54820W        W58781  12.538   9.347  12.645
54821W        W58782  13.535  10.120  14.493
54822W        W58783  12.614   9.440  14.503
54823W        W58784  12.595   9.156  13.981
54824W        W58785  11.004   8.547  14.503
54825W        W58786  13.836  10.082  14.102
54826W        W58787  11.417   7.664  12.100
54827W        W58788  11.944   9.922  13.099
54828W        W58789  14.407   9.705  12.389
54829W        W58790  13.820   8.105  12.956
54830W        W58791  14.105   8.058  11.051
54831W        W58792  14.570   8.859  13.357
54832W        W58793  12.537  10.566  13.110
54833W        W58794  14.311  10.032  11.548
54834W        W58795  11.440  10.818  11.302
54835W        W58796  11.833  10.864  11.978
54836W        W58797  11.630   7.618  13.404
54837W        W58798  14.253   8.636  13.679
54838W        W58799  13.658   9.058  12.138
54839W        W58800  13.624   8.746  11.165
54840W        W58801  12.832   9.890  13.305
54841W        W58802  12.638   8.220  12.504
54842W        W58803  13.238  10.307  13.498
54843W        W58804  14.109   9.098  11.920
54844W        W58805  13.011   7.756  11.936
54845W        W58806  11.668  10.450  11.619
54846W        W58807  11.039   7.949  12.218
54847W        W58808  13.825   8.556  12.692
54848W        W58809  11.283  10.173  12.607
54849W        W58810  12.624  10.523  11.477
54850W        W58811  14.016   8.549  10.941
54851W        W58812  11.039  10.307  13.105
54852W        W58813  11.830   9.879  13.585
54853W        W58814  12.203   9.239  12.204
54854W        W58815  12.225   7.644  13.297
54855W        W58816  14.454   7.406  12.594
54856W        W58817  11.673   9.278  11.062
54857W        W58818  11.328   8.311  11.241
54858W        W58819  11.390  10.267  12.035
54859W        W58820  12.521   9.750  12.283
54860W        W58821  13.853  10.609  13.997
54861W        W58822  12.779   8.251  11.681
54862W        W58823  14.162  10.649  12.453
54863W        W58824  13.839   8.502  14.051
54864W        W58825  14.552  10.158  12.185
54865W        W58826  13.179   9.450  13.669
54866W        W58827  10.945   9.001  11.875
54867W        W58828  12.056   9.416  13.448
54868W        W58829  13.260   8.680  11.826
54869W        W58830  13.137   9.170  11.930
54870W        W58831  11.465   8.466  14.326
54871W        W58832  11.355   7.383  12.485
54872W        W58833  13.123   7.730  13.046
54873W        W58834  12.771   7.915  14.209
54874W        W58835  13.126   8.064  11.387
54875W        W58836  14.309  10.457  14.141
54876W        W58837  13.276   7.538  14.180
54877W        W58838  14.295   9.839  14.302
54878W        W58839  13.725   8.006  13.898
54879W        W58840  13.525   7.944  12.168
54880W        W58841  13.918   9.078  14.572
54881W        W58842  11.658  10.654  12.558
54882W        W58843  12.316   8.371  11.544
54883W        W58844  11.885   7.655  14.208
54884W        W58845  13.937   8.139  11.889
54885W        W58846  14.304   8.621  11.834
54886W        W58847  12.047  10.838  14.305
54887W        W58848  11.973   7.374  11.540
54888W        W58849  14.294   7.908  12.575
54889W        W58850  14.444  10.157  11.020
54890W        W58851  11.351   9.360  12.722
54891W        W58852  13.268   7.947  10.952
54892W        W58853  14.402  10.279  12.672
54893W        W58854  14.441   7.473  13.422
54894W        W58855  12.886   8.685  13.976
54895W        W58856  12.979  10.024  11.679
54896W        W58857  13.379   9.318  14.419
54897W        W58858  13.053   7.295  12.728
54898W        W58859  11.665   8.198  12.791
54899W        W58860  11.219   9.398  13.565
54900W        W58861  13.078  10.591  12.271
54901W        W58862  14.272   8.188  13.143
54902W        W58863  12.909  10.535  13.910
54903W        W58864  14.252   9.594  11.115
54904W        W58865  12.687   9.077  12.176
54905W        W58866  14.539   7.588  13.917
54906W        W58867  12.688   9.423  13.511
54907W        W58868  12.905   8.309  12.956
54908W        W58869  13.757   8.607  11.794
54909W        W58870  14.044   8.340  11.436
54910W        W58871  13.853  10.380  11.825
54911W        W58872  13.687   9.983  12.621
54912W        W58873  13.583   9.062  11.599
54913W        W58874  13.016   9.272  12.585
54914W        W58875  13.897   9.060  12.652
54915W        W58876  11.272   8.075  13.076
54916W        W58877  14.050   9.127  13.903
54917W        W58878  14.401  10.745  13.049
54918W        W58879  12.331  10.189  12.451
54919W        W58880  13.338  10.722  13.775
54920W        W58881  13.332   8.052  13.539
54921W        W58882  12.539  10.760  13.600
54922W        W58883  14.236   7.714  12.066
54923W        W58884  14.027   9.033  13.367
54924W        W58885  11.010   8.354  13.405
54925W        W58886  13.870   8.149  12.423
54926W        W58887  14.281   8.300  14.200
54927W        W58888  13.166   9.999  12.418
54928W        W58889  12.422  10.590  12.031
54929W        W58890  11.537   7.770  11.289
54930W        W58891  12.641   7.424  13.099
54931W        W58892  11.669  10.544  10.947
54932W        W58893  12.043   9.010  11.698
54933W        W58894  12.697   9.639  14.011
54934W        W58895  12.527   7.997  12.001
54935W        W58896  13.883   7.594  12.429
54936W        W58897  13.603  10.876  12.757
54937W        W58898  13.015  10.524  13.097
54938W        W58899  12.411   9.561  13.058
54939W        W58900  14.181  10.284  13.184
54940W        W58901  11.875   7.787  11.953
54941W        W58902  12.397  10.084  12.913
54942W        W58903  11.880   8.015  10.978
54943W        W58904  12.681   8.624  13.372
54944W        W58905  13.529   7.490  13.242
54945W        W58906  10.949   9.333  13.127
54946W        W58907  12.653   9.151  11.285
54947W        W58908  11.921   7.466  11.055
54948W        W58909  12.659   8.547  12.106
54949W        W58910  13.629   7.523  13.805
54950W        W58911  12.217   9.535  13.914
54951W        W58912  13.021   9.317  14.131
54952W        W58913  13.638   9.347  14.024
54953W        W58914  12.922   7.487  14.529
54954W        W58915  12.144   8.103  12.922
54955W        W58916  11.570   8.059  12.320
54956W        W58917  11.356  10.771  11.996
54957W        W58918  12.688  10.101  14.121
54958W        W58919  11.723   9.586  11.480
54959W        W58920  13.403   8.971  12.701
54960W        W58921  13.683   8.770  13.100
54961W        W58922  12.888   9.444  13.034
54962W        W58923  13.358   9.818  11.166
54963W        W58924  13.030   7.839  12.494
54964W        W58925  14.509   8.117  11.762
54965W        W58926  11.003  10.706  13.793
54966W        W58927  11.420   9.932  13.325
54967W        W58928  10.987  10.778  11.557
54968W        W58929  12.886   8.048  13.363
54969W        W58930  12.249  10.071  11.212
54970W        W58931  14.154  10.453  11.398
54971W        W58932  13.129   9.106  11.412
54972W        W58933  11.972   8.297  11.929
54973W        W58934  12.804   8.207  10.981
54974W        W58935  13.388   9.772  14.159
54975W        W58936  13.741   7.678  11.776
54976W        W58937  11.071   7.526  11.224
54977W        W58938  12.357   9.845  13.514
54978W        W58939  12.156   9.761  12.606
54979W        W58940  11.898   9.713  11.004
54980W        W58941  11.139   9.954  11.772
54981W        W58942  11.643   9.024  14.214
54982W        W58943  12.347   7.584  14.400
54983W        W58944  13.056   7.726  13.756
54984W        W58945  12.251   7.494  12.037
54985W        W58946  13.310   7.571  11.542
54986W        W58947  11.255   7.503  13.119
54987W        W58948  11.303   8.466  12.489
54988W        W58949  13.992   7.574  12.895
54989W        W58950  11.414   8.072  11.709
54990W        W58951  13.985   7.760  13.325
54991W        W58952  14.381   8.963  11.010
54992W        W58953  11.673   7.721  12.829
54993W        W58954  12.787   8.293  13.769
54994W        W58955  10.935   7.983  11.247
54995W        W58956  11.721   9.372  13.808
54996W        W58957  13.079   8.770  12.987
54997W        W58958  12.946  10.849  11.283
54998W        W58959  11.092   9.356  10.980
54999W        W58960  11.827   9.767  14.106
55000W        W58961  11.348   8.934  13.737
55001W        W58962  12.339   9.039  13.531
55002W        W58963  14.107   7.398  13.793
55003W        W58964  14.505   9.008  13.784
55004W        W58965  14.493   9.208  11.470
55005W        W58966  13.356   9.540  11.569
55006W        W58967  13.830  10.840  11.264
55007W        W58968  13.007   8.830  14.406
55008W        W58969  11.337   9.797  14.446
55009W        W58970  14.543   7.719  14.398
55010W        W58971  14.261   8.647  13.019
55011W        W58972  12.569  10.777  14.496
55012W        W58973  12.424   7.406  11.223
55013W        W58974  13.963  10.005  11.166
55014W        W58975  11.732   8.098  14.052
55015W        W58976  12.166  10.092  13.914
55016W        W58977  14.292   8.083  13.712
55017W        W58978  13.503  10.742  11.680
55018W        W58979  13.742   9.361  13.047
55019W        W58980  11.992   7.777  13.714
55020W        W58981  12.461   8.846  14.471
55021W        W58982  11.964  10.025  11.665
55022W        W58983  13.719   9.523  11.929
55023W        W58984  11.487   8.149  13.653
55024W        W58985  12.816  10.211  12.117
55025W        W58986  14.566   8.771  12.298
55026W        W58987  12.788   7.404  14.017
55027W        W58988  13.568  10.109  13.096
55028W        W58989  13.871  10.453  12.804
55029W        W58990  13.090  10.255  11.232
55030W        W58991  11.100  10.147  14.074
55031W        W58992  11.843   8.139  13.312
55032W        W58993  11.813   7.487  12.422
55033W        W58994  13.434   8.329  13.114
55034W        W58995  12.232   9.500  11.314
55035W        W58996  14.230   9.442  12.813
55036W        W58997  11.557  10.200  14.236
55037W        W58998  13.944  10.882  12.033
55038W        W58999  12.043   7.902  12.478
55039W        W59000  11.812   9.395  12.568
55040W        W59001  12.125  10.806  13.318
55041W        W59002  14.192  10.902  14.350
55042W        W59003  13.351   9.090  13.283
55043W        W59004  11.200   8.888  11.198
55044W        W59005  14.334  10.546  11.895
55045W        W59006  14.171   7.870  11.514
55046W        W59007  12.310   7.389  13.917
55047W        W59008  14.016  10.191  12.375
55048W        W59009  14.045   8.747  12.280
55049W        W59010  12.162   8.420  12.496
55050W        W59011  12.407   8.682  13.820
55051W        W59012  13.518   9.835  13.683
55052W        W59013  12.168   8.289  13.795
55053W        W59014  12.147  10.755  12.411
55054W        W59015  11.464  10.714  14.045
55055W        W59016  11.576  10.075  11.175
55056W        W59017  14.093   9.833  11.985
55057W        W59018  11.697   8.625  13.871
55058W        W59019  14.470   8.555  11.352
55059W        W59020  12.215   9.612  11.823
55060W        W59021  13.314   8.994  13.904
55061W        W59022  13.205   8.622  13.448
55062W        W59023  13.975  10.882  13.306
55063W        W59024  13.766   7.516  14.300
55064W        W59025  11.430   7.666  13.887
55065W        W59026  12.138   8.503  11.062
55066W        W59027  10.941  10.262  13.607
55067W        W59028  12.526   8.971  13.050
55068W        W59029  12.349   7.996  11.155
55069W        W59030  11.484   8.812  11.936
55070W        W59031  11.255  10.664  13.373
55071W        W59032  14.050   8.890  11.481
55072W        W59033  14.145   7.806  14.167
55073W        W59034  13.581  10.015  12.130
55074W        W59035  11.179   8.939  14.307
55075W        W59036  14.145   7.403  11.603
55076W        W59037  13.665   9.878  11.614
55077W        W59038  12.567   8.936  11.699
55078W        W59039  13.754   7.740  11.222
55079W        W59040  13.819   8.347  13.408
55080W        W59041  11.528   8.940  12.615
55081W        W59042  11.822   9.879  12.264
55082W        W59043  13.585   8.499  12.229
55083W        W59044  12.608   7.878  12.925
55084W        W59045  14.570   9.789  13.436
55085W        W59046  14.488   7.776  12.997
55086W        W59047  11.027  10.606  12.373
55087W        W59048  11.536   9.793  11.909
55088W        W59049  11.451   7.410  14.462
55089W        W59050  12.570  10.263  14.564
55090W        W59051  14.325   9.231  12.354
55091W        W59052  13.679   9.408  11.234
55092W        W59053  12.974  10.929  13.446
55093W        W59054  13.831   9.651  14.483
55094W        W59055  12.646   7.361  11.763
55095W        W59056  13.359   8.230  12.622
55096W        W59057  11.045   9.817  12.954
55097W        W59058  12.298   7.779  11.595
55098W        W59059  12.102   9.263  14.444
55099W        W59060  13.096   8.244  12.158
55100W        W59061  13.301   9.654  13.280
55101W        W59062  11.455  10.259  13.715
55102W        W59063  12.046  10.242  14.438
55103W        W59064  11.897   8.039  11.452
55104W        W59065  13.414   8.181  11.777
55105W        W59066  13.372  10.289  14.014
55106W        W59067  12.057   8.881  12.613
55107W        W59068  11.712  10.579  13.478
55108W        W59069  14.457  10.696  11.079
55109W        W59070  11.320   9.368  14.075
55110W        W59071  13.315   9.630  12.763
55111W        W59072  11.751   9.279  12.005
55112W        W59073  12.122  10.286  13.400
55113W        W59074  12.500   7.705  12.441
55114W        W59075  11.111   9.689  11.371
55115W        W59076  12.630   8.640  11.241
55116W        W59077  11.276   9.189  12.260
55117W        W59078  12.566   7.831  13.724
55118W        W59079  14.238   7.540  11.151
55119W        W59080  14.331   9.286  14.250
55120W        W59081  12.985  10.543  14.402
55121W        W59082  14.543   9.637  13.924
55122W        W59083  13.951  10.435  14.535
55123W        W59084  11.690  10.891  13.013
55124W        W59085  14.549   9.513  11.887
55125W        W59086  13.079   8.780  12.400
55126W        W59087  12.846   7.392  12.290
55127W        W59088  11.905  10.376  12.127
55128W        W59089  12.404   8.117  13.352
55129W        W59090  12.104   7.486  12.821
55130W        W59091  11.167  10.308  11.369
55131W        W59092  12.983   9.672  12.087
55132W        W59093  11.858  10.467  13.966
55133W        W59094  11.335   9.290  11.662
55134W        W59095  11.220   7.833  12.661
55135W        W59096  12.768   9.798  12.718
55136W        W59097  11.020   7.652  11.738
55137W        W59098  13.684   8.858  13.665
55138W        W59099  13.561   8.244  11.237
55139W        W59100  14.078   9.916  12.885
55140W        W59101  12.739  10.400  12.716
55141W        W59102  12.151  10.504  11.627
55142W        W59103  13.433   7.407  11.057
55143W        W59104  11.233  10.667  12.798
55144W        W59105  13.430   8.425  14.433
55145W        W59106  11.413   7.955  14.432
55146W        W59107  11.144   8.555  11.765
55147W        W59108  11.835   8.544  11.490
55148W        W59109  13.598   8.871  14.307
55149W        W59110  11.941   9.152  13.016
55150W        W59111  13.415   7.438  12.136
55151W        W59112  12.546  10.869  12.639
55152W        W59113  13.760  10.331  13.576
55153W        W59114  13.344  10.480  12.687
55154W        W59115  13.363   9.460  12.281
55155W        W59116  12.825   7.685  11.352
55156W        W59117  14.506   7.313  12.074
55157W        W59118  12.194   8.948  11.237
55158W        W59119  14.360   8.285  12.227
55159W        W59120  13.052   9.455  11.104
55160W        W59121  13.988   9.655  13.852
55161W        W59122  13.642  10.356  11.319
55162W        W59123  12.257   8.031  14.225
55163W        W59124  12.077   8.615  13.466
55164W        W59125  14.169  10.110  13.743
55165W        W59126  13.269   8.060  14.120
55166W        W59127  11.113   8.531  13.897
55167W        W59128  12.873   9.008  13.623
55168W        W59129  11.230   9.766  12.280
55169W        W59130  13.694   9.349  13.520
55170W        W59131  13.466  10.729  14.331
55171W        W59132  13.362   8.468  13.884
55172W        W59133  13.639  10.522  12.289
55173W        W59134  12.641  10.242  13.612
55174W        W59135  12.126  10.597  12.881
55175W        W59136  13.931   9.768  13.300
55176W        W59137  12.981   9.840  14.437
55177W        W59138  11.586   9.793  12.776
55178W        W59139  13.932   9.552  12.421
55179W        W59140  13.573  10.618  13.172
55180W        W59141  11.551  10.347  13.042
55181W        W59142  12.572   8.399  14.252
55182W        W59143  13.023  10.565  11.763
55183W        W59144  12.331   9.820  14.401
55184W        W59145  12.457  10.058  11.778
55185W        W59146  11.678   8.798  11.037
55186W        W59147  11.017  10.884  17.936
55187W        W59148  11.393   9.777  17.459
55188W        W59149  14.098   9.507  15.229
55189W        W59150  14.228  10.592  17.256
55190W        W59151  12.146  10.583  14.782
55191W        W59152  12.229   8.735  15.765
55192W        W59153  11.744   8.583  15.929
55193W        W59154  12.735   9.398  15.363
55194W        W59155  12.410  10.490  17.718
55195W        W59156  11.059   8.051  17.681
55196W        W59157  11.821   7.331  17.483
55197W        W59158  13.515   7.719  16.370
55198W        W59159  13.164   8.590  14.940
55199W        W59160  13.734   8.024  18.031
55200W        W59161  11.100   7.816  17.156
55201W        W59162  11.199  10.435  18.177
55202W        W59163  12.721   9.825  14.909
55203W        W59164  11.153   8.608  16.602
55204W        W59165  12.046   8.499  17.839
55205W        W59166  14.505   8.358  16.338
55206W        W59167  14.269   9.401  17.197
55207W        W59168  12.577   8.734  16.224
55208W        W59169  13.123  10.073  16.593
55209W        W59170  11.623   9.507  16.825
55210W        W59171  10.982   9.035  16.396
55211W        W59172  12.018   9.007  17.588
55212W        W59173  14.289   8.790  17.842
55213W        W59174  11.905  10.234  16.287
55214W        W59175  13.026   9.923  17.421
55215W        W59176  12.246   8.563  16.646
55216W        W59177  12.538   9.347  16.289
55217W        W59178  13.535  10.120  18.137
55218W        W59179  12.614   9.440  18.147
55219W        W59180  12.595   9.156  17.625
55220W        W59181  11.004   8.547  18.147
55221W        W59182  13.836  10.082  17.746
55222W        W59183  11.417   7.664  15.744
55223W        W59184  11.944   9.922  16.743
55224W        W59185  14.407   9.705  16.033
55225W        W59186  13.820   8.105  16.600
55226W        W59187  14.105   8.058  14.695
55227W        W59188  14.570   8.859  17.001
55228W        W59189  12.537  10.566  16.754
55229W        W59190  14.311  10.032  15.192
55230W        W59191  11.440  10.818  14.946
55231W        W59192  11.833  10.864  15.622
55232W        W59193  11.630   7.618  17.048
55233W        W59194  14.253   8.636  17.323
55234W        W59195  13.658   9.058  15.782
55235W        W59196  13.624   8.746  14.809
55236W        W59197  12.832   9.890  16.949
55237W        W59198  12.638   8.220  16.148
55238W        W59199  13.238  10.307  17.142
55239W        W59200  14.109   9.098  15.564
55240W        W59201  13.011   7.756  15.580
55241W        W59202  11.668  10.450  15.263
55242W        W59203  11.039   7.949  15.862
55243W        W59204  13.825   8.556  16.336
55244W        W59205  11.283  10.173  16.251
55245W        W59206  12.624  10.523  15.121
55246W        W59207  14.016   8.549  14.585
55247W        W59208  11.039  10.307  16.749
55248W        W59209  11.830   9.879  17.229
55249W        W59210  12.203   9.239  15.848
55250W        W59211  12.225   7.644  16.941
55251W        W59212  14.454   7.406  16.238
55252W        W59213  11.673   9.278  14.706
55253W        W59214  11.328   8.311  14.885
55254W        W59215  11.390  10.267  15.679
55255W        W59216  12.521   9.750  15.927
55256W        W59217  13.853  10.609  17.641
55257W        W59218  12.779   8.251  15.325
55258W        W59219  14.162  10.649  16.097
55259W        W59220  13.839   8.502  17.695
55260W        W59221  14.552  10.158  15.829
55261W        W59222  13.179   9.450  17.313
55262W        W59223  10.945   9.001  15.519
55263W        W59224  12.056   9.416  17.092
55264W        W59225  13.260   8.680  15.470
55265W        W59226  13.137   9.170  15.574
55266W        W59227  11.480   8.590  17.048
55267W        W59228  11.465   8.466  17.970
55268W        W59229  11.355   7.383  16.129
55269W        W59230  13.123   7.730  16.690
55270W        W59231  12.771   7.915  17.853
55271W        W59232  13.126   8.064  15.031
55272W        W59233  14.309  10.457  17.785
55273W        W59234  13.276   7.538  17.824
55274W        W59235  14.295   9.839  17.946
55275W        W59236  13.725   8.006  17.542
55276W        W59237  13.525   7.944  15.812
55277W        W59238  13.918   9.078  18.216
55278W        W59239  11.658  10.654  16.202
55279W        W59240  12.316   8.371  15.188
55280W        W59241  11.885   7.655  17.852
55281W        W59242  13.937   8.139  15.533
55282W        W59243  14.304   8.621  15.478
55283W        W59244  12.047  10.838  17.949
55284W        W59245  11.973   7.374  15.184
55285W        W59246  14.294   7.908  16.219
55286W        W59247  14.444  10.157  14.664
55287W        W59248  11.351   9.360  16.366
55288W        W59249  13.268   7.947  14.596
55289W        W59250  14.402  10.279  16.316
55290W        W59251  14.441   7.473  17.066
55291W        W59252  12.886   8.685  17.620
55292W        W59253  12.979  10.024  15.323
55293W        W59254  13.379   9.318  18.063
55294W        W59255  13.053   7.295  16.372
55295W        W59256  11.665   8.198  16.435
55296W        W59257  11.219   9.398  17.209
55297W        W59258  13.078  10.591  15.915
55298W        W59259  14.272   8.188  16.787
55299W        W59260  12.909  10.535  17.554
55300W        W59261  14.252   9.594  14.759
55301W        W59262  12.687   9.077  15.820
55302W        W59263  14.539   7.588  17.561
55303W        W59264  12.688   9.423  17.155
55304W        W59265  12.905   8.309  16.600
55305W        W59266  13.757   8.607  15.438
55306W        W59267  14.044   8.340  15.080
55307W        W59268  13.853  10.380  15.469
55308W        W59269  13.687   9.983  16.265
55309W        W59270  13.583   9.062  15.243
55310W        W59271  13.016   9.272  16.229
55311W        W59272  13.897   9.060  16.296
55312W        W59273  11.272   8.075  16.720
55313W        W59274  14.050   9.127  17.547
55314W        W59275  14.401  10.745  16.693
55315W        W59276  12.331  10.189  16.095
55316W        W59277  13.338  10.722  17.419
55317W        W59278  13.332   8.052  17.183
55318W        W59279  12.539  10.760  17.244
55319W        W59280  14.236   7.714  15.710
55320W        W59281  14.027   9.033  17.011
55321W        W59282  11.010   8.354  17.049
55322W        W59283  13.870   8.149  16.067
55323W        W59284  14.281   8.300  17.844
55324W        W59285  13.166   9.999  16.062
55325W        W59286  12.422  10.590  15.675
55326W        W59287  11.537   7.770  14.933
55327W        W59288  12.641   7.424  16.743
55328W        W59289  11.669  10.544  14.591
55329W        W59290  12.043   9.010  15.342
55330W        W59291  12.697   9.639  17.655
55331W        W59292  12.527   7.997  15.645
55332W        W59293  13.883   7.594  16.073
55333W        W59294  13.603  10.876  16.401
55334W        W59295  13.015  10.524  16.741
55335W        W59296  12.411   9.561  16.702
55336W        W59297  14.181  10.284  16.828
55337W        W59298  11.875   7.787  15.597
55338W        W59299  12.397  10.084  16.557
55339W        W59300  11.880   8.015  14.622
55340W        W59301  12.681   8.624  17.016
55341W        W59302  13.529   7.490  16.886
55342W        W59303  10.949   9.333  16.771
55343W        W59304  12.653   9.151  14.929
55344W        W59305  11.921   7.466  14.699
55345W        W59306  12.659   8.547  15.750
55346W        W59307  13.629   7.523  17.449
55347W        W59308  12.217   9.535  17.558
55348W        W59309  13.021   9.317  17.775
55349W        W59310  13.638   9.347  17.668
55350W        W59311  12.922   7.487  18.173
55351W        W59312  12.144   8.103  16.566
55352W        W59313  11.570   8.059  15.964
55353W        W59314  11.356  10.771  15.640
55354W        W59315  12.688  10.101  17.765
55355W        W59316  11.723   9.586  15.124
55356W        W59317  13.403   8.971  16.345
55357W        W59318  13.683   8.770  16.744
55358W        W59319  12.888   9.444  16.678
55359W        W59320  13.358   9.818  14.810
55360W        W59321  13.030   7.839  16.138
55361W        W59322  14.509   8.117  15.406
55362W        W59323  11.003  10.706  17.437
55363W        W59324  11.420   9.932  16.969
55364W        W59325  10.987  10.778  15.201
55365W        W59326  12.886   8.048  17.007
55366W        W59327  12.249  10.071  14.856
55367W        W59328  14.154  10.453  15.042
55368W        W59329  13.129   9.106  15.056
55369W        W59330  11.972   8.297  15.573
55370W        W59331  12.804   8.207  14.625
55371W        W59332  13.388   9.772  17.803
55372W        W59333  13.741   7.678  15.420
55373W        W59334  11.071   7.526  14.868
55374W        W59335  12.357   9.845  17.158
55375W        W59336  12.156   9.761  16.250
55376W        W59337  11.898   9.713  14.648
55377W        W59338  11.139   9.954  15.416
55378W        W59339  11.643   9.024  17.858
55379W        W59340  12.347   7.584  18.044
55380W        W59341  13.056   7.726  17.400
55381W        W59342  12.251   7.494  15.681
55382W        W59343  13.310   7.571  15.186
55383W        W59344  11.255   7.503  16.763
55384W        W59345  11.303   8.466  16.133
55385W        W59346  13.992   7.574  16.539
55386W        W59347  11.414   8.072  15.353
55387W        W59348  13.985   7.760  16.969
55388W        W59349  14.381   8.963  14.654
55389W        W59350  11.673   7.721  16.473
55390W        W59351  12.787   8.293  17.413
55391W        W59352  10.935   7.983  14.891
55392W        W59353  11.721   9.372  17.452
55393W        W59354  13.079   8.770  16.631
55394W        W59355  12.946  10.849  14.927
55395W        W59356  11.092   9.356  14.624
55396W        W59357  11.827   9.767  17.750
55397W        W59358  11.348   8.934  17.381
55398W        W59359  12.339   9.039  17.175
55399W        W59360  14.107   7.398  17.437
55400W        W59361  14.505   9.008  17.428
55401W        W59362  14.493   9.208  15.114
55402W        W59363  13.356   9.540  15.213
55403W        W59364  13.830  10.840  14.908
55404W        W59365  13.007   8.830  18.050
55405W        W59366  11.337   9.797  18.090
55406W        W59367  14.543   7.719  18.042
55407W        W59368  14.261   8.647  16.663
55408W        W59369  12.569  10.777  18.140
55409W        W59370  12.424   7.406  14.867
55410W        W59371  13.963  10.005  14.810
55411W        W59372  11.732   8.098  17.696
55412W        W59373  12.166  10.092  17.558
55413W        W59374  14.292   8.083  17.356
55414W        W59375  13.503  10.742  15.324
55415W        W59376  13.742   9.361  16.691
55416W        W59377  11.992   7.777  17.358
55417W        W59378  12.461   8.846  18.115
55418W        W59379  11.964  10.025  15.309
55419W        W59380  13.719   9.523  15.573
55420W        W59381  11.487   8.149  17.297
55421W        W59382  12.816  10.211  15.761
55422W        W59383  14.566   8.771  15.942
55423W        W59384  12.788   7.404  17.661
55424W        W59385  13.568  10.109  16.740
55425W        W59386  13.871  10.453  16.448
55426W        W59387  13.090  10.255  14.876
55427W        W59388  11.100  10.147  17.718
55428W        W59389  11.843   8.139  16.956
55429W        W59390  11.813   7.487  16.066
55430W        W59391  13.434   8.329  16.758
55431W        W59392  12.232   9.500  14.958
55432W        W59393  14.230   9.442  16.457
55433W        W59394  11.557  10.200  17.880
55434W        W59395  13.944  10.882  15.677
55435W        W59396  12.043   7.902  16.122
55436W        W59397  11.812   9.395  16.212
55437W        W59398  12.125  10.806  16.962
55438W        W59399  14.192  10.902  17.994
55439W        W59400  13.351   9.090  16.927
55440W        W59401  11.200   8.888  14.842
55441W        W59402  14.334  10.546  15.539
55442W        W59403  14.171   7.870  15.158
55443W        W59404  12.310   7.389  17.561
55444W        W59405  14.016  10.191  16.019
55445W        W59406  14.045   8.747  15.924
55446W        W59407  12.162   8.420  16.140
55447W        W59408  12.407   8.682  17.464
55448W        W59409  13.518   9.835  17.327
55449W        W59410  12.168   8.289  17.439
55450W        W59411  12.147  10.755  16.055
55451W        W59412  11.464  10.714  17.689
55452W        W59413  11.576  10.075  14.819
55453W        W59414  14.093   9.833  15.629
55454W        W59415  11.697   8.625  17.515
55455W        W59416  14.470   8.555  14.996
55456W        W59417  12.215   9.612  15.467
55457W        W59418  13.314   8.994  17.548
55458W        W59419  13.205   8.622  17.092
55459W        W59420  11.765   8.994  17.121
55460W        W59421  13.975  10.882  16.950
55461W        W59422  13.766   7.516  17.944
55462W        W59423  11.430   7.666  17.531
55463W        W59424  11.769   8.689  16.584
55464W        W59425  12.138   8.503  14.706
55465W        W59426  10.941  10.262  17.251
55466W        W59427  12.526   8.971  16.694
55467W        W59428  12.349   7.996  14.799
55468W        W59429  11.484   8.812  15.580
55469W        W59430  11.255  10.664  17.017
55470W        W59431  14.050   8.890  15.125
55471W        W59432  14.145   7.806  17.811
55472W        W59433  13.581  10.015  15.774
55473W        W59434  11.179   8.939  17.951
55474W        W59435  14.145   7.403  15.247
55475W        W59436  13.665   9.878  15.258
55476W        W59437  12.567   8.936  15.343
55477W        W59438  13.754   7.740  14.866
55478W        W59439  13.819   8.347  17.052
55479W        W59440  11.528   8.940  16.259
55480W        W59441  11.822   9.879  15.908
55481W        W59442  13.585   8.499  15.873
55482W        W59443  12.608   7.878  16.569
55483W        W59444  14.570   9.789  17.080
55484W        W59445  14.488   7.776  16.641
55485W        W59446  11.027  10.606  16.017
55486W        W59447  11.536   9.793  15.553
55487W        W59448  11.451   7.410  18.106
55488W        W59449  12.570  10.263  18.208
55489W        W59450  14.325   9.231  15.998
55490W        W59451  13.679   9.408  14.878
55491W        W59452  12.974  10.929  17.090
55492W        W59453  13.831   9.651  18.127
55493W        W59454  12.646   7.361  15.407
55494W        W59455  13.359   8.230  16.266
55495W        W59456  11.045   9.817  16.598
55496W        W59457  12.298   7.779  15.239
55497W        W59458  12.102   9.263  18.088
55498W        W59459  13.096   8.244  15.802
55499W        W59460  13.301   9.654  16.924
55500W        W59461  11.455  10.259  17.359
55501W        W59462  12.046  10.242  18.082
55502W        W59463  11.897   8.039  15.096
55503W        W59464  13.414   8.181  15.421
55504W        W59465  13.372  10.289  17.658
55505W        W59466  12.057   8.881  16.257
55506W        W59467  11.712  10.579  17.122
55507W        W59468  14.457  10.696  14.723
55508W        W59469  11.320   9.368  17.719
55509W        W59470  13.315   9.630  16.407
55510W        W59471  11.751   9.279  15.649
55511W        W59472  12.122  10.286  17.044
55512W        W59473  12.500   7.705  16.085
55513W        W59474  11.111   9.689  15.015
55514W        W59475  12.630   8.640  14.885
55515W        W59476  11.276   9.189  15.904
55516W        W59477  12.566   7.831  17.368
55517W        W59478  14.238   7.540  14.795
55518W        W59479  14.331   9.286  17.894
55519W        W59480  12.985  10.543  18.046
55520W        W59481  14.543   9.637  17.568
55521W        W59482  13.951  10.435  18.179
55522W        W59483  11.690  10.891  16.657
55523W        W59484  14.549   9.513  15.531
55524W        W59485  13.079   8.780  16.044
55525W        W59486  12.846   7.392  15.934
55526W        W59487  11.905  10.376  15.771
55527W        W59488  12.404   8.117  16.996
55528W        W59489  12.104   7.486  16.465
55529W        W59490  11.167  10.308  15.013
55530W        W59491  12.983   9.672  15.731
55531W        W59492  11.858  10.467  17.610
55532W        W59493  11.335   9.290  15.306
55533W        W59494  11.220   7.833  16.305
55534W        W59495  12.768   9.798  16.362
55535W        W59496  11.020   7.652  15.382
55536W        W59497  13.684   8.858  17.309
55537W        W59498  13.561   8.244  14.881
55538W        W59499  14.078   9.916  16.529
55539W        W59500  12.739  10.400  16.360
55540W        W59501  12.151  10.504  15.271
55541W        W59502  13.433   7.407  14.701
55542W        W59503  11.233  10.667  16.442
55543W        W59504  13.430   8.425  18.077
55544W        W59505  11.413   7.955  18.076
55545W        W59506  11.144   8.555  15.409
55546W        W59507  11.835   8.544  15.134
55547W        W59508  13.598   8.871  17.951
55548W        W59509  11.941   9.152  16.660
55549W        W59510  13.415   7.438  15.780
55550W        W59511  12.546  10.869  16.283
55551W        W59512  13.760  10.331  17.220
55552W        W59513  13.344  10.480  16.331
55553W        W59514  13.363   9.460  15.925
55554W        W59515  12.825   7.685  14.996
55555W        W59516  14.506   7.313  15.718
55556W        W59517  12.194   8.948  14.881
55557W        W59518  14.360   8.285  15.871
55558W        W59519  13.052   9.455  14.748
55559W        W59520  13.988   9.655  17.496
55560W        W59521  13.642  10.356  14.963
55561W        W59522  12.257   8.031  17.869
55562W        W59523  12.077   8.615  17.110
55563W        W59524  14.169  10.110  17.387
55564W        W59525  13.269   8.060  17.764
55565W        W59526  11.113   8.531  17.541
55566W        W59527  12.873   9.008  17.267
55567W        W59528  11.230   9.766  15.924
55568W        W59529  11.377   9.063  16.814
55569W        W59530  13.694   9.349  17.164
55570W        W59531  13.466  10.729  17.975
55571W        W59532  13.362   8.468  17.528
55572W        W59533  13.639  10.522  15.933
55573W        W59534  12.641  10.242  17.256
55574W        W59535  12.126  10.597  16.525
55575W        W59536  13.931   9.768  16.944
55576W        W59537  12.981   9.840  18.081
55577W        W59538  11.586   9.793  16.420
55578W        W59539  13.932   9.552  16.065
55579W        W59540  13.573  10.618  16.816
55580W        W59541  11.551  10.347  16.686
55581W        W59542  12.572   8.399  17.896
55582W        W59543  13.023  10.565  15.407
55583W        W59544  12.331   9.820  18.045
55584W        W59545  12.457  10.058  15.422
55585W        W59546  11.678   8.798  14.681
55586W        W59547  11.017  10.884  21.580
55587W        W59548  11.393   9.777  21.103
55588W        W59549  14.098   9.507  18.873
55589W        W59550  14.228  10.592  20.900
55590W        W59551  12.146  10.583  18.426
55591W        W59552  12.229   8.735  19.409
55592W        W59553  11.744   8.583  19.573
55593W        W59554  12.735   9.398  19.007
55594W        W59555  12.410  10.490  21.362
55595W        W59556  11.059   8.051  21.325
55596W        W59557  11.821   7.331  21.127
55597W        W59558  13.515   7.719  20.014
55598W        W59559  13.164   8.590  18.584
55599W        W59560  13.734   8.024  21.675
55600W        W59561  11.100   7.816  20.800
55601W        W59562  11.199  10.435  21.821
55602W        W59563  12.721   9.825  18.553
55603W        W59564  11.153   8.608  20.246
55604W        W59565  12.046   8.499  21.483
55605W        W59566  14.505   8.358  19.982
55606W        W59567  14.269   9.401  20.841
55607W        W59568  12.577   8.734  19.868
55608W        W59569  13.123  10.073  20.237
55609W        W59570  11.623   9.507  20.469
55610W        W59571  10.982   9.035  20.040
55611W        W59572  12.018   9.007  21.232
55612W        W59573  14.289   8.790  21.486
55613W        W59574  11.905  10.234  19.931
55614W        W59575  13.026   9.923  21.065
55615W        W59576  12.246   8.563  20.290
55616W        W59577  12.538   9.347  19.933
55617W        W59578  13.535  10.120  21.781
55618W        W59579  12.614   9.440  21.791
55619W        W59580  12.595   9.156  21.269
55620W        W59581  11.004   8.547  21.791
55621W        W59582  13.836  10.082  21.390
55622W        W59583  11.417   7.664  19.388
55623W        W59584  11.944   9.922  20.387
55624W        W59585  14.407   9.705  19.677
55625W        W59586  13.820   8.105  20.244
55626W        W59587  14.105   8.058  18.339
55627W        W59588  14.570   8.859  20.645
55628W        W59589  12.537  10.566  20.398
55629W        W59590  14.311  10.032  18.836
55630W        W59591  11.440  10.818  18.590
55631W        W59592  11.833  10.864  19.266
55632W        W59593  11.630   7.618  20.692
55633W        W59594  14.253   8.636  20.967
55634W        W59595  13.658   9.058  19.426
55635W        W59596  13.624   8.746  18.453
55636W        W59597  12.832   9.890  20.593
55637W        W59598  12.638   8.220  19.792
55638W        W59599  13.238  10.307  20.786
55639W        W59600  14.109   9.098  19.208
55640W        W59601  13.011   7.756  19.224
55641W        W59602  11.668  10.450  18.907
55642W        W59603  11.039   7.949  19.506
55643W        W59604  13.825   8.556  19.980
55644W        W59605  11.283  10.173  19.895
55645W        W59606  12.624  10.523  18.765
55646W        W59607  14.016   8.549  18.229
55647W        W59608  11.039  10.307  20.393
55648W        W59609  11.830   9.879  20.873
55649W        W59610  12.203   9.239  19.492
55650W        W59611  12.225   7.644  20.585
55651W        W59612  14.454   7.406  19.882
55652W        W59613  11.673   9.278  18.350
55653W        W59614  11.328   8.311  18.529
55654W        W59615  11.390  10.267  19.323
55655W        W59616  12.521   9.750  19.571
55656W        W59617  13.853  10.609  21.285
55657W        W59618  12.779   8.251  18.969
55658W        W59619  14.162  10.649  19.741
55659W        W59620  13.839   8.502  21.339
55660W        W59621  14.552  10.158  19.473
55661W        W59622  13.179   9.450  20.957
55662W        W59623  10.945   9.001  19.163
55663W        W59624  12.056   9.416  20.736
55664W        W59625  13.260   8.680  19.114
55665W        W59626  13.137   9.170  19.218
55666W        W59627  11.480   8.590  20.692
55667W        W59628  11.465   8.466  21.614
55668W        W59629  11.355   7.383  19.773
55669W        W59630  13.123   7.730  20.334
55670W        W59631  12.771   7.915  21.497
55671W        W59632  13.126   8.064  18.675
55672W        W59633  14.309  10.457  21.429
55673W        W59634  13.276   7.538  21.468
55674W        W59635  14.295   9.839  21.590
55675W        W59636  13.725   8.006  21.186
55676W        W59637  13.525   7.944  19.456
55677W        W59638  13.918   9.078  21.860
55678W        W59639  11.658  10.654  19.846
55679W        W59640  12.316   8.371  18.832
55680W        W59641  11.885   7.655  21.496
55681W        W59642  13.937   8.139  19.177
55682W        W59643  14.304   8.621  19.122
55683W        W59644  12.047  10.838  21.593
55684W        W59645  11.973   7.374  18.828
55685W        W59646  14.294   7.908  19.863
55686W        W59647  14.444  10.157  18.308
55687W        W59648  11.351   9.360  20.010
55688W        W59649  13.268   7.947  18.240
55689W        W59650  14.402  10.279  19.960
55690W        W59651  14.441   7.473  20.710
55691W        W59652  12.886   8.685  21.264
55692W        W59653  12.979  10.024  18.967
55693W        W59654  13.379   9.318  21.707
55694W        W59655  13.053   7.295  20.016
55695W        W59656  11.665   8.198  20.079
55696W        W59657  11.219   9.398  20.853
55697W        W59658  13.078  10.591  19.559
55698W        W59659  14.272   8.188  20.431
55699W        W59660  12.909  10.535  21.198
55700W        W59661  14.252   9.594  18.403
55701W        W59662  12.687   9.077  19.464
55702W        W59663  14.539   7.588  21.205
55703W        W59664  12.688   9.423  20.799
55704W        W59665  12.905   8.309  20.244
55705W        W59666  13.757   8.607  19.082
55706W        W59667  14.044   8.340  18.724
55707W        W59668  13.853  10.380  19.113
55708W        W59669  13.687   9.983  19.909
55709W        W59670  13.583   9.062  18.887
55710W        W59671  13.016   9.272  19.873
55711W        W59672  13.897   9.060  19.940
55712W        W59673  11.272   8.075  20.364
55713W        W59674  14.050   9.127  21.191
55714W        W59675  14.401  10.745  20.337
55715W        W59676  12.331  10.189  19.739
55716W        W59677  13.338  10.722  21.063
55717W        W59678  13.332   8.052  20.827
55718W        W59679  12.539  10.760  20.888
55719W        W59680  14.236   7.714  19.354
55720W        W59681  14.027   9.033  20.655
55721W        W59682  11.010   8.354  20.693
55722W        W59683  13.870   8.149  19.711
55723W        W59684  14.281   8.300  21.488
55724W        W59685  13.166   9.999  19.706
55725W        W59686  12.422  10.590  19.319
55726W        W59687  11.537   7.770  18.577
55727W        W59688  12.641   7.424  20.387
55728W        W59689  11.669  10.544  18.235
55729W        W59690  12.043   9.010  18.986
55730W        W59691  12.697   9.639  21.299
55731W        W59692  12.527   7.997  19.289
55732W        W59693  13.883   7.594  19.717
55733W        W59694  13.603  10.876  20.045
55734W        W59695  13.015  10.524  20.385
55735W        W59696  12.411   9.561  20.346
55736W        W59697  14.181  10.284  20.472
55737W        W59698  11.875   7.787  19.241
55738W        W59699  12.397  10.084  20.201
55739W        W59700  11.880   8.015  18.266
55740W        W59701  12.681   8.624  20.660
55741W        W59702  13.529   7.490  20.530
55742W        W59703  10.949   9.333  20.415
55743W        W59704  12.653   9.151  18.573
55744W        W59705  11.921   7.466  18.343
55745W        W59706  12.659   8.547  19.394
55746W        W59707  13.629   7.523  21.093
55747W        W59708  12.217   9.535  21.202
55748W        W59709  13.021   9.317  21.419
55749W        W59710  13.638   9.347  21.312
55750W        W59711  12.922   7.487  21.817
55751W        W59712  12.144   8.103  20.210
55752W        W59713  11.570   8.059  19.608
55753W        W59714  11.356  10.771  19.284
55754W        W59715  12.688  10.101  21.409
55755W        W59716  11.723   9.586  18.768
55756W        W59717  13.403   8.971  19.989
55757W        W59718  13.683   8.770  20.388
55758W        W59719  12.888   9.444  20.322
55759W        W59720  13.358   9.818  18.454
55760W        W59721  13.030   7.839  19.782
55761W        W59722  14.509   8.117  19.050
55762W        W59723  11.003  10.706  21.081
55763W        W59724  11.420   9.932  20.613
55764W        W59725  10.987  10.778  18.845
55765W        W59726  12.886   8.048  20.651
55766W        W59727  12.249  10.071  18.500
55767W        W59728  14.154  10.453  18.686
55768W        W59729  13.129   9.106  18.700
55769W        W59730  11.972   8.297  19.217
55770W        W59731  12.804   8.207  18.269
55771W        W59732  13.388   9.772  21.447
55772W        W59733  13.741   7.678  19.064
55773W        W59734  11.071   7.526  18.512
55774W        W59735  12.357   9.845  20.802
55775W        W59736  12.156   9.761  19.894
55776W        W59737  11.898   9.713  18.292
55777W        W59738  11.139   9.954  19.060
55778W        W59739  11.643   9.024  21.502
55779W        W59740  12.347   7.584  21.688
55780W        W59741  13.056   7.726  21.044
55781W        W59742  12.251   7.494  19.325
55782W        W59743  13.310   7.571  18.830
55783W        W59744  11.255   7.503  20.407
55784W        W59745  11.303   8.466  19.777
55785W        W59746  13.992   7.574  20.183
55786W        W59747  11.414   8.072  18.997
55787W        W59748  13.985   7.760  20.613
55788W        W59749  14.381   8.963  18.298
55789W        W59750  11.673   7.721  20.117
55790W        W59751  12.787   8.293  21.057
55791W        W59752  10.935   7.983  18.535
55792W        W59753  11.721   9.372  21.096
55793W        W59754  13.079   8.770  20.275
55794W        W59755  12.946  10.849  18.571
55795W        W59756  11.092   9.356  18.268
55796W        W59757  11.827   9.767  21.394
55797W        W59758  11.348   8.934  21.025
55798W        W59759  12.339   9.039  20.819
55799W        W59760  14.107   7.398  21.081
55800W        W59761  14.505   9.008  21.072
55801W        W59762  14.493   9.208  18.758
55802W        W59763  13.356   9.540  18.857
55803W        W59764  13.830  10.840  18.552
55804W        W59765  13.007   8.830  21.694
55805W        W59766  11.337   9.797  21.734
55806W        W59767  14.543   7.719  21.686
55807W        W59768  14.261   8.647  20.307
55808W        W59769  12.569  10.777  21.784
55809W        W59770  12.424   7.406  18.511
55810W        W59771  13.963  10.005  18.454
55811W        W59772  11.732   8.098  21.340
55812W        W59773  12.166  10.092  21.202
55813W        W59774  14.292   8.083  21.000
55814W        W59775  13.503  10.742  18.968
55815W        W59776  13.742   9.361  20.335
55816W        W59777  11.992   7.777  21.002
55817W        W59778  12.461   8.846  21.759
55818W        W59779  11.964  10.025  18.953
55819W        W59780  13.719   9.523  19.217
55820W        W59781  11.487   8.149  20.941
55821W        W59782  12.816  10.211  19.405
55822W        W59783  14.566   8.771  19.586
55823W        W59784  12.788   7.404  21.305
55824W        W59785  13.568  10.109  20.384
55825W        W59786  13.871  10.453  20.092
55826W        W59787  13.090  10.255  18.520
55827W        W59788  11.100  10.147  21.362
55828W        W59789  11.843   8.139  20.600
55829W        W59790  11.813   7.487  19.710
55830W        W59791  13.434   8.329  20.402
55831W        W59792  12.232   9.500  18.602
55832W        W59793  14.230   9.442  20.101
55833W        W59794  11.557  10.200  21.524
55834W        W59795  13.944  10.882  19.321
55835W        W59796  12.043   7.902  19.766
55836W        W59797  11.812   9.395  19.856
55837W        W59798  12.125  10.806  20.606
55838W        W59799  14.192  10.902  21.638
55839W        W59800  13.351   9.090  20.571
55840W        W59801  11.200   8.888  18.486
55841W        W59802  14.334  10.546  19.183
55842W        W59803  14.171   7.870  18.802
55843W        W59804  12.310   7.389  21.205
55844W        W59805  14.016  10.191  19.663
55845W        W59806  14.045   8.747  19.568
55846W        W59807  12.162   8.420  19.784
55847W        W59808  12.407   8.682  21.108
55848W        W59809  13.518   9.835  20.971
55849W        W59810  12.168   8.289  21.083
55850W        W59811  12.147  10.755  19.699
55851W        W59812  11.464  10.714  21.333
55852W        W59813  11.576  10.075  18.463
55853W        W59814  14.093   9.833  19.273
55854W        W59815  11.697   8.625  21.159
55855W        W59816  14.470   8.555  18.640
55856W        W59817  12.215   9.612  19.111
55857W        W59818  13.314   8.994  21.192
55858W        W59819  13.205   8.622  20.736
55859W        W59820  11.765   8.994  20.765
55860W        W59821  13.975  10.882  20.594
55861W        W59822  13.766   7.516  21.588
55862W        W59823  11.430   7.666  21.175
55863W        W59824  11.769   8.689  20.228
55864W        W59825  12.138   8.503  18.350
55865W        W59826  10.941  10.262  20.895
55866W        W59827  12.526   8.971  20.338
55867W        W59828  12.349   7.996  18.443
55868W        W59829  11.484   8.812  19.224
55869W        W59830  11.255  10.664  20.661
55870W        W59831  14.050   8.890  18.769
55871W        W59832  14.145   7.806  21.455
55872W        W59833  13.581  10.015  19.418
55873W        W59834  11.179   8.939  21.595
55874W        W59835  14.145   7.403  18.891
55875W        W59836  13.665   9.878  18.902
55876W        W59837  12.567   8.936  18.987
55877W        W59838  13.754   7.740  18.510
55878W        W59839  13.819   8.347  20.696
55879W        W59840  11.528   8.940  19.903
55880W        W59841  11.822   9.879  19.552
55881W        W59842  13.585   8.499  19.517
55882W        W59843  12.608   7.878  20.213
55883W        W59844  14.570   9.789  20.724
55884W        W59845  14.488   7.776  20.285
55885W        W59846  11.027  10.606  19.661
55886W        W59847  11.536   9.793  19.197
55887W        W59848  11.451   7.410  21.750
55888W        W59849  12.570  10.263  21.852
55889W        W59850  14.325   9.231  19.642
55890W        W59851  13.679   9.408  18.522
55891W        W59852  12.974  10.929  20.734
55892W        W59853  13.831   9.651  21.771
55893W        W59854  12.646   7.361  19.051
55894W        W59855  13.359   8.230  19.910
55895W        W59856  11.045   9.817  20.242
55896W        W59857  12.298   7.779  18.883
55897W        W59858  12.102   9.263  21.732
55898W        W59859  13.096   8.244  19.446
55899W        W59860  13.301   9.654  20.568
55900W        W59861  11.455  10.259  21.003
55901W        W59862  12.046  10.242  21.726
55902W        W59863  11.897   8.039  18.740
55903W        W59864  13.414   8.181  19.065
55904W        W59865  13.372  10.289  21.302
55905W        W59866  12.057   8.881  19.901
55906W        W59867  11.712  10.579  20.766
55907W        W59868  14.457  10.696  18.367
55908W        W59869  11.320   9.368  21.363
55909W        W59870  13.315   9.630  20.051
55910W        W59871  11.751   9.279  19.293
55911W        W59872  12.122  10.286  20.688
55912W        W59873  12.500   7.705  19.729
55913W        W59874  11.111   9.689  18.659
55914W        W59875  12.630   8.640  18.529
55915W        W59876  11.276   9.189  19.548
55916W        W59877  12.566   7.831  21.012
55917W        W59878  14.238   7.540  18.439
55918W        W59879  14.331   9.286  21.538
55919W        W59880  12.985  10.543  21.690
55920W        W59881  14.543   9.637  21.212
55921W        W59882  13.951  10.435  21.823
55922W        W59883  11.690  10.891  20.301
55923W        W59884  14.549   9.513  19.175
55924W        W59885  13.079   8.780  19.688
55925W        W59886  12.846   7.392  19.578
55926W        W59887  11.905  10.376  19.415
55927W        W59888  12.404   8.117  20.640
55928W        W59889  12.104   7.486  20.109
55929W        W59890  11.167  10.308  18.657
55930W        W59891  12.983   9.672  19.375
55931W        W59892  11.858  10.467  21.254
55932W        W59893  11.335   9.290  18.950
55933W        W59894  11.220   7.833  19.949
55934W        W59895  12.768   9.798  20.006
55935W        W59896  11.020   7.652  19.026
55936W        W59897  13.684   8.858  20.953
55937W        W59898  13.561   8.244  18.525
55938W        W59899  14.078   9.916  20.173
55939W        W59900  12.739  10.400  20.004
55940W        W59901  12.151  10.504  18.915
55941W        W59902  13.433   7.407  18.345
55942W        W59903  11.233  10.667  20.086
55943W        W59904  13.430   8.425  21.721
55944W        W59905  11.413   7.955  21.720
55945W        W59906  11.144   8.555  19.053
55946W        W59907  11.835   8.544  18.778
55947W        W59908  13.598   8.871  21.595
55948W        W59909  11.941   9.152  20.304
55949W        W59910  13.415   7.438  19.424
55950W        W59911  12.546  10.869  19.927
55951W        W59912  13.760  10.331  20.864
55952W        W59913  13.344  10.480  19.975
55953W        W59914  13.363   9.460  19.569
55954W        W59915  12.825   7.685  18.640
55955W        W59916  14.506   7.313  19.362
55956W        W59917  12.194   8.948  18.525
55957W        W59918  14.360   8.285  19.515
55958W        W59919  13.052   9.455  18.392
55959W        W59920  13.988   9.655  21.140
55960W        W59921  13.642  10.356  18.607
55961W        W59922  12.257   8.031  21.513
55962W        W59923  12.077   8.615  20.754
55963W        W59924  14.169  10.110  21.031
55964W        W59925  13.269   8.060  21.408
55965W        W59926  11.113   8.531  21.185
55966W        W59927  12.873   9.008  20.911
55967W        W59928  11.230   9.766  19.568
55968W        W59929  11.377   9.063  20.458
55969W        W59930  13.694   9.349  20.808
55970W        W59931  13.466  10.729  21.619
55971W        W59932  13.362   8.468  21.172
55972W        W59933  13.639  10.522  19.577
55973W        W59934  12.641  10.242  20.900
55974W        W59935  12.126  10.597  20.169
55975W        W59936  13.931   9.768  20.588
55976W        W59937  12.981   9.840  21.725
55977W        W59938  11.586   9.793  20.064
55978W        W59939  13.932   9.552  19.709
55979W        W59940  13.573  10.618  20.460
55980W        W59941  11.551  10.347  20.330
55981W        W59942  12.572   8.399  21.540
55982W        W59943  13.023  10.565  19.051
55983W        W59944  12.331   9.820  21.689
55984W        W59945  12.457  10.058  19.066
55985W        W59946  11.678   8.798  18.325
55986W        W59947  14.098   9.507  22.518
55987W        W59948  12.146  10.583  22.071
55988W        W59949  12.229   8.735  23.054
55989W        W59950  11.744   8.583  23.218
55990W        W59951  12.735   9.398  22.652
55991W        W59952  13.164   8.590  22.229
55992W        W59953  12.721   9.825  22.198
55993W        W59954  11.417   7.664  23.033
55994W        W59955  14.105   8.058  21.984
55995W        W59956  14.311  10.032  22.481
55996W        W59957  11.440  10.818  22.235
55997W        W59958  11.833  10.864  22.911
55998W        W59959  13.658   9.058  23.071
55999W        W59960  13.624   8.746  22.098
56000W        W59961  14.109   9.098  22.853
56001W        W59962  13.011   7.756  22.869
56002W        W59963  11.668  10.450  22.552
56003W        W59964  12.624  10.523  22.410
56004W        W59965  14.016   8.549  21.874
56005W        W59966  12.203   9.239  23.137
56006W        W59967  11.673   9.278  21.995
56007W        W59968  11.328   8.311  22.174
56008W        W59969  11.390  10.267  22.968
56009W        W59970  12.521   9.750  23.216
56010W        W59971  12.779   8.251  22.614
56011W        W59972  10.945   9.001  22.808
56012W        W59973  13.260   8.680  22.759
56013W        W59974  13.137   9.170  22.863
56014W        W59975  13.126   8.064  22.320
56015W        W59976  13.525   7.944  23.101
56016W        W59977  12.316   8.371  22.477
56017W        W59978  13.937   8.139  22.822
56018W        W59979  14.304   8.621  22.767
56019W        W59980  11.973   7.374  22.473
56020W        W59981  14.444  10.157  21.953
56021W        W59982  13.268   7.947  21.885
56022W        W59983  12.979  10.024  22.612
56023W        W59984  13.078  10.591  23.204
56024W        W59985  14.252   9.594  22.048
56025W        W59986  12.687   9.077  23.109
56026W        W59987  13.757   8.607  22.727
56027W        W59988  14.044   8.340  22.369
56028W        W59989  13.853  10.380  22.758
56029W        W59990  13.583   9.062  22.532
56030W        W59991  14.236   7.714  22.999
56031W        W59992  12.422  10.590  22.964
56032W        W59993  11.537   7.770  22.222
56033W        W59994  11.669  10.544  21.880
56034W        W59995  12.043   9.010  22.631
56035W        W59996  12.527   7.997  22.934
56036W        W59997  11.875   7.787  22.886
56037W        W59998  11.880   8.015  21.911
56038W        W59999  12.653   9.151  22.218
56039W        W60000  11.921   7.466  21.988
56040W        W60001  12.659   8.547  23.039
56041W        W60002  11.570   8.059  23.253
56042W        W60003  11.723   9.586  22.413
56043W        W60004  13.358   9.818  22.099
56044W        W60005  14.509   8.117  22.695
56045W        W60006  12.249  10.071  22.145
56046W        W60007  14.154  10.453  22.331
56047W        W60008  13.129   9.106  22.345
56048W        W60009  11.972   8.297  22.862
56049W        W60010  12.804   8.207  21.914
56050W        W60011  13.741   7.678  22.709
56051W        W60012  11.071   7.526  22.157
56052W        W60013  11.898   9.713  21.937
56053W        W60014  11.139   9.954  22.705
56054W        W60015  12.251   7.494  22.970
56055W        W60016  13.310   7.571  22.475
56056W        W60017  11.414   8.072  22.642
56057W        W60018  14.381   8.963  21.943
56058W        W60019  10.935   7.983  22.180
56059W        W60020  12.946  10.849  22.216
56060W        W60021  11.092   9.356  21.913
56061W        W60022  14.493   9.208  22.403
56062W        W60023  13.356   9.540  22.502
56063W        W60024  13.830  10.840  22.197
56064W        W60025  12.424   7.406  22.156
56065W        W60026  13.963  10.005  22.099
56066W        W60027  13.503  10.742  22.613
56067W        W60028  11.964  10.025  22.598
56068W        W60029  13.719   9.523  22.862
56069W        W60030  12.816  10.211  23.050
56070W        W60031  14.566   8.771  23.231
56071W        W60032  13.090  10.255  22.165
56072W        W60033  12.232   9.500  22.247
56073W        W60034  13.944  10.882  22.966
56074W        W60035  11.200   8.888  22.131
56075W        W60036  14.334  10.546  22.828
56076W        W60037  14.171   7.870  22.447
56077W        W60038  14.045   8.747  23.213
56078W        W60039  11.576  10.075  22.108
56079W        W60040  14.093   9.833  22.918
56080W        W60041  14.470   8.555  22.285
56081W        W60042  12.215   9.612  22.756
56082W        W60043  12.138   8.503  21.995
56083W        W60044  12.349   7.996  22.088
56084W        W60045  11.484   8.812  22.869
56085W        W60046  14.050   8.890  22.414
56086W        W60047  13.581  10.015  23.063
56087W        W60048  14.145   7.403  22.536
56088W        W60049  13.665   9.878  22.547
56089W        W60050  12.567   8.936  22.632
56090W        W60051  13.754   7.740  22.155
56091W        W60052  11.822   9.879  23.197
56092W        W60053  13.585   8.499  23.162
56093W        W60054  11.027  10.606  23.306
56094W        W60055  11.536   9.793  22.842
56095W        W60056  14.325   9.231  23.287
56096W        W60057  13.679   9.408  22.167
56097W        W60058  12.646   7.361  22.696
56098W        W60059  12.298   7.779  22.528
56099W        W60060  13.096   8.244  23.091
56100W        W60061  11.897   8.039  22.385
56101W        W60062  13.414   8.181  22.710
56102W        W60063  14.457  10.696  22.012
56103W        W60064  11.111   9.689  22.304
56104W        W60065  12.630   8.640  22.174
56105W        W60066  11.276   9.189  23.193
56106W        W60067  14.238   7.540  22.084
56107W        W60068  14.549   9.513  22.820
56108W        W60069  12.846   7.392  23.223
56109W        W60070  11.905  10.376  23.060
56110W        W60071  11.167  10.308  22.302
56111W        W60072  12.983   9.672  23.020
56112W        W60073  11.335   9.290  22.595
56113W        W60074  11.020   7.652  22.671
56114W        W60075  13.561   8.244  22.170
56115W        W60076  12.151  10.504  22.560
56116W        W60077  13.433   7.407  21.990
56117W        W60078  11.144   8.555  22.698
56118W        W60079  11.835   8.544  22.423
56119W        W60080  13.363   9.460  23.214
56120W        W60081  12.825   7.685  22.285
56121W        W60082  14.506   7.313  23.007
56122W        W60083  12.194   8.948  22.170
56123W        W60084  14.360   8.285  23.160
56124W        W60085  13.052   9.455  22.037
56125W        W60086  13.642  10.356  22.252
56126W        W60087  11.230   9.766  23.213
56127W        W60088  13.639  10.522  23.222
56128W        W60089  13.023  10.565  22.696
56129W        W60090  12.457  10.058  22.711
56130W        W60091  11.678   8.798  21.970
56131W        W60092  11.017  14.528   3.359
56132W        W60093  11.393  13.421   2.882
56133W        W60094  14.098  13.151   0.652
56134W        W60095  14.228  14.236   2.679
56135W        W60096  12.146  14.227   0.205
56136W        W60097  12.229  12.379   1.188
56137W        W60098  11.744  12.227   1.352
56138W        W60099  12.735  13.042   0.786
56139W        W60100  12.410  14.134   3.141
56140W        W60101  11.059  11.695   3.104
56141W        W60102  11.821  10.975   2.906
56142W        W60103  13.515  11.363   1.793
56143W        W60104  13.164  12.234   0.363
56144W        W60105  13.734  11.668   3.454
56145W        W60106  11.100  11.460   2.579
56146W        W60107  11.199  14.079   3.600
56147W        W60108  12.721  13.469   0.332
56148W        W60109  11.153  12.252   2.025
56149W        W60110  12.046  12.143   3.262
56150W        W60111  14.505  12.002   1.761
56151W        W60112  14.269  13.045   2.620
56152W        W60113  12.577  12.378   1.647
56153W        W60114  13.123  13.717   2.016
56154W        W60115  11.623  13.151   2.248
56155W        W60116  10.982  12.679   1.819
56156W        W60117  12.018  12.651   3.011
56157W        W60118  14.289  12.434   3.265
56158W        W60119  11.905  13.878   1.710
56159W        W60120  13.026  13.567   2.844
56160W        W60121  12.246  12.207   2.069
56161W        W60122  12.538  12.991   1.712
56162W        W60123  13.535  13.764   3.560
56163W        W60124  12.614  13.084   3.570
56164W        W60125  12.595  12.800   3.048
56165W        W60126  11.004  12.191   3.570
56166W        W60127  13.836  13.726   3.169
56167W        W60128  11.417  11.308   1.167
56168W        W60129  11.944  13.566   2.166
56169W        W60130  14.407  13.349   1.456
56170W        W60131  13.820  11.749   2.023
56171W        W60132  14.105  11.702   0.118
56172W        W60133  14.570  12.503   2.424
56173W        W60134  12.537  14.210   2.177
56174W        W60135  14.311  13.676   0.615
56175W        W60136  11.440  14.462   0.369
56176W        W60137  11.833  14.508   1.045
56177W        W60138  11.630  11.262   2.471
56178W        W60139  14.253  12.280   2.746
56179W        W60140  13.658  12.702   1.205
56180W        W60141  13.624  12.390   0.232
56181W        W60142  12.832  13.534   2.372
56182W        W60143  12.638  11.864   1.571
56183W        W60144  13.238  13.951   2.565
56184W        W60145  14.109  12.742   0.987
56185W        W60146  13.011  11.400   1.003
56186W        W60147  11.668  14.094   0.686
56187W        W60148  11.039  11.593   1.285
56188W        W60149  13.825  12.200   1.759
56189W        W60150  11.283  13.817   1.674
56190W        W60151  12.624  14.167   0.544
56191W        W60152  14.016  12.193   0.008
56192W        W60153  11.039  13.951   2.172
56193W        W60154  11.830  13.523   2.652
56194W        W60155  12.203  12.883   1.271
56195W        W60156  12.225  11.288   2.364
56196W        W60157  14.454  11.050   1.661
56197W        W60158  11.673  12.922   0.129
56198W        W60159  11.328  11.955   0.308
56199W        W60160  11.390  13.911   1.102
56200W        W60161  12.521  13.394   1.350
56201W        W60162  13.853  14.253   3.064
56202W        W60163  12.779  11.895   0.748
56203W        W60164  14.162  14.293   1.520
56204W        W60165  13.839  12.146   3.118
56205W        W60166  14.552  13.802   1.252
56206W        W60167  13.179  13.094   2.736
56207W        W60168  10.945  12.645   0.942
56208W        W60169  12.056  13.060   2.515
56209W        W60170  13.260  12.324   0.893
56210W        W60171  13.137  12.814   0.997
56211W        W60172  11.480  12.234   2.471
56212W        W60173  11.465  12.110   3.393
56213W        W60174  11.355  11.027   1.552
56214W        W60175  13.123  11.374   2.113
56215W        W60176  12.771  11.559   3.276
56216W        W60177  13.126  11.708   0.454
56217W        W60178  14.309  14.101   3.208
56218W        W60179  13.276  11.182   3.247
56219W        W60180  14.295  13.483   3.369
56220W        W60181  13.725  11.650   2.965
56221W        W60182  13.525  11.588   1.235
56222W        W60183  13.918  12.722   3.639
56223W        W60184  11.658  14.298   1.625
56224W        W60185  12.316  12.015   0.611
56225W        W60186  11.885  11.299   3.275
56226W        W60187  13.937  11.783   0.956
56227W        W60188  14.304  12.265   0.901
56228W        W60189  12.047  14.482   3.372
56229W        W60190  11.973  11.018   0.607
56230W        W60191  14.294  11.552   1.642
56231W        W60192  14.444  13.801   0.087
56232W        W60193  11.351  13.004   1.789
56233W        W60194  13.268  11.591   0.019
56234W        W60195  14.402  13.923   1.739
56235W        W60196  14.441  11.117   2.489
56236W        W60197  12.886  12.329   3.043
56237W        W60198  12.979  13.668   0.746
56238W        W60199  13.379  12.962   3.486
56239W        W60200  13.053  10.939   1.795
56240W        W60201  11.665  11.842   1.858
56241W        W60202  11.219  13.042   2.632
56242W        W60203  13.078  14.235   1.338
56243W        W60204  12.909  14.179   2.977
56244W        W60205  14.252  13.238   0.182
56245W        W60206  12.687  12.721   1.243
56246W        W60207  14.539  11.232   2.984
56247W        W60208  12.688  13.067   2.578
56248W        W60209  12.905  11.953   2.023
56249W        W60210  13.757  12.251   0.861
56250W        W60211  14.044  11.984   0.503
56251W        W60212  13.853  14.024   0.892
56252W        W60213  13.687  13.627   1.688
56253W        W60214  13.583  12.706   0.666
56254W        W60215  13.016  12.916   1.652
56255W        W60216  13.897  12.704   1.719
56256W        W60217  11.272  11.719   2.143
56257W        W60218  14.050  12.771   2.970
56258W        W60219  14.401  14.389   2.116
56259W        W60220  12.331  13.833   1.518
56260W        W60221  13.338  14.366   2.842
56261W        W60222  13.332  11.696   2.606
56262W        W60223  12.539  14.404   2.667
56263W        W60224  14.236  11.358   1.133
56264W        W60225  14.027  12.677   2.434
56265W        W60226  11.010  11.998   2.472
56266W        W60227  13.870  11.793   1.490
56267W        W60228  14.281  11.944   3.267
56268W        W60229  13.166  13.643   1.485
56269W        W60230  12.422  14.234   1.098
56270W        W60231  11.537  11.414   0.356
56271W        W60232  12.641  11.068   2.166
56272W        W60233  11.669  14.188   0.014
56273W        W60234  12.043  12.654   0.765
56274W        W60235  12.697  13.283   3.078
56275W        W60236  12.527  11.641   1.068
56276W        W60237  13.883  11.238   1.496
56277W        W60238  13.603  14.520   1.824
56278W        W60239  13.015  14.168   2.164
56279W        W60240  12.411  13.205   2.125
56280W        W60241  14.181  13.928   2.251
56281W        W60242  11.875  11.431   1.020
56282W        W60243  12.397  13.728   1.980
56283W        W60244  11.880  11.659   0.045
56284W        W60245  12.681  12.268   2.439
56285W        W60246  13.529  11.134   2.309
56286W        W60247  10.949  12.977   2.194
56287W        W60248  12.653  12.795   0.352
56288W        W60249  11.921  11.110   0.122
56289W        W60250  12.659  12.191   1.173
56290W        W60251  13.629  11.167   2.872
56291W        W60252  12.217  13.179   2.981
56292W        W60253  13.021  12.961   3.198
56293W        W60254  13.638  12.991   3.091
56294W        W60255  12.922  11.131   3.596
56295W        W60256  12.144  11.747   1.989
56296W        W60257  11.570  11.703   1.387
56297W        W60258  11.356  14.415   1.063
56298W        W60259  12.688  13.745   3.188
56299W        W60260  11.723  13.230   0.547
56300W        W60261  13.403  12.615   1.768
56301W        W60262  13.683  12.414   2.167
56302W        W60263  12.888  13.088   2.101
56303W        W60264  13.358  13.462   0.233
56304W        W60265  13.030  11.483   1.561
56305W        W60266  14.509  11.761   0.829
56306W        W60267  11.003  14.350   2.860
56307W        W60268  11.420  13.576   2.392
56308W        W60269  10.987  14.422   0.624
56309W        W60270  12.886  11.692   2.430
56310W        W60271  12.249  13.715   0.279
56311W        W60272  14.154  14.097   0.465
56312W        W60273  13.129  12.750   0.479
56313W        W60274  11.972  11.941   0.996
56314W        W60275  12.804  11.851   0.048
56315W        W60276  13.388  13.416   3.226
56316W        W60277  13.741  11.322   0.843
56317W        W60278  11.071  11.170   0.291
56318W        W60279  12.357  13.489   2.581
56319W        W60280  12.156  13.405   1.673
56320W        W60281  11.898  13.357   0.071
56321W        W60282  11.139  13.598   0.839
56322W        W60283  11.643  12.668   3.281
56323W        W60284  12.347  11.228   3.467
56324W        W60285  13.056  11.370   2.823
56325W        W60286  12.251  11.138   1.104
56326W        W60287  13.310  11.215   0.609
56327W        W60288  11.255  11.147   2.186
56328W        W60289  11.303  12.110   1.556
56329W        W60290  11.414  11.716   0.776
56330W        W60291  14.381  12.607   0.077
56331W        W60292  11.673  11.365   1.896
56332W        W60293  12.787  11.937   2.836
56333W        W60294  10.935  11.627   0.314
56334W        W60295  11.721  13.016   2.875
56335W        W60296  13.079  12.414   2.054
56336W        W60297  12.946  14.493   0.350
56337W        W60298  11.092  13.000   0.047
56338W        W60299  11.827  13.411   3.173
56339W        W60300  11.348  12.578   2.804
56340W        W60301  12.339  12.683   2.598
56341W        W60302  14.107  11.042   2.860
56342W        W60303  14.505  12.652   2.851
56343W        W60304  14.493  12.852   0.537
56344W        W60305  13.356  13.184   0.636
56345W        W60306  13.830  14.484   0.331
56346W        W60307  13.007  12.474   3.473
56347W        W60308  11.337  13.441   3.513
56348W        W60309  14.543  11.363   3.465
56349W        W60310  14.261  12.291   2.086
56350W        W60311  12.569  14.421   3.563
56351W        W60312  12.424  11.050   0.290
56352W        W60313  13.963  13.649   0.233
56353W        W60314  11.732  11.742   3.119
56354W        W60315  12.166  13.736   2.981
56355W        W60316  14.292  11.727   2.779
56356W        W60317  13.503  14.386   0.747
56357W        W60318  13.742  13.005   2.114
56358W        W60319  11.992  11.421   2.781
56359W        W60320  12.461  12.490   3.538
56360W        W60321  11.964  13.669   0.732
56361W        W60322  13.719  13.167   0.996
56362W        W60323  11.487  11.793   2.720
56363W        W60324  12.816  13.855   1.184
56364W        W60325  14.566  12.415   1.365
56365W        W60326  12.788  11.048   3.084
56366W        W60327  13.568  13.753   2.163
56367W        W60328  13.871  14.097   1.871
56368W        W60329  13.090  13.899   0.299
56369W        W60330  11.100  13.791   3.141
56370W        W60331  11.843  11.783   2.379
56371W        W60332  11.813  11.131   1.489
56372W        W60333  13.434  11.973   2.181
56373W        W60334  12.232  13.144   0.381
56374W        W60335  14.230  13.086   1.880
56375W        W60336  11.557  13.844   3.303
56376W        W60337  13.944  14.526   1.100
56377W        W60338  12.043  11.546   1.545
56378W        W60339  11.812  13.039   1.635
56379W        W60340  12.125  14.450   2.385
56380W        W60341  14.192  14.546   3.417
56381W        W60342  13.351  12.734   2.350
56382W        W60343  11.200  12.532   0.265
56383W        W60344  14.334  14.190   0.962
56384W        W60345  14.171  11.514   0.581
56385W        W60346  12.310  11.033   2.984
56386W        W60347  14.016  13.835   1.442
56387W        W60348  14.045  12.391   1.347
56388W        W60349  12.162  12.064   1.563
56389W        W60350  12.407  12.326   2.887
56390W        W60351  13.518  13.479   2.750
56391W        W60352  12.168  11.933   2.862
56392W        W60353  12.147  14.399   1.478
56393W        W60354  11.464  14.358   3.112
56394W        W60355  11.576  13.719   0.242
56395W        W60356  14.093  13.477   1.052
56396W        W60357  11.697  12.269   2.938
56397W        W60358  14.470  12.199   0.419
56398W        W60359  12.215  13.256   0.890
56399W        W60360  13.314  12.638   2.971
56400W        W60361  13.205  12.266   2.515
56401W        W60362  11.765  12.638   2.544
56402W        W60363  13.975  14.526   2.373
56403W        W60364  13.766  11.160   3.367
56404W        W60365  11.430  11.310   2.954
56405W        W60366  11.769  12.333   2.007
56406W        W60367  12.138  12.147   0.129
56407W        W60368  10.941  13.906   2.674
56408W        W60369  12.526  12.615   2.117
56409W        W60370  12.349  11.640   0.222
56410W        W60371  11.484  12.456   1.003
56411W        W60372  11.255  14.308   2.440
56412W        W60373  14.050  12.534   0.548
56413W        W60374  14.145  11.450   3.234
56414W        W60375  13.581  13.659   1.197
56415W        W60376  11.179  12.583   3.374
56416W        W60377  14.145  11.047   0.670
56417W        W60378  13.665  13.522   0.681
56418W        W60379  12.567  12.580   0.766
56419W        W60380  13.754  11.384   0.289
56420W        W60381  13.819  11.991   2.475
56421W        W60382  11.528  12.584   1.682
56422W        W60383  11.822  13.523   1.331
56423W        W60384  13.585  12.143   1.296
56424W        W60385  12.608  11.522   1.992
56425W        W60386  14.570  13.433   2.503
56426W        W60387  14.488  11.420   2.064
56427W        W60388  11.027  14.250   1.440
56428W        W60389  11.536  13.437   0.976
56429W        W60390  11.451  11.054   3.529
56430W        W60391  12.570  13.907   3.631
56431W        W60392  14.325  12.875   1.421
56432W        W60393  13.679  13.052   0.301
56433W        W60394  12.974  14.573   2.513
56434W        W60395  13.831  13.295   3.550
56435W        W60396  12.646  11.005   0.830
56436W        W60397  13.359  11.874   1.689
56437W        W60398  11.045  13.461   2.021
56438W        W60399  12.298  11.423   0.662
56439W        W60400  12.102  12.907   3.511
56440W        W60401  13.096  11.888   1.225
56441W        W60402  13.301  13.298   2.347
56442W        W60403  11.455  13.903   2.782
56443W        W60404  12.046  13.886   3.505
56444W        W60405  11.897  11.683   0.519
56445W        W60406  13.414  11.825   0.844
56446W        W60407  13.372  13.933   3.081
56447W        W60408  12.057  12.525   1.680
56448W        W60409  11.712  14.223   2.545
56449W        W60410  14.457  14.340   0.146
56450W        W60411  11.320  13.012   3.142
56451W        W60412  13.315  13.274   1.830
56452W        W60413  11.751  12.923   1.072
56453W        W60414  12.122  13.930   2.467
56454W        W60415  12.500  11.349   1.508
56455W        W60416  11.111  13.333   0.438
56456W        W60417  12.630  12.284   0.308
56457W        W60418  11.276  12.833   1.327
56458W        W60419  12.566  11.475   2.791
56459W        W60420  14.238  11.184   0.218
56460W        W60421  14.331  12.930   3.317
56461W        W60422  12.985  14.187   3.469
56462W        W60423  14.543  13.281   2.991
56463W        W60424  13.951  14.079   3.602
56464W        W60425  11.690  14.535   2.080
56465W        W60426  14.549  13.157   0.954
56466W        W60427  13.079  12.424   1.467
56467W        W60428  12.846  11.036   1.357
56468W        W60429  11.905  14.020   1.194
56469W        W60430  12.404  11.761   2.419
56470W        W60431  12.104  11.130   1.888
56471W        W60432  11.167  13.952   0.436
56472W        W60433  12.983  13.316   1.154
56473W        W60434  11.858  14.111   3.033
56474W        W60435  11.335  12.934   0.729
56475W        W60436  11.220  11.477   1.728
56476W        W60437  12.768  13.442   1.785
56477W        W60438  11.020  11.296   0.805
56478W        W60439  13.684  12.502   2.732
56479W        W60440  13.561  11.888   0.304
56480W        W60441  14.078  13.560   1.952
56481W        W60442  12.739  14.044   1.783
56482W        W60443  12.151  14.148   0.694
56483W        W60444  13.433  11.051   0.124
56484W        W60445  11.233  14.311   1.865
56485W        W60446  13.430  12.069   3.500
56486W        W60447  11.413  11.599   3.499
56487W        W60448  11.144  12.199   0.832
56488W        W60449  11.835  12.188   0.557
56489W        W60450  13.598  12.515   3.374
56490W        W60451  11.941  12.796   2.083
56491W        W60452  13.415  11.082   1.203
56492W        W60453  12.546  14.513   1.706
56493W        W60454  13.760  13.975   2.643
56494W        W60455  13.344  14.124   1.754
56495W        W60456  13.363  13.104   1.348
56496W        W60457  12.825  11.329   0.419
56497W        W60458  14.506  10.957   1.141
56498W        W60459  12.194  12.592   0.304
56499W        W60460  14.360  11.929   1.294
56500W        W60461  13.052  13.099   0.171
56501W        W60462  13.988  13.299   2.919
56502W        W60463  13.642  14.000   0.386
56503W        W60464  12.257  11.675   3.292
56504W        W60465  12.077  12.259   2.533
56505W        W60466  14.169  13.754   2.810
56506W        W60467  13.269  11.704   3.187
56507W        W60468  11.113  12.175   2.964
56508W        W60469  12.873  12.652   2.690
56509W        W60470  11.230  13.410   1.347
56510W        W60471  11.377  12.707   2.237
56511W        W60472  13.694  12.993   2.587
56512W        W60473  13.466  14.373   3.398
56513W        W60474  13.362  12.112   2.951
56514W        W60475  13.639  14.166   1.356
56515W        W60476  12.641  13.886   2.679
56516W        W60477  12.126  14.241   1.948
56517W        W60478  13.931  13.412   2.367
56518W        W60479  12.981  13.484   3.504
56519W        W60480  11.586  13.437   1.843
56520W        W60481  13.932  13.196   1.488
56521W        W60482  13.573  14.262   2.239
56522W        W60483  11.551  13.991   2.109
56523W        W60484  12.572  12.043   3.319
56524W        W60485  13.023  14.209   0.830
56525W        W60486  12.331  13.464   3.468
56526W        W60487  12.457  13.702   0.845
56527W        W60488  11.678  12.442   0.104
56528W        W60489  11.017  14.528   7.003
56529W        W60490  11.393  13.421   6.526
56530W        W60491  14.098  13.151   4.296
56531W        W60492  14.228  14.236   6.323
56532W        W60493  12.146  14.227   3.849
56533W        W60494  12.229  12.379   4.832
56534W        W60495  11.744  12.227   4.996
56535W        W60496  12.735  13.042   4.430
56536W        W60497  12.410  14.134   6.785
56537W        W60498  11.059  11.695   6.748
56538W        W60499  11.821  10.975   6.550
56539W        W60500  13.515  11.363   5.437
56540W        W60501  13.164  12.234   4.007
56541W        W60502  13.734  11.668   7.098
56542W        W60503  11.100  11.460   6.223
56543W        W60504  11.199  14.079   7.244
56544W        W60505  12.721  13.469   3.976
56545W        W60506  11.153  12.252   5.669
56546W        W60507  12.046  12.143   6.906
56547W        W60508  14.505  12.002   5.405
56548W        W60509  14.269  13.045   6.264
56549W        W60510  12.577  12.378   5.291
56550W        W60511  13.123  13.717   5.660
56551W        W60512  11.623  13.151   5.892
56552W        W60513  10.982  12.679   5.463
56553W        W60514  12.018  12.651   6.655
56554W        W60515  14.289  12.434   6.909
56555W        W60516  11.905  13.878   5.354
56556W        W60517  13.026  13.567   6.488
56557W        W60518  12.246  12.207   5.713
56558W        W60519  12.538  12.991   5.356
56559W        W60520  13.535  13.764   7.204
56560W        W60521  12.614  13.084   7.214
56561W        W60522  12.595  12.800   6.692
56562W        W60523  11.004  12.191   7.214
56563W        W60524  13.836  13.726   6.813
56564W        W60525  11.417  11.308   4.811
56565W        W60526  11.944  13.566   5.810
56566W        W60527  14.407  13.349   5.100
56567W        W60528  13.820  11.749   5.667
56568W        W60529  14.105  11.702   3.762
56569W        W60530  14.570  12.503   6.068
56570W        W60531  12.537  14.210   5.821
56571W        W60532  14.311  13.676   4.259
56572W        W60533  11.440  14.462   4.013
56573W        W60534  11.833  14.508   4.689
56574W        W60535  11.630  11.262   6.115
56575W        W60536  14.253  12.280   6.390
56576W        W60537  13.658  12.702   4.849
56577W        W60538  13.624  12.390   3.876
56578W        W60539  12.832  13.534   6.016
56579W        W60540  12.638  11.864   5.215
56580W        W60541  13.238  13.951   6.209
56581W        W60542  14.109  12.742   4.631
56582W        W60543  13.011  11.400   4.647
56583W        W60544  11.668  14.094   4.330
56584W        W60545  11.039  11.593   4.929
56585W        W60546  13.825  12.200   5.403
56586W        W60547  11.283  13.817   5.318
56587W        W60548  12.624  14.167   4.188
56588W        W60549  14.016  12.193   3.652
56589W        W60550  11.039  13.951   5.816
56590W        W60551  11.830  13.523   6.296
56591W        W60552  12.203  12.883   4.915
56592W        W60553  12.225  11.288   6.008
56593W        W60554  14.454  11.050   5.305
56594W        W60555  11.673  12.922   3.773
56595W        W60556  11.328  11.955   3.952
56596W        W60557  11.390  13.911   4.746
56597W        W60558  12.521  13.394   4.994
56598W        W60559  13.853  14.253   6.708
56599W        W60560  12.779  11.895   4.392
56600W        W60561  14.162  14.293   5.164
56601W        W60562  13.839  12.146   6.762
56602W        W60563  14.552  13.802   4.896
56603W        W60564  13.179  13.094   6.380
56604W        W60565  10.945  12.645   4.586
56605W        W60566  12.056  13.060   6.159
56606W        W60567  13.260  12.324   4.537
56607W        W60568  13.137  12.814   4.641
56608W        W60569  11.480  12.234   6.115
56609W        W60570  11.465  12.110   7.037
56610W        W60571  11.355  11.027   5.196
56611W        W60572  13.123  11.374   5.757
56612W        W60573  12.771  11.559   6.920
56613W        W60574  13.126  11.708   4.098
56614W        W60575  14.309  14.101   6.852
56615W        W60576  13.276  11.182   6.891
56616W        W60577  14.295  13.483   7.013
56617W        W60578  13.725  11.650   6.609
56618W        W60579  13.525  11.588   4.879
56619W        W60580  13.918  12.722   7.283
56620W        W60581  11.658  14.298   5.269
56621W        W60582  12.316  12.015   4.255
56622W        W60583  11.885  11.299   6.919
56623W        W60584  13.937  11.783   4.600
56624W        W60585  14.304  12.265   4.545
56625W        W60586  12.047  14.482   7.016
56626W        W60587  11.973  11.018   4.251
56627W        W60588  14.294  11.552   5.286
56628W        W60589  14.444  13.801   3.731
56629W        W60590  11.351  13.004   5.433
56630W        W60591  13.268  11.591   3.663
56631W        W60592  14.402  13.923   5.383
56632W        W60593  14.441  11.117   6.133
56633W        W60594  12.886  12.329   6.687
56634W        W60595  12.979  13.668   4.390
56635W        W60596  13.379  12.962   7.130
56636W        W60597  13.053  10.939   5.439
56637W        W60598  11.665  11.842   5.502
56638W        W60599  11.219  13.042   6.276
56639W        W60600  13.078  14.235   4.982
56640W        W60601  14.272  11.832   5.854
56641W        W60602  12.909  14.179   6.621
56642W        W60603  14.252  13.238   3.826
56643W        W60604  12.687  12.721   4.887
56644W        W60605  14.539  11.232   6.628
56645W        W60606  12.688  13.067   6.222
56646W        W60607  12.905  11.953   5.667
56647W        W60608  13.757  12.251   4.505
56648W        W60609  14.044  11.984   4.147
56649W        W60610  13.853  14.024   4.536
56650W        W60611  13.687  13.627   5.332
56651W        W60612  13.583  12.706   4.310
56652W        W60613  13.016  12.916   5.296
56653W        W60614  13.897  12.704   5.363
56654W        W60615  11.272  11.719   5.787
56655W        W60616  14.050  12.771   6.614
56656W        W60617  14.401  14.389   5.760
56657W        W60618  12.331  13.833   5.162
56658W        W60619  13.338  14.366   6.486
56659W        W60620  13.332  11.696   6.250
56660W        W60621  12.539  14.404   6.311
56661W        W60622  14.236  11.358   4.777
56662W        W60623  14.027  12.677   6.078
56663W        W60624  11.010  11.998   6.116
56664W        W60625  13.870  11.793   5.134
56665W        W60626  14.281  11.944   6.911
56666W        W60627  13.166  13.643   5.129
56667W        W60628  12.422  14.234   4.742
56668W        W60629  11.537  11.414   4.000
56669W        W60630  12.641  11.068   5.810
56670W        W60631  11.669  14.188   3.658
56671W        W60632  12.043  12.654   4.409
56672W        W60633  12.697  13.283   6.722
56673W        W60634  12.527  11.641   4.712
56674W        W60635  13.883  11.238   5.140
56675W        W60636  13.603  14.520   5.468
56676W        W60637  13.015  14.168   5.808
56677W        W60638  12.411  13.205   5.769
56678W        W60639  14.181  13.928   5.895
56679W        W60640  11.875  11.431   4.664
56680W        W60641  12.397  13.728   5.624
56681W        W60642  11.880  11.659   3.689
56682W        W60643  12.681  12.268   6.083
56683W        W60644  13.529  11.134   5.953
56684W        W60645  10.949  12.977   5.838
56685W        W60646  12.653  12.795   3.996
56686W        W60647  11.921  11.110   3.766
56687W        W60648  12.659  12.191   4.817
56688W        W60649  13.629  11.167   6.516
56689W        W60650  12.217  13.179   6.625
56690W        W60651  13.021  12.961   6.842
56691W        W60652  13.638  12.991   6.735
56692W        W60653  12.922  11.131   7.240
56693W        W60654  12.144  11.747   5.633
56694W        W60655  11.570  11.703   5.031
56695W        W60656  11.356  14.415   4.707
56696W        W60657  12.688  13.745   6.832
56697W        W60658  11.723  13.230   4.191
56698W        W60659  13.403  12.615   5.412
56699W        W60660  13.683  12.414   5.811
56700W        W60661  12.888  13.088   5.745
56701W        W60662  13.358  13.462   3.877
56702W        W60663  13.030  11.483   5.205
56703W        W60664  14.509  11.761   4.473
56704W        W60665  11.003  14.350   6.504
56705W        W60666  11.420  13.576   6.036
56706W        W60667  10.987  14.422   4.268
56707W        W60668  12.886  11.692   6.074
56708W        W60669  12.249  13.715   3.923
56709W        W60670  14.154  14.097   4.109
56710W        W60671  13.129  12.750   4.123
56711W        W60672  11.972  11.941   4.640
56712W        W60673  12.804  11.851   3.692
56713W        W60674  13.388  13.416   6.870
56714W        W60675  13.741  11.322   4.487
56715W        W60676  11.071  11.170   3.935
56716W        W60677  12.357  13.489   6.225
56717W        W60678  12.156  13.405   5.317
56718W        W60679  11.898  13.357   3.715
56719W        W60680  11.139  13.598   4.483
56720W        W60681  11.643  12.668   6.925
56721W        W60682  12.347  11.228   7.111
56722W        W60683  13.056  11.370   6.467
56723W        W60684  12.251  11.138   4.748
56724W        W60685  13.310  11.215   4.253
56725W        W60686  11.255  11.147   5.830
56726W        W60687  11.303  12.110   5.200
56727W        W60688  13.992  11.218   5.606
56728W        W60689  11.414  11.716   4.420
56729W        W60690  13.985  11.404   6.036
56730W        W60691  14.381  12.607   3.721
56731W        W60692  11.673  11.365   5.540
56732W        W60693  12.787  11.937   6.480
56733W        W60694  10.935  11.627   3.958
56734W        W60695  11.721  13.016   6.519
56735W        W60696  13.079  12.414   5.698
56736W        W60697  12.946  14.493   3.994
56737W        W60698  11.092  13.000   3.691
56738W        W60699  11.827  13.411   6.817
56739W        W60700  11.348  12.578   6.448
56740W        W60701  12.339  12.683   6.242
56741W        W60702  14.107  11.042   6.504
56742W        W60703  14.505  12.652   6.495
56743W        W60704  14.493  12.852   4.181
56744W        W60705  13.356  13.184   4.280
56745W        W60706  13.830  14.484   3.975
56746W        W60707  13.007  12.474   7.117
56747W        W60708  11.337  13.441   7.157
56748W        W60709  14.543  11.363   7.109
56749W        W60710  14.261  12.291   5.730
56750W        W60711  12.569  14.421   7.207
56751W        W60712  12.424  11.050   3.934
56752W        W60713  13.963  13.649   3.877
56753W        W60714  11.732  11.742   6.763
56754W        W60715  12.166  13.736   6.625
56755W        W60716  14.292  11.727   6.423
56756W        W60717  13.503  14.386   4.391
56757W        W60718  13.742  13.005   5.758
56758W        W60719  11.992  11.421   6.425
56759W        W60720  12.461  12.490   7.182
56760W        W60721  11.964  13.669   4.376
56761W        W60722  13.719  13.167   4.640
56762W        W60723  11.487  11.793   6.364
56763W        W60724  12.816  13.855   4.828
56764W        W60725  14.566  12.415   5.009
56765W        W60726  12.788  11.048   6.728
56766W        W60727  13.568  13.753   5.807
56767W        W60728  13.871  14.097   5.515
56768W        W60729  13.090  13.899   3.943
56769W        W60730  11.100  13.791   6.785
56770W        W60731  11.843  11.783   6.023
56771W        W60732  11.813  11.131   5.133
56772W        W60733  13.434  11.973   5.825
56773W        W60734  12.232  13.144   4.025
56774W        W60735  14.230  13.086   5.524
56775W        W60736  11.557  13.844   6.947
56776W        W60737  13.944  14.526   4.744
56777W        W60738  12.043  11.546   5.189
56778W        W60739  11.812  13.039   5.279
56779W        W60740  12.125  14.450   6.029
56780W        W60741  14.192  14.546   7.061
56781W        W60742  13.351  12.734   5.994
56782W        W60743  11.200  12.532   3.909
56783W        W60744  14.334  14.190   4.606
56784W        W60745  14.171  11.514   4.225
56785W        W60746  12.310  11.033   6.628
56786W        W60747  14.016  13.835   5.086
56787W        W60748  14.045  12.391   4.991
56788W        W60749  12.162  12.064   5.207
56789W        W60750  12.407  12.326   6.531
56790W        W60751  13.518  13.479   6.394
56791W        W60752  12.168  11.933   6.506
56792W        W60753  12.147  14.399   5.122
56793W        W60754  11.464  14.358   6.756
56794W        W60755  11.576  13.719   3.886
56795W        W60756  14.093  13.477   4.696
56796W        W60757  11.697  12.269   6.582
56797W        W60758  14.470  12.199   4.063
56798W        W60759  12.215  13.256   4.534
56799W        W60760  13.314  12.638   6.615
56800W        W60761  13.205  12.266   6.159
56801W        W60762  11.765  12.638   6.188
56802W        W60763  13.975  14.526   6.017
56803W        W60764  13.766  11.160   7.011
56804W        W60765  11.430  11.310   6.598
56805W        W60766  11.769  12.333   5.651
56806W        W60767  12.138  12.147   3.773
56807W        W60768  10.941  13.906   6.318
56808W        W60769  12.526  12.615   5.761
56809W        W60770  12.349  11.640   3.866
56810W        W60771  11.484  12.456   4.647
56811W        W60772  11.255  14.308   6.084
56812W        W60773  14.050  12.534   4.192
56813W        W60774  14.145  11.450   6.878
56814W        W60775  13.581  13.659   4.841
56815W        W60776  11.179  12.583   7.018
56816W        W60777  14.145  11.047   4.314
56817W        W60778  13.665  13.522   4.325
56818W        W60779  12.567  12.580   4.410
56819W        W60780  13.754  11.384   3.933
56820W        W60781  13.819  11.991   6.119
56821W        W60782  11.528  12.584   5.326
56822W        W60783  11.822  13.523   4.975
56823W        W60784  13.585  12.143   4.940
56824W        W60785  12.608  11.522   5.636
56825W        W60786  14.570  13.433   6.147
56826W        W60787  14.488  11.420   5.708
56827W        W60788  11.027  14.250   5.084
56828W        W60789  11.536  13.437   4.620
56829W        W60790  11.451  11.054   7.173
56830W        W60791  12.570  13.907   7.275
56831W        W60792  14.325  12.875   5.065
56832W        W60793  13.679  13.052   3.945
56833W        W60794  12.974  14.573   6.157
56834W        W60795  13.831  13.295   7.194
56835W        W60796  12.646  11.005   4.474
56836W        W60797  13.359  11.874   5.333
56837W        W60798  11.045  13.461   5.665
56838W        W60799  12.298  11.423   4.306
56839W        W60800  12.102  12.907   7.155
56840W        W60801  13.096  11.888   4.869
56841W        W60802  13.301  13.298   5.991
56842W        W60803  11.455  13.903   6.426
56843W        W60804  12.046  13.886   7.149
56844W        W60805  11.897  11.683   4.163
56845W        W60806  13.414  11.825   4.488
56846W        W60807  13.372  13.933   6.725
56847W        W60808  12.057  12.525   5.324
56848W        W60809  11.712  14.223   6.189
56849W        W60810  14.457  14.340   3.790
56850W        W60811  11.320  13.012   6.786
56851W        W60812  13.315  13.274   5.474
56852W        W60813  11.751  12.923   4.716
56853W        W60814  12.122  13.930   6.111
56854W        W60815  12.500  11.349   5.152
56855W        W60816  11.111  13.333   4.082
56856W        W60817  12.630  12.284   3.952
56857W        W60818  11.276  12.833   4.971
56858W        W60819  12.566  11.475   6.435
56859W        W60820  14.238  11.184   3.862
56860W        W60821  14.331  12.930   6.961
56861W        W60822  12.985  14.187   7.113
56862W        W60823  14.543  13.281   6.635
56863W        W60824  13.951  14.079   7.246
56864W        W60825  11.690  14.535   5.724
56865W        W60826  14.549  13.157   4.598
56866W        W60827  13.079  12.424   5.111
56867W        W60828  12.846  11.036   5.001
56868W        W60829  11.905  14.020   4.838
56869W        W60830  12.404  11.761   6.063
56870W        W60831  12.104  11.130   5.532
56871W        W60832  11.167  13.952   4.080
56872W        W60833  12.983  13.316   4.798
56873W        W60834  11.858  14.111   6.677
56874W        W60835  11.335  12.934   4.373
56875W        W60836  11.220  11.477   5.372
56876W        W60837  12.768  13.442   5.429
56877W        W60838  11.020  11.296   4.449
56878W        W60839  13.684  12.502   6.376
56879W        W60840  13.561  11.888   3.948
56880W        W60841  14.078  13.560   5.596
56881W        W60842  12.739  14.044   5.427
56882W        W60843  12.151  14.148   4.338
56883W        W60844  13.433  11.051   3.768
56884W        W60845  11.233  14.311   5.509
56885W        W60846  13.430  12.069   7.144
56886W        W60847  11.413  11.599   7.143
56887W        W60848  11.144  12.199   4.476
56888W        W60849  11.835  12.188   4.201
56889W        W60850  13.598  12.515   7.018
56890W        W60851  11.941  12.796   5.727
56891W        W60852  13.415  11.082   4.847
56892W        W60853  12.546  14.513   5.350
56893W        W60854  13.760  13.975   6.287
56894W        W60855  13.344  14.124   5.398
56895W        W60856  13.363  13.104   4.992
56896W        W60857  12.825  11.329   4.063
56897W        W60858  14.506  10.957   4.785
56898W        W60859  12.194  12.592   3.948
56899W        W60860  14.360  11.929   4.938
56900W        W60861  13.052  13.099   3.815
56901W        W60862  13.988  13.299   6.563
56902W        W60863  13.642  14.000   4.030
56903W        W60864  12.257  11.675   6.936
56904W        W60865  12.077  12.259   6.177
56905W        W60866  14.169  13.754   6.454
56906W        W60867  13.269  11.704   6.831
56907W        W60868  11.113  12.175   6.608
56908W        W60869  12.873  12.652   6.334
56909W        W60870  11.230  13.410   4.991
56910W        W60871  11.377  12.707   5.881
56911W        W60872  13.694  12.993   6.231
56912W        W60873  13.466  14.373   7.042
56913W        W60874  13.362  12.112   6.595
56914W        W60875  13.639  14.166   5.000
56915W        W60876  12.641  13.886   6.323
56916W        W60877  12.126  14.241   5.592
56917W        W60878  13.931  13.412   6.011
56918W        W60879  12.981  13.484   7.148
56919W        W60880  11.586  13.437   5.487
56920W        W60881  13.932  13.196   5.132
56921W        W60882  13.573  14.262   5.883
56922W        W60883  11.551  13.991   5.753
56923W        W60884  12.572  12.043   6.963
56924W        W60885  13.023  14.209   4.474
56925W        W60886  12.331  13.464   7.112
56926W        W60887  12.457  13.702   4.489
56927W        W60888  11.678  12.442   3.748
56928W        W60889  11.017  14.528  10.648
56929W        W60890  11.393  13.421  10.171
56930W        W60891  14.098  13.151   7.941
56931W        W60892  14.228  14.236   9.968
56932W        W60893  12.146  14.227   7.494
56933W        W60894  12.229  12.379   8.477
56934W        W60895  11.744  12.227   8.641
56935W        W60896  12.735  13.042   8.075
56936W        W60897  12.410  14.134  10.430
56937W        W60898  11.059  11.695  10.393
56938W        W60899  11.821  10.975  10.195
56939W        W60900  13.515  11.363   9.082
56940W        W60901  13.164  12.234   7.652
56941W        W60902  13.734  11.668  10.743
56942W        W60903  11.100  11.460   9.868
56943W        W60904  11.199  14.079  10.889
56944W        W60905  12.721  13.469   7.621
56945W        W60906  11.153  12.252   9.314
56946W        W60907  12.046  12.143  10.551
56947W        W60908  14.505  12.002   9.050
56948W        W60909  14.269  13.045   9.909
56949W        W60910  12.577  12.378   8.936
56950W        W60911  13.123  13.717   9.305
56951W        W60912  11.623  13.151   9.537
56952W        W60913  10.982  12.679   9.108
56953W        W60914  12.018  12.651  10.300
56954W        W60915  14.289  12.434  10.554
56955W        W60916  11.905  13.878   8.999
56956W        W60917  13.026  13.567  10.133
56957W        W60918  12.246  12.207   9.358
56958W        W60919  12.538  12.991   9.001
56959W        W60920  13.535  13.764  10.849
56960W        W60921  12.614  13.084  10.859
56961W        W60922  12.595  12.800  10.337
56962W        W60923  11.004  12.191  10.859
56963W        W60924  13.836  13.726  10.458
56964W        W60925  11.417  11.308   8.456
56965W        W60926  11.944  13.566   9.455
56966W        W60927  14.407  13.349   8.745
56967W        W60928  13.820  11.749   9.312
56968W        W60929  14.105  11.702   7.407
56969W        W60930  14.570  12.503   9.713
56970W        W60931  12.537  14.210   9.466
56971W        W60932  14.311  13.676   7.904
56972W        W60933  11.440  14.462   7.658
56973W        W60934  11.833  14.508   8.334
56974W        W60935  11.630  11.262   9.760
56975W        W60936  14.253  12.280  10.035
56976W        W60937  13.658  12.702   8.494
56977W        W60938  13.624  12.390   7.521
56978W        W60939  12.832  13.534   9.661
56979W        W60940  12.638  11.864   8.860
56980W        W60941  13.238  13.951   9.854
56981W        W60942  14.109  12.742   8.276
56982W        W60943  13.011  11.400   8.292
56983W        W60944  11.668  14.094   7.975
56984W        W60945  11.039  11.593   8.574
56985W        W60946  13.825  12.200   9.048
56986W        W60947  11.283  13.817   8.963
56987W        W60948  12.624  14.167   7.833
56988W        W60949  14.016  12.193   7.297
56989W        W60950  11.830  13.523   9.941
56990W        W60951  12.203  12.883   8.560
56991W        W60952  12.225  11.288   9.653
56992W        W60953  14.454  11.050   8.950
56993W        W60954  11.673  12.922   7.418
56994W        W60955  11.328  11.955   7.597
56995W        W60956  11.390  13.911   8.391
56996W        W60957  12.521  13.394   8.639
56997W        W60958  13.853  14.253  10.353
56998W        W60959  12.779  11.895   8.037
56999W        W60960  14.162  14.293   8.809
57000W        W60961  13.839  12.146  10.407
57001W        W60962  14.552  13.802   8.541
57002W        W60963  13.179  13.094  10.025
57003W        W60964  10.945  12.645   8.231
57004W        W60965  12.056  13.060   9.804
57005W        W60966  13.260  12.324   8.182
57006W        W60967  13.137  12.814   8.286
57007W        W60968  11.480  12.234   9.760
57008W        W60969  11.465  12.110  10.682
57009W        W60970  11.355  11.027   8.841
57010W        W60971  13.123  11.374   9.402
57011W        W60972  12.771  11.559  10.565
57012W        W60973  13.126  11.708   7.743
57013W        W60974  14.309  14.101  10.497
57014W        W60975  13.276  11.182  10.536
57015W        W60976  14.295  13.483  10.658
57016W        W60977  13.725  11.650  10.254
57017W        W60978  13.525  11.588   8.524
57018W        W60979  13.918  12.722  10.928
57019W        W60980  11.658  14.298   8.914
57020W        W60981  12.316  12.015   7.900
57021W        W60982  11.885  11.299  10.564
57022W        W60983  13.937  11.783   8.245
57023W        W60984  14.304  12.265   8.190
57024W        W60985  12.047  14.482  10.661
57025W        W60986  11.973  11.018   7.896
57026W        W60987  14.294  11.552   8.931
57027W        W60988  14.444  13.801   7.376
57028W        W60989  11.351  13.004   9.078
57029W        W60990  13.268  11.591   7.308
57030W        W60991  14.402  13.923   9.028
57031W        W60992  14.441  11.117   9.778
57032W        W60993  12.886  12.329  10.332
57033W        W60994  12.979  13.668   8.035
57034W        W60995  13.379  12.962  10.775
57035W        W60996  13.053  10.939   9.084
57036W        W60997  11.665  11.842   9.147
57037W        W60998  11.219  13.042   9.921
57038W        W60999  13.078  14.235   8.627
57039W        W61000  14.272  11.832   9.499
57040W        W61001  12.909  14.179  10.266
57041W        W61002  14.252  13.238   7.471
57042W        W61003  12.687  12.721   8.532
57043W        W61004  14.539  11.232  10.273
57044W        W61005  12.688  13.067   9.867
57045W        W61006  12.905  11.953   9.312
57046W        W61007  13.757  12.251   8.150
57047W        W61008  14.044  11.984   7.792
57048W        W61009  13.853  14.024   8.181
57049W        W61010  13.687  13.627   8.977
57050W        W61011  13.583  12.706   7.955
57051W        W61012  13.016  12.916   8.941
57052W        W61013  13.897  12.704   9.008
57053W        W61014  11.272  11.719   9.432
57054W        W61015  14.050  12.771  10.259
57055W        W61016  14.401  14.389   9.405
57056W        W61017  12.331  13.833   8.807
57057W        W61018  13.338  14.366  10.131
57058W        W61019  13.332  11.696   9.895
57059W        W61020  12.539  14.404   9.956
57060W        W61021  14.236  11.358   8.422
57061W        W61022  14.027  12.677   9.723
57062W        W61023  11.010  11.998   9.761
57063W        W61024  13.870  11.793   8.779
57064W        W61025  14.281  11.944  10.556
57065W        W61026  13.166  13.643   8.774
57066W        W61027  12.422  14.234   8.387
57067W        W61028  11.537  11.414   7.645
57068W        W61029  12.641  11.068   9.455
57069W        W61030  11.669  14.188   7.303
57070W        W61031  12.043  12.654   8.054
57071W        W61032  12.697  13.283  10.367
57072W        W61033  12.527  11.641   8.357
57073W        W61034  13.883  11.238   8.785
57074W        W61035  13.603  14.520   9.113
57075W        W61036  13.015  14.168   9.453
57076W        W61037  12.411  13.205   9.414
57077W        W61038  14.181  13.928   9.540
57078W        W61039  11.875  11.431   8.309
57079W        W61040  12.397  13.728   9.269
57080W        W61041  11.880  11.659   7.334
57081W        W61042  12.681  12.268   9.728
57082W        W61043  13.529  11.134   9.598
57083W        W61044  10.949  12.977   9.483
57084W        W61045  12.653  12.795   7.641
57085W        W61046  11.921  11.110   7.411
57086W        W61047  12.659  12.191   8.462
57087W        W61048  13.629  11.167  10.161
57088W        W61049  12.217  13.179  10.270
57089W        W61050  13.021  12.961  10.487
57090W        W61051  13.638  12.991  10.380
57091W        W61052  12.922  11.131  10.885
57092W        W61053  12.144  11.747   9.278
57093W        W61054  11.570  11.703   8.676
57094W        W61055  11.356  14.415   8.352
57095W        W61056  12.688  13.745  10.477
57096W        W61057  11.723  13.230   7.836
57097W        W61058  13.403  12.615   9.057
57098W        W61059  13.683  12.414   9.456
57099W        W61060  12.888  13.088   9.390
57100W        W61061  13.358  13.462   7.522
57101W        W61062  13.030  11.483   8.850
57102W        W61063  14.509  11.761   8.118
57103W        W61064  11.003  14.350  10.149
57104W        W61065  11.420  13.576   9.681
57105W        W61066  10.987  14.422   7.913
57106W        W61067  12.886  11.692   9.719
57107W        W61068  12.249  13.715   7.568
57108W        W61069  14.154  14.097   7.754
57109W        W61070  13.129  12.750   7.768
57110W        W61071  11.972  11.941   8.285
57111W        W61072  12.804  11.851   7.337
57112W        W61073  13.388  13.416  10.515
57113W        W61074  13.741  11.322   8.132
57114W        W61075  11.071  11.170   7.580
57115W        W61076  12.357  13.489   9.870
57116W        W61077  12.156  13.405   8.962
57117W        W61078  11.898  13.357   7.360
57118W        W61079  11.139  13.598   8.128
57119W        W61080  11.643  12.668  10.570
57120W        W61081  12.347  11.228  10.756
57121W        W61082  13.056  11.370  10.112
57122W        W61083  12.251  11.138   8.393
57123W        W61084  13.310  11.215   7.898
57124W        W61085  11.255  11.147   9.475
57125W        W61086  11.303  12.110   8.845
57126W        W61087  13.992  11.218   9.251
57127W        W61088  11.414  11.716   8.065
57128W        W61089  13.985  11.404   9.681
57129W        W61090  14.381  12.607   7.366
57130W        W61091  11.673  11.365   9.185
57131W        W61092  12.787  11.937  10.125
57132W        W61093  10.935  11.627   7.603
57133W        W61094  11.721  13.016  10.164
57134W        W61095  13.079  12.414   9.343
57135W        W61096  12.946  14.493   7.639
57136W        W61097  11.092  13.000   7.336
57137W        W61098  11.827  13.411  10.462
57138W        W61099  11.348  12.578  10.093
57139W        W61100  12.339  12.683   9.887
57140W        W61101  14.107  11.042  10.149
57141W        W61102  14.505  12.652  10.140
57142W        W61103  14.493  12.852   7.826
57143W        W61104  13.356  13.184   7.925
57144W        W61105  13.830  14.484   7.620
57145W        W61106  13.007  12.474  10.762
57146W        W61107  11.337  13.441  10.802
57147W        W61108  14.543  11.363  10.754
57148W        W61109  14.261  12.291   9.375
57149W        W61110  12.569  14.421  10.852
57150W        W61111  12.424  11.050   7.579
57151W        W61112  13.963  13.649   7.522
57152W        W61113  11.732  11.742  10.408
57153W        W61114  12.166  13.736  10.270
57154W        W61115  14.292  11.727  10.068
57155W        W61116  13.503  14.386   8.036
57156W        W61117  13.742  13.005   9.403
57157W        W61118  11.992  11.421  10.070
57158W        W61119  12.461  12.490  10.827
57159W        W61120  11.964  13.669   8.021
57160W        W61121  13.719  13.167   8.285
57161W        W61122  11.487  11.793  10.009
57162W        W61123  12.816  13.855   8.473
57163W        W61124  14.566  12.415   8.654
57164W        W61125  12.788  11.048  10.373
57165W        W61126  13.568  13.753   9.452
57166W        W61127  13.871  14.097   9.160
57167W        W61128  13.090  13.899   7.588
57168W        W61129  11.100  13.791  10.430
57169W        W61130  11.843  11.783   9.668
57170W        W61131  11.813  11.131   8.778
57171W        W61132  13.434  11.973   9.470
57172W        W61133  12.232  13.144   7.670
57173W        W61134  14.230  13.086   9.169
57174W        W61135  11.557  13.844  10.592
57175W        W61136  13.944  14.526   8.389
57176W        W61137  12.043  11.546   8.834
57177W        W61138  11.812  13.039   8.924
57178W        W61139  12.125  14.450   9.674
57179W        W61140  14.192  14.546  10.706
57180W        W61141  13.351  12.734   9.639
57181W        W61142  11.200  12.532   7.554
57182W        W61143  14.334  14.190   8.251
57183W        W61144  14.171  11.514   7.870
57184W        W61145  12.310  11.033  10.273
57185W        W61146  14.016  13.835   8.731
57186W        W61147  14.045  12.391   8.636
57187W        W61148  12.162  12.064   8.852
57188W        W61149  12.407  12.326  10.176
57189W        W61150  13.518  13.479  10.039
57190W        W61151  12.168  11.933  10.151
57191W        W61152  12.147  14.399   8.767
57192W        W61153  11.464  14.358  10.401
57193W        W61154  11.576  13.719   7.531
57194W        W61155  14.093  13.477   8.341
57195W        W61156  11.697  12.269  10.227
57196W        W61157  14.470  12.199   7.708
57197W        W61158  12.215  13.256   8.179
57198W        W61159  13.314  12.638  10.260
57199W        W61160  13.205  12.266   9.804
57200W        W61161  11.765  12.638   9.833
57201W        W61162  13.975  14.526   9.662
57202W        W61163  13.766  11.160  10.656
57203W        W61164  11.430  11.310  10.243
57204W        W61165  11.769  12.333   9.296
57205W        W61166  12.138  12.147   7.418
57206W        W61167  10.941  13.906   9.963
57207W        W61168  12.526  12.615   9.406
57208W        W61169  12.349  11.640   7.511
57209W        W61170  11.484  12.456   8.292
57210W        W61171  11.255  14.308   9.729
57211W        W61172  14.050  12.534   7.837
57212W        W61173  14.145  11.450  10.523
57213W        W61174  13.581  13.659   8.486
57214W        W61175  11.179  12.583  10.663
57215W        W61176  14.145  11.047   7.959
57216W        W61177  13.665  13.522   7.970
57217W        W61178  12.567  12.580   8.055
57218W        W61179  13.754  11.384   7.578
57219W        W61180  13.819  11.991   9.764
57220W        W61181  11.528  12.584   8.971
57221W        W61182  11.822  13.523   8.620
57222W        W61183  13.585  12.143   8.585
57223W        W61184  12.608  11.522   9.281
57224W        W61185  14.570  13.433   9.792
57225W        W61186  14.488  11.420   9.353
57226W        W61187  11.027  14.250   8.729
57227W        W61188  11.536  13.437   8.265
57228W        W61189  11.451  11.054  10.818
57229W        W61190  12.570  13.907  10.920
57230W        W61191  14.325  12.875   8.710
57231W        W61192  13.679  13.052   7.590
57232W        W61193  12.974  14.573   9.802
57233W        W61194  13.831  13.295  10.839
57234W        W61195  12.646  11.005   8.119
57235W        W61196  13.359  11.874   8.978
57236W        W61197  11.045  13.461   9.310
57237W        W61198  12.298  11.423   7.951
57238W        W61199  12.102  12.907  10.800
57239W        W61200  13.096  11.888   8.514
57240W        W61201  13.301  13.298   9.636
57241W        W61202  11.455  13.903  10.071
57242W        W61203  12.046  13.886  10.794
57243W        W61204  11.897  11.683   7.808
57244W        W61205  13.414  11.825   8.133
57245W        W61206  13.372  13.933  10.370
57246W        W61207  12.057  12.525   8.969
57247W        W61208  11.712  14.223   9.834
57248W        W61209  14.457  14.340   7.435
57249W        W61210  11.320  13.012  10.431
57250W        W61211  13.315  13.274   9.119
57251W        W61212  11.751  12.923   8.361
57252W        W61213  12.122  13.930   9.756
57253W        W61214  12.500  11.349   8.797
57254W        W61215  11.111  13.333   7.727
57255W        W61216  12.630  12.284   7.597
57256W        W61217  11.276  12.833   8.616
57257W        W61218  12.566  11.475  10.080
57258W        W61219  14.238  11.184   7.507
57259W        W61220  14.331  12.930  10.606
57260W        W61221  12.985  14.187  10.758
57261W        W61222  14.543  13.281  10.280
57262W        W61223  13.951  14.079  10.891
57263W        W61224  11.690  14.535   9.369
57264W        W61225  14.549  13.157   8.243
57265W        W61226  13.079  12.424   8.756
57266W        W61227  12.846  11.036   8.646
57267W        W61228  11.905  14.020   8.483
57268W        W61229  12.404  11.761   9.708
57269W        W61230  12.104  11.130   9.177
57270W        W61231  11.167  13.952   7.725
57271W        W61232  12.983  13.316   8.443
57272W        W61233  11.858  14.111  10.322
57273W        W61234  11.335  12.934   8.018
57274W        W61235  11.220  11.477   9.017
57275W        W61236  12.768  13.442   9.074
57276W        W61237  11.020  11.296   8.094
57277W        W61238  13.684  12.502  10.021
57278W        W61239  13.561  11.888   7.593
57279W        W61240  14.078  13.560   9.241
57280W        W61241  12.739  14.044   9.072
57281W        W61242  12.151  14.148   7.983
57282W        W61243  13.433  11.051   7.413
57283W        W61244  11.233  14.311   9.154
57284W        W61245  13.430  12.069  10.789
57285W        W61246  11.413  11.599  10.788
57286W        W61247  11.144  12.199   8.121
57287W        W61248  11.835  12.188   7.846
57288W        W61249  13.598  12.515  10.663
57289W        W61250  11.941  12.796   9.372
57290W        W61251  13.415  11.082   8.492
57291W        W61252  12.546  14.513   8.995
57292W        W61253  13.760  13.975   9.932
57293W        W61254  13.344  14.124   9.043
57294W        W61255  13.363  13.104   8.637
57295W        W61256  12.825  11.329   7.708
57296W        W61257  14.506  10.957   8.430
57297W        W61258  12.194  12.592   7.593
57298W        W61259  14.360  11.929   8.583
57299W        W61260  13.052  13.099   7.460
57300W        W61261  13.988  13.299  10.208
57301W        W61262  13.642  14.000   7.675
57302W        W61263  12.257  11.675  10.581
57303W        W61264  12.077  12.259   9.822
57304W        W61265  14.169  13.754  10.099
57305W        W61266  13.269  11.704  10.476
57306W        W61267  11.113  12.175  10.253
57307W        W61268  12.873  12.652   9.979
57308W        W61269  11.230  13.410   8.636
57309W        W61270  11.377  12.707   9.526
57310W        W61271  13.694  12.993   9.876
57311W        W61272  13.466  14.373  10.687
57312W        W61273  13.362  12.112  10.240
57313W        W61274  13.639  14.166   8.645
57314W        W61275  12.641  13.886   9.968
57315W        W61276  12.126  14.241   9.237
57316W        W61277  13.931  13.412   9.656
57317W        W61278  12.981  13.484  10.793
57318W        W61279  11.586  13.437   9.132
57319W        W61280  13.932  13.196   8.777
57320W        W61281  13.573  14.262   9.528
57321W        W61282  11.551  13.991   9.398
57322W        W61283  12.572  12.043  10.608
57323W        W61284  13.023  14.209   8.119
57324W        W61285  12.331  13.464  10.757
57325W        W61286  12.457  13.702   8.134
57326W        W61287  11.678  12.442   7.393
57327W        W61288  11.017  14.528  14.292
57328W        W61289  11.393  13.421  13.815
57329W        W61290  14.098  13.151  11.585
57330W        W61291  14.228  14.236  13.612
57331W        W61292  12.146  14.227  11.138
57332W        W61293  12.229  12.379  12.121
57333W        W61294  11.744  12.227  12.285
57334W        W61295  12.735  13.042  11.719
57335W        W61296  12.410  14.134  14.074
57336W        W61297  11.059  11.695  14.037
57337W        W61298  11.821  10.975  13.839
57338W        W61299  13.515  11.363  12.726
57339W        W61300  13.164  12.234  11.296
57340W        W61301  13.734  11.668  14.387
57341W        W61302  11.100  11.460  13.512
57342W        W61303  11.199  14.079  14.533
57343W        W61304  12.721  13.469  11.265
57344W        W61305  11.153  12.252  12.958
57345W        W61306  12.046  12.143  14.195
57346W        W61307  14.505  12.002  12.694
57347W        W61308  14.269  13.045  13.553
57348W        W61309  12.577  12.378  12.580
57349W        W61310  13.123  13.717  12.949
57350W        W61311  11.623  13.151  13.181
57351W        W61312  10.982  12.679  12.752
57352W        W61313  12.018  12.651  13.944
57353W        W61314  14.289  12.434  14.198
57354W        W61315  11.905  13.878  12.643
57355W        W61316  13.026  13.567  13.777
57356W        W61317  12.246  12.207  13.002
57357W        W61318  12.538  12.991  12.645
57358W        W61319  13.535  13.764  14.493
57359W        W61320  12.614  13.084  14.503
57360W        W61321  12.595  12.800  13.981
57361W        W61322  11.004  12.191  14.503
57362W        W61323  13.836  13.726  14.102
57363W        W61324  11.417  11.308  12.100
57364W        W61325  11.944  13.566  13.099
57365W        W61326  14.407  13.349  12.389
57366W        W61327  13.820  11.749  12.956
57367W        W61328  14.105  11.702  11.051
57368W        W61329  14.570  12.503  13.357
57369W        W61330  12.537  14.210  13.110
57370W        W61331  14.311  13.676  11.548
57371W        W61332  11.440  14.462  11.302
57372W        W61333  11.833  14.508  11.978
57373W        W61334  11.630  11.262  13.404
57374W        W61335  14.253  12.280  13.679
57375W        W61336  13.658  12.702  12.138
57376W        W61337  13.624  12.390  11.165
57377W        W61338  12.832  13.534  13.305
57378W        W61339  12.638  11.864  12.504
57379W        W61340  13.238  13.951  13.498
57380W        W61341  14.109  12.742  11.920
57381W        W61342  13.011  11.400  11.936
57382W        W61343  11.668  14.094  11.619
57383W        W61344  11.039  11.593  12.218
57384W        W61345  13.825  12.200  12.692
57385W        W61346  11.283  13.817  12.607
57386W        W61347  12.624  14.167  11.477
57387W        W61348  14.016  12.193  10.941
57388W        W61349  11.039  13.951  13.105
57389W        W61350  11.830  13.523  13.585
57390W        W61351  12.203  12.883  12.204
57391W        W61352  12.225  11.288  13.297
57392W        W61353  14.454  11.050  12.594
57393W        W61354  11.673  12.922  11.062
57394W        W61355  11.328  11.955  11.241
57395W        W61356  11.390  13.911  12.035
57396W        W61357  12.521  13.394  12.283
57397W        W61358  13.853  14.253  13.997
57398W        W61359  12.779  11.895  11.681
57399W        W61360  14.162  14.293  12.453
57400W        W61361  13.839  12.146  14.051
57401W        W61362  14.552  13.802  12.185
57402W        W61363  13.179  13.094  13.669
57403W        W61364  10.945  12.645  11.875
57404W        W61365  12.056  13.060  13.448
57405W        W61366  13.260  12.324  11.826
57406W        W61367  13.137  12.814  11.930
57407W        W61368  11.480  12.234  13.404
57408W        W61369  11.465  12.110  14.326
57409W        W61370  11.355  11.027  12.485
57410W        W61371  13.123  11.374  13.046
57411W        W61372  12.771  11.559  14.209
57412W        W61373  13.126  11.708  11.387
57413W        W61374  14.309  14.101  14.141
57414W        W61375  13.276  11.182  14.180
57415W        W61376  14.295  13.483  14.302
57416W        W61377  13.725  11.650  13.898
57417W        W61378  13.525  11.588  12.168
57418W        W61379  13.918  12.722  14.572
57419W        W61380  11.658  14.298  12.558
57420W        W61381  12.316  12.015  11.544
57421W        W61382  11.885  11.299  14.208
57422W        W61383  13.937  11.783  11.889
57423W        W61384  14.304  12.265  11.834
57424W        W61385  12.047  14.482  14.305
57425W        W61386  11.973  11.018  11.540
57426W        W61387  14.294  11.552  12.575
57427W        W61388  14.444  13.801  11.020
57428W        W61389  11.351  13.004  12.722
57429W        W61390  13.268  11.591  10.952
57430W        W61391  14.402  13.923  12.672
57431W        W61392  14.441  11.117  13.422
57432W        W61393  12.886  12.329  13.976
57433W        W61394  12.979  13.668  11.679
57434W        W61395  13.379  12.962  14.419
57435W        W61396  13.053  10.939  12.728
57436W        W61397  11.665  11.842  12.791
57437W        W61398  11.219  13.042  13.565
57438W        W61399  13.078  14.235  12.271
57439W        W61400  14.272  11.832  13.143
57440W        W61401  12.909  14.179  13.910
57441W        W61402  14.252  13.238  11.115
57442W        W61403  12.687  12.721  12.176
57443W        W61404  14.539  11.232  13.917
57444W        W61405  12.688  13.067  13.511
57445W        W61406  12.905  11.953  12.956
57446W        W61407  13.757  12.251  11.794
57447W        W61408  14.044  11.984  11.436
57448W        W61409  13.853  14.024  11.825
57449W        W61410  13.687  13.627  12.621
57450W        W61411  13.583  12.706  11.599
57451W        W61412  13.016  12.916  12.585
57452W        W61413  13.897  12.704  12.652
57453W        W61414  11.272  11.719  13.076
57454W        W61415  14.050  12.771  13.903
57455W        W61416  14.401  14.389  13.049
57456W        W61417  12.331  13.833  12.451
57457W        W61418  13.338  14.366  13.775
57458W        W61419  13.332  11.696  13.539
57459W        W61420  12.539  14.404  13.600
57460W        W61421  14.236  11.358  12.066
57461W        W61422  14.027  12.677  13.367
57462W        W61423  11.010  11.998  13.405
57463W        W61424  13.870  11.793  12.423
57464W        W61425  14.281  11.944  14.200
57465W        W61426  13.166  13.643  12.418
57466W        W61427  12.422  14.234  12.031
57467W        W61428  11.537  11.414  11.289
57468W        W61429  12.641  11.068  13.099
57469W        W61430  11.669  14.188  10.947
57470W        W61431  12.043  12.654  11.698
57471W        W61432  12.697  13.283  14.011
57472W        W61433  12.527  11.641  12.001
57473W        W61434  13.883  11.238  12.429
57474W        W61435  13.603  14.520  12.757
57475W        W61436  13.015  14.168  13.097
57476W        W61437  12.411  13.205  13.058
57477W        W61438  14.181  13.928  13.184
57478W        W61439  11.875  11.431  11.953
57479W        W61440  12.397  13.728  12.913
57480W        W61441  11.880  11.659  10.978
57481W        W61442  12.681  12.268  13.372
57482W        W61443  13.529  11.134  13.242
57483W        W61444  10.949  12.977  13.127
57484W        W61445  12.653  12.795  11.285
57485W        W61446  11.921  11.110  11.055
57486W        W61447  12.659  12.191  12.106
57487W        W61448  13.629  11.167  13.805
57488W        W61449  12.217  13.179  13.914
57489W        W61450  13.021  12.961  14.131
57490W        W61451  13.638  12.991  14.024
57491W        W61452  12.922  11.131  14.529
57492W        W61453  12.144  11.747  12.922
57493W        W61454  11.570  11.703  12.320
57494W        W61455  11.356  14.415  11.996
57495W        W61456  12.688  13.745  14.121
57496W        W61457  11.723  13.230  11.480
57497W        W61458  13.403  12.615  12.701
57498W        W61459  13.683  12.414  13.100
57499W        W61460  12.888  13.088  13.034
57500W        W61461  13.358  13.462  11.166
57501W        W61462  13.030  11.483  12.494
57502W        W61463  14.509  11.761  11.762
57503W        W61464  11.003  14.350  13.793
57504W        W61465  11.420  13.576  13.325
57505W        W61466  10.987  14.422  11.557
57506W        W61467  12.886  11.692  13.363
57507W        W61468  12.249  13.715  11.212
57508W        W61469  14.154  14.097  11.398
57509W        W61470  13.129  12.750  11.412
57510W        W61471  11.972  11.941  11.929
57511W        W61472  12.804  11.851  10.981
57512W        W61473  13.388  13.416  14.159
57513W        W61474  13.741  11.322  11.776
57514W        W61475  11.071  11.170  11.224
57515W        W61476  12.357  13.489  13.514
57516W        W61477  12.156  13.405  12.606
57517W        W61478  11.898  13.357  11.004
57518W        W61479  11.139  13.598  11.772
57519W        W61480  11.643  12.668  14.214
57520W        W61481  12.347  11.228  14.400
57521W        W61482  13.056  11.370  13.756
57522W        W61483  12.251  11.138  12.037
57523W        W61484  13.310  11.215  11.542
57524W        W61485  11.255  11.147  13.119
57525W        W61486  11.303  12.110  12.489
57526W        W61487  13.992  11.218  12.895
57527W        W61488  11.414  11.716  11.709
57528W        W61489  13.985  11.404  13.325
57529W        W61490  14.381  12.607  11.010
57530W        W61491  11.673  11.365  12.829
57531W        W61492  12.787  11.937  13.769
57532W        W61493  10.935  11.627  11.247
57533W        W61494  11.721  13.016  13.808
57534W        W61495  13.079  12.414  12.987
57535W        W61496  12.946  14.493  11.283
57536W        W61497  11.092  13.000  10.980
57537W        W61498  11.827  13.411  14.106
57538W        W61499  11.348  12.578  13.737
57539W        W61500  12.339  12.683  13.531
57540W        W61501  14.107  11.042  13.793
57541W        W61502  14.505  12.652  13.784
57542W        W61503  14.493  12.852  11.470
57543W        W61504  13.356  13.184  11.569
57544W        W61505  13.830  14.484  11.264
57545W        W61506  13.007  12.474  14.406
57546W        W61507  11.337  13.441  14.446
57547W        W61508  14.543  11.363  14.398
57548W        W61509  14.261  12.291  13.019
57549W        W61510  12.569  14.421  14.496
57550W        W61511  12.424  11.050  11.223
57551W        W61512  13.963  13.649  11.166
57552W        W61513  11.732  11.742  14.052
57553W        W61514  12.166  13.736  13.914
57554W        W61515  14.292  11.727  13.712
57555W        W61516  13.503  14.386  11.680
57556W        W61517  13.742  13.005  13.047
57557W        W61518  11.992  11.421  13.714
57558W        W61519  12.461  12.490  14.471
57559W        W61520  11.964  13.669  11.665
57560W        W61521  13.719  13.167  11.929
57561W        W61522  11.487  11.793  13.653
57562W        W61523  12.816  13.855  12.117
57563W        W61524  14.566  12.415  12.298
57564W        W61525  12.788  11.048  14.017
57565W        W61526  13.568  13.753  13.096
57566W        W61527  13.871  14.097  12.804
57567W        W61528  13.090  13.899  11.232
57568W        W61529  11.100  13.791  14.074
57569W        W61530  11.843  11.783  13.312
57570W        W61531  11.813  11.131  12.422
57571W        W61532  13.434  11.973  13.114
57572W        W61533  12.232  13.144  11.314
57573W        W61534  14.230  13.086  12.813
57574W        W61535  11.557  13.844  14.236
57575W        W61536  13.944  14.526  12.033
57576W        W61537  12.043  11.546  12.478
57577W        W61538  11.812  13.039  12.568
57578W        W61539  12.125  14.450  13.318
57579W        W61540  14.192  14.546  14.350
57580W        W61541  13.351  12.734  13.283
57581W        W61542  11.200  12.532  11.198
57582W        W61543  14.334  14.190  11.895
57583W        W61544  14.171  11.514  11.514
57584W        W61545  12.310  11.033  13.917
57585W        W61546  14.016  13.835  12.375
57586W        W61547  14.045  12.391  12.280
57587W        W61548  12.162  12.064  12.496
57588W        W61549  12.407  12.326  13.820
57589W        W61550  13.518  13.479  13.683
57590W        W61551  12.168  11.933  13.795
57591W        W61552  12.147  14.399  12.411
57592W        W61553  11.464  14.358  14.045
57593W        W61554  11.576  13.719  11.175
57594W        W61555  14.093  13.477  11.985
57595W        W61556  11.697  12.269  13.871
57596W        W61557  14.470  12.199  11.352
57597W        W61558  12.215  13.256  11.823
57598W        W61559  13.314  12.638  13.904
57599W        W61560  13.205  12.266  13.448
57600W        W61561  11.765  12.638  13.477
57601W        W61562  13.975  14.526  13.306
57602W        W61563  13.766  11.160  14.300
57603W        W61564  11.430  11.310  13.887
57604W        W61565  11.769  12.333  12.940
57605W        W61566  12.138  12.147  11.062
57606W        W61567  10.941  13.906  13.607
57607W        W61568  12.526  12.615  13.050
57608W        W61569  12.349  11.640  11.155
57609W        W61570  11.484  12.456  11.936
57610W        W61571  11.255  14.308  13.373
57611W        W61572  14.050  12.534  11.481
57612W        W61573  14.145  11.450  14.167
57613W        W61574  13.581  13.659  12.130
57614W        W61575  11.179  12.583  14.307
57615W        W61576  14.145  11.047  11.603
57616W        W61577  13.665  13.522  11.614
57617W        W61578  12.567  12.580  11.699
57618W        W61579  13.754  11.384  11.222
57619W        W61580  13.819  11.991  13.408
57620W        W61581  11.528  12.584  12.615
57621W        W61582  11.822  13.523  12.264
57622W        W61583  13.585  12.143  12.229
57623W        W61584  12.608  11.522  12.925
57624W        W61585  14.570  13.433  13.436
57625W        W61586  14.488  11.420  12.997
57626W        W61587  11.027  14.250  12.373
57627W        W61588  11.536  13.437  11.909
57628W        W61589  11.451  11.054  14.462
57629W        W61590  12.570  13.907  14.564
57630W        W61591  14.325  12.875  12.354
57631W        W61592  13.679  13.052  11.234
57632W        W61593  12.974  14.573  13.446
57633W        W61594  13.831  13.295  14.483
57634W        W61595  12.646  11.005  11.763
57635W        W61596  13.359  11.874  12.622
57636W        W61597  11.045  13.461  12.954
57637W        W61598  12.298  11.423  11.595
57638W        W61599  12.102  12.907  14.444
57639W        W61600  13.096  11.888  12.158
57640W        W61601  13.301  13.298  13.280
57641W        W61602  11.455  13.903  13.715
57642W        W61603  12.046  13.886  14.438
57643W        W61604  11.897  11.683  11.452
57644W        W61605  13.414  11.825  11.777
57645W        W61606  13.372  13.933  14.014
57646W        W61607  12.057  12.525  12.613
57647W        W61608  11.712  14.223  13.478
57648W        W61609  14.457  14.340  11.079
57649W        W61610  11.320  13.012  14.075
57650W        W61611  13.315  13.274  12.763
57651W        W61612  11.751  12.923  12.005
57652W        W61613  12.122  13.930  13.400
57653W        W61614  12.500  11.349  12.441
57654W        W61615  11.111  13.333  11.371
57655W        W61616  12.630  12.284  11.241
57656W        W61617  11.276  12.833  12.260
57657W        W61618  12.566  11.475  13.724
57658W        W61619  14.238  11.184  11.151
57659W        W61620  14.331  12.930  14.250
57660W        W61621  12.985  14.187  14.402
57661W        W61622  14.543  13.281  13.924
57662W        W61623  13.951  14.079  14.535
57663W        W61624  11.690  14.535  13.013
57664W        W61625  14.549  13.157  11.887
57665W        W61626  13.079  12.424  12.400
57666W        W61627  12.846  11.036  12.290
57667W        W61628  11.905  14.020  12.127
57668W        W61629  12.404  11.761  13.352
57669W        W61630  12.104  11.130  12.821
57670W        W61631  11.167  13.952  11.369
57671W        W61632  12.983  13.316  12.087
57672W        W61633  11.858  14.111  13.966
57673W        W61634  11.335  12.934  11.662
57674W        W61635  11.220  11.477  12.661
57675W        W61636  12.768  13.442  12.718
57676W        W61637  11.020  11.296  11.738
57677W        W61638  13.684  12.502  13.665
57678W        W61639  13.561  11.888  11.237
57679W        W61640  14.078  13.560  12.885
57680W        W61641  12.739  14.044  12.716
57681W        W61642  12.151  14.148  11.627
57682W        W61643  13.433  11.051  11.057
57683W        W61644  11.233  14.311  12.798
57684W        W61645  13.430  12.069  14.433
57685W        W61646  11.413  11.599  14.432
57686W        W61647  11.144  12.199  11.765
57687W        W61648  11.835  12.188  11.490
57688W        W61649  13.598  12.515  14.307
57689W        W61650  11.941  12.796  13.016
57690W        W61651  13.415  11.082  12.136
57691W        W61652  12.546  14.513  12.639
57692W        W61653  13.760  13.975  13.576
57693W        W61654  13.344  14.124  12.687
57694W        W61655  13.363  13.104  12.281
57695W        W61656  12.825  11.329  11.352
57696W        W61657  14.506  10.957  12.074
57697W        W61658  12.194  12.592  11.237
57698W        W61659  14.360  11.929  12.227
57699W        W61660  13.052  13.099  11.104
57700W        W61661  13.988  13.299  13.852
57701W        W61662  13.642  14.000  11.319
57702W        W61663  12.257  11.675  14.225
57703W        W61664  12.077  12.259  13.466
57704W        W61665  14.169  13.754  13.743
57705W        W61666  13.269  11.704  14.120
57706W        W61667  11.113  12.175  13.897
57707W        W61668  12.873  12.652  13.623
57708W        W61669  11.230  13.410  12.280
57709W        W61670  11.377  12.707  13.170
57710W        W61671  13.694  12.993  13.520
57711W        W61672  13.466  14.373  14.331
57712W        W61673  13.362  12.112  13.884
57713W        W61674  13.639  14.166  12.289
57714W        W61675  12.641  13.886  13.612
57715W        W61676  12.126  14.241  12.881
57716W        W61677  13.931  13.412  13.300
57717W        W61678  12.981  13.484  14.437
57718W        W61679  11.586  13.437  12.776
57719W        W61680  13.932  13.196  12.421
57720W        W61681  13.573  14.262  13.172
57721W        W61682  11.551  13.991  13.042
57722W        W61683  12.572  12.043  14.252
57723W        W61684  13.023  14.209  11.763
57724W        W61685  12.331  13.464  14.401
57725W        W61686  12.457  13.702  11.778
57726W        W61687  11.678  12.442  11.037
57727W        W61688  11.017  14.528  17.936
57728W        W61689  11.393  13.421  17.459
57729W        W61690  14.098  13.151  15.229
57730W        W61691  14.228  14.236  17.256
57731W        W61692  12.146  14.227  14.782
57732W        W61693  12.229  12.379  15.765
57733W        W61694  11.744  12.227  15.929
57734W        W61695  12.735  13.042  15.363
57735W        W61696  12.410  14.134  17.718
57736W        W61697  11.059  11.695  17.681
57737W        W61698  11.821  10.975  17.483
57738W        W61699  13.515  11.363  16.370
57739W        W61700  13.164  12.234  14.940
57740W        W61701  13.734  11.668  18.031
57741W        W61702  11.100  11.460  17.156
57742W        W61703  11.199  14.079  18.177
57743W        W61704  12.721  13.469  14.909
57744W        W61705  11.153  12.252  16.602
57745W        W61706  12.046  12.143  17.839
57746W        W61707  14.505  12.002  16.338
57747W        W61708  14.269  13.045  17.197
57748W        W61709  12.577  12.378  16.224
57749W        W61710  13.123  13.717  16.593
57750W        W61711  11.623  13.151  16.825
57751W        W61712  10.982  12.679  16.396
57752W        W61713  12.018  12.651  17.588
57753W        W61714  14.289  12.434  17.842
57754W        W61715  11.905  13.878  16.287
57755W        W61716  13.026  13.567  17.421
57756W        W61717  12.246  12.207  16.646
57757W        W61718  12.538  12.991  16.289
57758W        W61719  13.535  13.764  18.137
57759W        W61720  12.614  13.084  18.147
57760W        W61721  12.595  12.800  17.625
57761W        W61722  11.004  12.191  18.147
57762W        W61723  13.836  13.726  17.746
57763W        W61724  11.417  11.308  15.744
57764W        W61725  11.944  13.566  16.743
57765W        W61726  14.407  13.349  16.033
57766W        W61727  13.820  11.749  16.600
57767W        W61728  14.105  11.702  14.695
57768W        W61729  14.570  12.503  17.001
57769W        W61730  12.537  14.210  16.754
57770W        W61731  14.311  13.676  15.192
57771W        W61732  11.440  14.462  14.946
57772W        W61733  11.833  14.508  15.622
57773W        W61734  11.630  11.262  17.048
57774W        W61735  14.253  12.280  17.323
57775W        W61736  13.658  12.702  15.782
57776W        W61737  13.624  12.390  14.809
57777W        W61738  12.832  13.534  16.949
57778W        W61739  12.638  11.864  16.148
57779W        W61740  13.238  13.951  17.142
57780W        W61741  14.109  12.742  15.564
57781W        W61742  13.011  11.400  15.580
57782W        W61743  11.668  14.094  15.263
57783W        W61744  11.039  11.593  15.862
57784W        W61745  13.825  12.200  16.336
57785W        W61746  11.283  13.817  16.251
57786W        W61747  12.624  14.167  15.121
57787W        W61748  14.016  12.193  14.585
57788W        W61749  11.039  13.951  16.749
57789W        W61750  11.830  13.523  17.229
57790W        W61751  12.203  12.883  15.848
57791W        W61752  12.225  11.288  16.941
57792W        W61753  14.454  11.050  16.238
57793W        W61754  11.673  12.922  14.706
57794W        W61755  11.328  11.955  14.885
57795W        W61756  11.390  13.911  15.679
57796W        W61757  12.521  13.394  15.927
57797W        W61758  13.853  14.253  17.641
57798W        W61759  12.779  11.895  15.325
57799W        W61760  14.162  14.293  16.097
57800W        W61761  13.839  12.146  17.695
57801W        W61762  14.552  13.802  15.829
57802W        W61763  13.179  13.094  17.313
57803W        W61764  10.945  12.645  15.519
57804W        W61765  12.056  13.060  17.092
57805W        W61766  13.260  12.324  15.470
57806W        W61767  13.137  12.814  15.574
57807W        W61768  11.480  12.234  17.048
57808W        W61769  11.465  12.110  17.970
57809W        W61770  11.355  11.027  16.129
57810W        W61771  13.123  11.374  16.690
57811W        W61772  12.771  11.559  17.853
57812W        W61773  13.126  11.708  15.031
57813W        W61774  14.309  14.101  17.785
57814W        W61775  13.276  11.182  17.824
57815W        W61776  14.295  13.483  17.946
57816W        W61777  13.725  11.650  17.542
57817W        W61778  13.525  11.588  15.812
57818W        W61779  13.918  12.722  18.216
57819W        W61780  11.658  14.298  16.202
57820W        W61781  12.316  12.015  15.188
57821W        W61782  11.885  11.299  17.852
57822W        W61783  13.937  11.783  15.533
57823W        W61784  14.304  12.265  15.478
57824W        W61785  12.047  14.482  17.949
57825W        W61786  11.973  11.018  15.184
57826W        W61787  14.294  11.552  16.219
57827W        W61788  14.444  13.801  14.664
57828W        W61789  11.351  13.004  16.366
57829W        W61790  13.268  11.591  14.596
57830W        W61791  14.402  13.923  16.316
57831W        W61792  14.441  11.117  17.066
57832W        W61793  12.886  12.329  17.620
57833W        W61794  12.979  13.668  15.323
57834W        W61795  13.379  12.962  18.063
57835W        W61796  13.053  10.939  16.372
57836W        W61797  11.665  11.842  16.435
57837W        W61798  11.219  13.042  17.209
57838W        W61799  13.078  14.235  15.915
57839W        W61800  14.272  11.832  16.787
57840W        W61801  12.909  14.179  17.554
57841W        W61802  14.252  13.238  14.759
57842W        W61803  12.687  12.721  15.820
57843W        W61804  14.539  11.232  17.561
57844W        W61805  12.688  13.067  17.155
57845W        W61806  12.905  11.953  16.600
57846W        W61807  13.757  12.251  15.438
57847W        W61808  14.044  11.984  15.080
57848W        W61809  13.853  14.024  15.469
57849W        W61810  13.687  13.627  16.265
57850W        W61811  13.583  12.706  15.243
57851W        W61812  13.016  12.916  16.229
57852W        W61813  13.897  12.704  16.296
57853W        W61814  11.272  11.719  16.720
57854W        W61815  14.050  12.771  17.547
57855W        W61816  14.401  14.389  16.693
57856W        W61817  12.331  13.833  16.095
57857W        W61818  13.338  14.366  17.419
57858W        W61819  13.332  11.696  17.183
57859W        W61820  12.539  14.404  17.244
57860W        W61821  14.236  11.358  15.710
57861W        W61822  14.027  12.677  17.011
57862W        W61823  11.010  11.998  17.049
57863W        W61824  13.870  11.793  16.067
57864W        W61825  14.281  11.944  17.844
57865W        W61826  13.166  13.643  16.062
57866W        W61827  12.422  14.234  15.675
57867W        W61828  11.537  11.414  14.933
57868W        W61829  12.641  11.068  16.743
57869W        W61830  11.669  14.188  14.591
57870W        W61831  12.043  12.654  15.342
57871W        W61832  12.697  13.283  17.655
57872W        W61833  12.527  11.641  15.645
57873W        W61834  13.883  11.238  16.073
57874W        W61835  13.603  14.520  16.401
57875W        W61836  13.015  14.168  16.741
57876W        W61837  12.411  13.205  16.702
57877W        W61838  14.181  13.928  16.828
57878W        W61839  11.875  11.431  15.597
57879W        W61840  12.397  13.728  16.557
57880W        W61841  11.880  11.659  14.622
57881W        W61842  12.681  12.268  17.016
57882W        W61843  13.529  11.134  16.886
57883W        W61844  10.949  12.977  16.771
57884W        W61845  12.653  12.795  14.929
57885W        W61846  11.921  11.110  14.699
57886W        W61847  12.659  12.191  15.750
57887W        W61848  13.629  11.167  17.449
57888W        W61849  12.217  13.179  17.558
57889W        W61850  13.021  12.961  17.775
57890W        W61851  13.638  12.991  17.668
57891W        W61852  12.922  11.131  18.173
57892W        W61853  12.144  11.747  16.566
57893W        W61854  11.570  11.703  15.964
57894W        W61855  11.356  14.415  15.640
57895W        W61856  12.688  13.745  17.765
57896W        W61857  11.723  13.230  15.124
57897W        W61858  13.403  12.615  16.345
57898W        W61859  13.683  12.414  16.744
57899W        W61860  12.888  13.088  16.678
57900W        W61861  13.358  13.462  14.810
57901W        W61862  13.030  11.483  16.138
57902W        W61863  14.509  11.761  15.406
57903W        W61864  11.003  14.350  17.437
57904W        W61865  11.420  13.576  16.969
57905W        W61866  10.987  14.422  15.201
57906W        W61867  12.886  11.692  17.007
57907W        W61868  12.249  13.715  14.856
57908W        W61869  14.154  14.097  15.042
57909W        W61870  13.129  12.750  15.056
57910W        W61871  11.972  11.941  15.573
57911W        W61872  12.804  11.851  14.625
57912W        W61873  13.388  13.416  17.803
57913W        W61874  13.741  11.322  15.420
57914W        W61875  11.071  11.170  14.868
57915W        W61876  12.357  13.489  17.158
57916W        W61877  12.156  13.405  16.250
57917W        W61878  11.898  13.357  14.648
57918W        W61879  11.139  13.598  15.416
57919W        W61880  11.643  12.668  17.858
57920W        W61881  12.347  11.228  18.044
57921W        W61882  13.056  11.370  17.400
57922W        W61883  12.251  11.138  15.681
57923W        W61884  13.310  11.215  15.186
57924W        W61885  11.255  11.147  16.763
57925W        W61886  11.303  12.110  16.133
57926W        W61887  13.992  11.218  16.539
57927W        W61888  11.414  11.716  15.353
57928W        W61889  13.985  11.404  16.969
57929W        W61890  14.381  12.607  14.654
57930W        W61891  11.673  11.365  16.473
57931W        W61892  12.787  11.937  17.413
57932W        W61893  10.935  11.627  14.891
57933W        W61894  11.721  13.016  17.452
57934W        W61895  13.079  12.414  16.631
57935W        W61896  12.946  14.493  14.927
57936W        W61897  11.092  13.000  14.624
57937W        W61898  11.827  13.411  17.750
57938W        W61899  11.348  12.578  17.381
57939W        W61900  12.339  12.683  17.175
57940W        W61901  14.107  11.042  17.437
57941W        W61902  14.505  12.652  17.428
57942W        W61903  14.493  12.852  15.114
57943W        W61904  13.356  13.184  15.213
57944W        W61905  13.830  14.484  14.908
57945W        W61906  13.007  12.474  18.050
57946W        W61907  11.337  13.441  18.090
57947W        W61908  14.543  11.363  18.042
57948W        W61909  14.261  12.291  16.663
57949W        W61910  12.569  14.421  18.140
57950W        W61911  12.424  11.050  14.867
57951W        W61912  13.963  13.649  14.810
57952W        W61913  11.732  11.742  17.696
57953W        W61914  12.166  13.736  17.558
57954W        W61915  14.292  11.727  17.356
57955W        W61916  13.503  14.386  15.324
57956W        W61917  13.742  13.005  16.691
57957W        W61918  11.992  11.421  17.358
57958W        W61919  12.461  12.490  18.115
57959W        W61920  11.964  13.669  15.309
57960W        W61921  13.719  13.167  15.573
57961W        W61922  11.487  11.793  17.297
57962W        W61923  12.816  13.855  15.761
57963W        W61924  14.566  12.415  15.942
57964W        W61925  12.788  11.048  17.661
57965W        W61926  13.568  13.753  16.740
57966W        W61927  13.871  14.097  16.448
57967W        W61928  13.090  13.899  14.876
57968W        W61929  11.100  13.791  17.718
57969W        W61930  11.843  11.783  16.956
57970W        W61931  11.813  11.131  16.066
57971W        W61932  13.434  11.973  16.758
57972W        W61933  12.232  13.144  14.958
57973W        W61934  14.230  13.086  16.457
57974W        W61935  11.557  13.844  17.880
57975W        W61936  13.944  14.526  15.677
57976W        W61937  12.043  11.546  16.122
57977W        W61938  11.812  13.039  16.212
57978W        W61939  12.125  14.450  16.962
57979W        W61940  14.192  14.546  17.994
57980W        W61941  13.351  12.734  16.927
57981W        W61942  11.200  12.532  14.842
57982W        W61943  14.334  14.190  15.539
57983W        W61944  14.171  11.514  15.158
57984W        W61945  12.310  11.033  17.561
57985W        W61946  14.016  13.835  16.019
57986W        W61947  14.045  12.391  15.924
57987W        W61948  12.162  12.064  16.140
57988W        W61949  12.407  12.326  17.464
57989W        W61950  13.518  13.479  17.327
57990W        W61951  12.168  11.933  17.439
57991W        W61952  12.147  14.399  16.055
57992W        W61953  11.464  14.358  17.689
57993W        W61954  11.576  13.719  14.819
57994W        W61955  14.093  13.477  15.629
57995W        W61956  11.697  12.269  17.515
57996W        W61957  14.470  12.199  14.996
57997W        W61958  12.215  13.256  15.467
57998W        W61959  13.314  12.638  17.548
57999W        W61960  13.205  12.266  17.092
58000W        W61961  11.765  12.638  17.121
58001W        W61962  13.975  14.526  16.950
58002W        W61963  13.766  11.160  17.944
58003W        W61964  11.430  11.310  17.531
58004W        W61965  11.769  12.333  16.584
58005W        W61966  12.138  12.147  14.706
58006W        W61967  10.941  13.906  17.251
58007W        W61968  12.526  12.615  16.694
58008W        W61969  12.349  11.640  14.799
58009W        W61970  11.484  12.456  15.580
58010W        W61971  11.255  14.308  17.017
58011W        W61972  14.050  12.534  15.125
58012W        W61973  14.145  11.450  17.811
58013W        W61974  13.581  13.659  15.774
58014W        W61975  11.179  12.583  17.951
58015W        W61976  14.145  11.047  15.247
58016W        W61977  13.665  13.522  15.258
58017W        W61978  12.567  12.580  15.343
58018W        W61979  13.754  11.384  14.866
58019W        W61980  13.819  11.991  17.052
58020W        W61981  11.528  12.584  16.259
58021W        W61982  11.822  13.523  15.908
58022W        W61983  13.585  12.143  15.873
58023W        W61984  12.608  11.522  16.569
58024W        W61985  14.570  13.433  17.080
58025W        W61986  14.488  11.420  16.641
58026W        W61987  11.027  14.250  16.017
58027W        W61988  11.536  13.437  15.553
58028W        W61989  11.451  11.054  18.106
58029W        W61990  12.570  13.907  18.208
58030W        W61991  14.325  12.875  15.998
58031W        W61992  13.679  13.052  14.878
58032W        W61993  12.974  14.573  17.090
58033W        W61994  13.831  13.295  18.127
58034W        W61995  12.646  11.005  15.407
58035W        W61996  13.359  11.874  16.266
58036W        W61997  11.045  13.461  16.598
58037W        W61998  12.298  11.423  15.239
58038W        W61999  12.102  12.907  18.088
58039W        W62000  13.096  11.888  15.802
58040W        W62001  13.301  13.298  16.924
58041W        W62002  11.455  13.903  17.359
58042W        W62003  12.046  13.886  18.082
58043W        W62004  11.897  11.683  15.096
58044W        W62005  13.414  11.825  15.421
58045W        W62006  13.372  13.933  17.658
58046W        W62007  12.057  12.525  16.257
58047W        W62008  11.712  14.223  17.122
58048W        W62009  14.457  14.340  14.723
58049W        W62010  11.320  13.012  17.719
58050W        W62011  13.315  13.274  16.407
58051W        W62012  11.751  12.923  15.649
58052W        W62013  12.122  13.930  17.044
58053W        W62014  12.500  11.349  16.085
58054W        W62015  11.111  13.333  15.015
58055W        W62016  12.630  12.284  14.885
58056W        W62017  11.276  12.833  15.904
58057W        W62018  12.566  11.475  17.368
58058W        W62019  14.238  11.184  14.795
58059W        W62020  14.331  12.930  17.894
58060W        W62021  12.985  14.187  18.046
58061W        W62022  14.543  13.281  17.568
58062W        W62023  13.951  14.079  18.179
58063W        W62024  11.690  14.535  16.657
58064W        W62025  14.549  13.157  15.531
58065W        W62026  13.079  12.424  16.044
58066W        W62027  12.846  11.036  15.934
58067W        W62028  11.905  14.020  15.771
58068W        W62029  12.404  11.761  16.996
58069W        W62030  12.104  11.130  16.465
58070W        W62031  11.167  13.952  15.013
58071W        W62032  12.983  13.316  15.731
58072W        W62033  11.858  14.111  17.610
58073W        W62034  11.335  12.934  15.306
58074W        W62035  11.220  11.477  16.305
58075W        W62036  12.768  13.442  16.362
58076W        W62037  11.020  11.296  15.382
58077W        W62038  13.684  12.502  17.309
58078W        W62039  13.561  11.888  14.881
58079W        W62040  14.078  13.560  16.529
58080W        W62041  12.739  14.044  16.360
58081W        W62042  12.151  14.148  15.271
58082W        W62043  13.433  11.051  14.701
58083W        W62044  11.233  14.311  16.442
58084W        W62045  13.430  12.069  18.077
58085W        W62046  11.413  11.599  18.076
58086W        W62047  11.144  12.199  15.409
58087W        W62048  11.835  12.188  15.134
58088W        W62049  13.598  12.515  17.951
58089W        W62050  11.941  12.796  16.660
58090W        W62051  13.415  11.082  15.780
58091W        W62052  12.546  14.513  16.283
58092W        W62053  13.760  13.975  17.220
58093W        W62054  13.344  14.124  16.331
58094W        W62055  13.363  13.104  15.925
58095W        W62056  12.825  11.329  14.996
58096W        W62057  14.506  10.957  15.718
58097W        W62058  12.194  12.592  14.881
58098W        W62059  14.360  11.929  15.871
58099W        W62060  13.052  13.099  14.748
58100W        W62061  13.988  13.299  17.496
58101W        W62062  13.642  14.000  14.963
58102W        W62063  12.257  11.675  17.869
58103W        W62064  12.077  12.259  17.110
58104W        W62065  14.169  13.754  17.387
58105W        W62066  13.269  11.704  17.764
58106W        W62067  11.113  12.175  17.541
58107W        W62068  12.873  12.652  17.267
58108W        W62069  11.230  13.410  15.924
58109W        W62070  11.377  12.707  16.814
58110W        W62071  13.694  12.993  17.164
58111W        W62072  13.466  14.373  17.975
58112W        W62073  13.362  12.112  17.528
58113W        W62074  13.639  14.166  15.933
58114W        W62075  12.641  13.886  17.256
58115W        W62076  12.126  14.241  16.525
58116W        W62077  13.931  13.412  16.944
58117W        W62078  12.981  13.484  18.081
58118W        W62079  11.586  13.437  16.420
58119W        W62080  13.932  13.196  16.065
58120W        W62081  13.573  14.262  16.816
58121W        W62082  11.551  13.991  16.686
58122W        W62083  12.572  12.043  17.896
58123W        W62084  13.023  14.209  15.407
58124W        W62085  12.331  13.464  18.045
58125W        W62086  12.457  13.702  15.422
58126W        W62087  11.678  12.442  14.681
58127W        W62088  11.017  14.528  21.580
58128W        W62089  11.393  13.421  21.103
58129W        W62090  14.098  13.151  18.873
58130W        W62091  14.228  14.236  20.900
58131W        W62092  12.146  14.227  18.426
58132W        W62093  12.229  12.379  19.409
58133W        W62094  11.744  12.227  19.573
58134W        W62095  12.735  13.042  19.007
58135W        W62096  12.410  14.134  21.362
58136W        W62097  11.059  11.695  21.325
58137W        W62098  11.821  10.975  21.127
58138W        W62099  13.515  11.363  20.014
58139W        W62100  13.164  12.234  18.584
58140W        W62101  13.734  11.668  21.675
58141W        W62102  11.100  11.460  20.800
58142W        W62103  11.199  14.079  21.821
58143W        W62104  12.721  13.469  18.553
58144W        W62105  11.153  12.252  20.246
58145W        W62106  12.046  12.143  21.483
58146W        W62107  14.505  12.002  19.982
58147W        W62108  14.269  13.045  20.841
58148W        W62109  12.577  12.378  19.868
58149W        W62110  13.123  13.717  20.237
58150W        W62111  11.623  13.151  20.469
58151W        W62112  10.982  12.679  20.040
58152W        W62113  12.018  12.651  21.232
58153W        W62114  14.289  12.434  21.486
58154W        W62115  11.905  13.878  19.931
58155W        W62116  13.026  13.567  21.065
58156W        W62117  12.246  12.207  20.290
58157W        W62118  12.538  12.991  19.933
58158W        W62119  13.535  13.764  21.781
58159W        W62120  12.614  13.084  21.791
58160W        W62121  12.595  12.800  21.269
58161W        W62122  11.004  12.191  21.791
58162W        W62123  13.836  13.726  21.390
58163W        W62124  11.417  11.308  19.388
58164W        W62125  11.944  13.566  20.387
58165W        W62126  14.407  13.349  19.677
58166W        W62127  13.820  11.749  20.244
58167W        W62128  14.105  11.702  18.339
58168W        W62129  14.570  12.503  20.645
58169W        W62130  12.537  14.210  20.398
58170W        W62131  14.311  13.676  18.836
58171W        W62132  11.440  14.462  18.590
58172W        W62133  11.833  14.508  19.266
58173W        W62134  11.630  11.262  20.692
58174W        W62135  14.253  12.280  20.967
58175W        W62136  13.658  12.702  19.426
58176W        W62137  13.624  12.390  18.453
58177W        W62138  12.832  13.534  20.593
58178W        W62139  12.638  11.864  19.792
58179W        W62140  13.238  13.951  20.786
58180W        W62141  14.109  12.742  19.208
58181W        W62142  13.011  11.400  19.224
58182W        W62143  11.668  14.094  18.907
58183W        W62144  11.039  11.593  19.506
58184W        W62145  13.825  12.200  19.980
58185W        W62146  11.283  13.817  19.895
58186W        W62147  12.624  14.167  18.765
58187W        W62148  14.016  12.193  18.229
58188W        W62149  11.039  13.951  20.393
58189W        W62150  11.830  13.523  20.873
58190W        W62151  12.203  12.883  19.492
58191W        W62152  12.225  11.288  20.585
58192W        W62153  14.454  11.050  19.882
58193W        W62154  11.673  12.922  18.350
58194W        W62155  11.328  11.955  18.529
58195W        W62156  11.390  13.911  19.323
58196W        W62157  12.521  13.394  19.571
58197W        W62158  13.853  14.253  21.285
58198W        W62159  12.779  11.895  18.969
58199W        W62160  14.162  14.293  19.741
58200W        W62161  13.839  12.146  21.339
58201W        W62162  14.552  13.802  19.473
58202W        W62163  13.179  13.094  20.957
58203W        W62164  10.945  12.645  19.163
58204W        W62165  12.056  13.060  20.736
58205W        W62166  13.260  12.324  19.114
58206W        W62167  13.137  12.814  19.218
58207W        W62168  11.480  12.234  20.692
58208W        W62169  11.465  12.110  21.614
58209W        W62170  11.355  11.027  19.773
58210W        W62171  13.123  11.374  20.334
58211W        W62172  12.771  11.559  21.497
58212W        W62173  13.126  11.708  18.675
58213W        W62174  14.309  14.101  21.429
58214W        W62175  13.276  11.182  21.468
58215W        W62176  14.295  13.483  21.590
58216W        W62177  13.725  11.650  21.186
58217W        W62178  13.525  11.588  19.456
58218W        W62179  13.918  12.722  21.860
58219W        W62180  11.658  14.298  19.846
58220W        W62181  12.316  12.015  18.832
58221W        W62182  11.885  11.299  21.496
58222W        W62183  13.937  11.783  19.177
58223W        W62184  14.304  12.265  19.122
58224W        W62185  12.047  14.482  21.593
58225W        W62186  11.973  11.018  18.828
58226W        W62187  14.294  11.552  19.863
58227W        W62188  14.444  13.801  18.308
58228W        W62189  11.351  13.004  20.010
58229W        W62190  13.268  11.591  18.240
58230W        W62191  14.402  13.923  19.960
58231W        W62192  14.441  11.117  20.710
58232W        W62193  12.886  12.329  21.264
58233W        W62194  12.979  13.668  18.967
58234W        W62195  13.379  12.962  21.707
58235W        W62196  13.053  10.939  20.016
58236W        W62197  11.665  11.842  20.079
58237W        W62198  11.219  13.042  20.853
58238W        W62199  13.078  14.235  19.559
58239W        W62200  14.272  11.832  20.431
58240W        W62201  12.909  14.179  21.198
58241W        W62202  14.252  13.238  18.403
58242W        W62203  12.687  12.721  19.464
58243W        W62204  14.539  11.232  21.205
58244W        W62205  12.688  13.067  20.799
58245W        W62206  12.905  11.953  20.244
58246W        W62207  13.757  12.251  19.082
58247W        W62208  14.044  11.984  18.724
58248W        W62209  13.853  14.024  19.113
58249W        W62210  13.687  13.627  19.909
58250W        W62211  13.583  12.706  18.887
58251W        W62212  13.016  12.916  19.873
58252W        W62213  13.897  12.704  19.940
58253W        W62214  11.272  11.719  20.364
58254W        W62215  14.050  12.771  21.191
58255W        W62216  14.401  14.389  20.337
58256W        W62217  12.331  13.833  19.739
58257W        W62218  13.338  14.366  21.063
58258W        W62219  13.332  11.696  20.827
58259W        W62220  12.539  14.404  20.888
58260W        W62221  14.236  11.358  19.354
58261W        W62222  14.027  12.677  20.655
58262W        W62223  11.010  11.998  20.693
58263W        W62224  13.870  11.793  19.711
58264W        W62225  14.281  11.944  21.488
58265W        W62226  13.166  13.643  19.706
58266W        W62227  12.422  14.234  19.319
58267W        W62228  11.537  11.414  18.577
58268W        W62229  12.641  11.068  20.387
58269W        W62230  11.669  14.188  18.235
58270W        W62231  12.043  12.654  18.986
58271W        W62232  12.697  13.283  21.299
58272W        W62233  12.527  11.641  19.289
58273W        W62234  13.883  11.238  19.717
58274W        W62235  13.603  14.520  20.045
58275W        W62236  13.015  14.168  20.385
58276W        W62237  12.411  13.205  20.346
58277W        W62238  14.181  13.928  20.472
58278W        W62239  11.875  11.431  19.241
58279W        W62240  12.397  13.728  20.201
58280W        W62241  11.880  11.659  18.266
58281W        W62242  12.681  12.268  20.660
58282W        W62243  13.529  11.134  20.530
58283W        W62244  10.949  12.977  20.415
58284W        W62245  12.653  12.795  18.573
58285W        W62246  11.921  11.110  18.343
58286W        W62247  12.659  12.191  19.394
58287W        W62248  13.629  11.167  21.093
58288W        W62249  12.217  13.179  21.202
58289W        W62250  13.021  12.961  21.419
58290W        W62251  13.638  12.991  21.312
58291W        W62252  12.922  11.131  21.817
58292W        W62253  12.144  11.747  20.210
58293W        W62254  11.570  11.703  19.608
58294W        W62255  11.356  14.415  19.284
58295W        W62256  12.688  13.745  21.409
58296W        W62257  11.723  13.230  18.768
58297W        W62258  13.403  12.615  19.989
58298W        W62259  13.683  12.414  20.388
58299W        W62260  12.888  13.088  20.322
58300W        W62261  13.358  13.462  18.454
58301W        W62262  13.030  11.483  19.782
58302W        W62263  14.509  11.761  19.050
58303W        W62264  11.003  14.350  21.081
58304W        W62265  11.420  13.576  20.613
58305W        W62266  10.987  14.422  18.845
58306W        W62267  12.886  11.692  20.651
58307W        W62268  12.249  13.715  18.500
58308W        W62269  14.154  14.097  18.686
58309W        W62270  13.129  12.750  18.700
58310W        W62271  11.972  11.941  19.217
58311W        W62272  12.804  11.851  18.269
58312W        W62273  13.388  13.416  21.447
58313W        W62274  13.741  11.322  19.064
58314W        W62275  11.071  11.170  18.512
58315W        W62276  12.357  13.489  20.802
58316W        W62277  12.156  13.405  19.894
58317W        W62278  11.898  13.357  18.292
58318W        W62279  11.139  13.598  19.060
58319W        W62280  11.643  12.668  21.502
58320W        W62281  12.347  11.228  21.688
58321W        W62282  13.056  11.370  21.044
58322W        W62283  12.251  11.138  19.325
58323W        W62284  13.310  11.215  18.830
58324W        W62285  11.255  11.147  20.407
58325W        W62286  11.303  12.110  19.777
58326W        W62287  13.992  11.218  20.183
58327W        W62288  11.414  11.716  18.997
58328W        W62289  13.985  11.404  20.613
58329W        W62290  14.381  12.607  18.298
58330W        W62291  11.673  11.365  20.117
58331W        W62292  12.787  11.937  21.057
58332W        W62293  10.935  11.627  18.535
58333W        W62294  11.721  13.016  21.096
58334W        W62295  13.079  12.414  20.275
58335W        W62296  12.946  14.493  18.571
58336W        W62297  11.092  13.000  18.268
58337W        W62298  11.827  13.411  21.394
58338W        W62299  11.348  12.578  21.025
58339W        W62300  12.339  12.683  20.819
58340W        W62301  14.107  11.042  21.081
58341W        W62302  14.505  12.652  21.072
58342W        W62303  14.493  12.852  18.758
58343W        W62304  13.356  13.184  18.857
58344W        W62305  13.830  14.484  18.552
58345W        W62306  13.007  12.474  21.694
58346W        W62307  11.337  13.441  21.734
58347W        W62308  14.543  11.363  21.686
58348W        W62309  14.261  12.291  20.307
58349W        W62310  12.569  14.421  21.784
58350W        W62311  12.424  11.050  18.511
58351W        W62312  13.963  13.649  18.454
58352W        W62313  11.732  11.742  21.340
58353W        W62314  12.166  13.736  21.202
58354W        W62315  14.292  11.727  21.000
58355W        W62316  13.503  14.386  18.968
58356W        W62317  13.742  13.005  20.335
58357W        W62318  11.992  11.421  21.002
58358W        W62319  12.461  12.490  21.759
58359W        W62320  11.964  13.669  18.953
58360W        W62321  13.719  13.167  19.217
58361W        W62322  11.487  11.793  20.941
58362W        W62323  12.816  13.855  19.405
58363W        W62324  14.566  12.415  19.586
58364W        W62325  12.788  11.048  21.305
58365W        W62326  13.568  13.753  20.384
58366W        W62327  13.871  14.097  20.092
58367W        W62328  13.090  13.899  18.520
58368W        W62329  11.100  13.791  21.362
58369W        W62330  11.843  11.783  20.600
58370W        W62331  11.813  11.131  19.710
58371W        W62332  13.434  11.973  20.402
58372W        W62333  12.232  13.144  18.602
58373W        W62334  14.230  13.086  20.101
58374W        W62335  11.557  13.844  21.524
58375W        W62336  13.944  14.526  19.321
58376W        W62337  12.043  11.546  19.766
58377W        W62338  11.812  13.039  19.856
58378W        W62339  12.125  14.450  20.606
58379W        W62340  14.192  14.546  21.638
58380W        W62341  13.351  12.734  20.571
58381W        W62342  11.200  12.532  18.486
58382W        W62343  14.334  14.190  19.183
58383W        W62344  14.171  11.514  18.802
58384W        W62345  12.310  11.033  21.205
58385W        W62346  14.016  13.835  19.663
58386W        W62347  14.045  12.391  19.568
58387W        W62348  12.162  12.064  19.784
58388W        W62349  12.407  12.326  21.108
58389W        W62350  13.518  13.479  20.971
58390W        W62351  12.168  11.933  21.083
58391W        W62352  12.147  14.399  19.699
58392W        W62353  11.464  14.358  21.333
58393W        W62354  11.576  13.719  18.463
58394W        W62355  14.093  13.477  19.273
58395W        W62356  11.697  12.269  21.159
58396W        W62357  14.470  12.199  18.640
58397W        W62358  12.215  13.256  19.111
58398W        W62359  13.314  12.638  21.192
58399W        W62360  13.205  12.266  20.736
58400W        W62361  11.765  12.638  20.765
58401W        W62362  13.975  14.526  20.594
58402W        W62363  13.766  11.160  21.588
58403W        W62364  11.430  11.310  21.175
58404W        W62365  11.769  12.333  20.228
58405W        W62366  12.138  12.147  18.350
58406W        W62367  10.941  13.906  20.895
58407W        W62368  12.526  12.615  20.338
58408W        W62369  12.349  11.640  18.443
58409W        W62370  11.484  12.456  19.224
58410W        W62371  11.255  14.308  20.661
58411W        W62372  14.050  12.534  18.769
58412W        W62373  14.145  11.450  21.455
58413W        W62374  13.581  13.659  19.418
58414W        W62375  11.179  12.583  21.595
58415W        W62376  14.145  11.047  18.891
58416W        W62377  13.665  13.522  18.902
58417W        W62378  12.567  12.580  18.987
58418W        W62379  13.754  11.384  18.510
58419W        W62380  13.819  11.991  20.696
58420W        W62381  11.528  12.584  19.903
58421W        W62382  11.822  13.523  19.552
58422W        W62383  13.585  12.143  19.517
58423W        W62384  12.608  11.522  20.213
58424W        W62385  14.570  13.433  20.724
58425W        W62386  14.488  11.420  20.285
58426W        W62387  11.027  14.250  19.661
58427W        W62388  11.536  13.437  19.197
58428W        W62389  11.451  11.054  21.750
58429W        W62390  12.570  13.907  21.852
58430W        W62391  14.325  12.875  19.642
58431W        W62392  13.679  13.052  18.522
58432W        W62393  12.974  14.573  20.734
58433W        W62394  13.831  13.295  21.771
58434W        W62395  12.646  11.005  19.051
58435W        W62396  13.359  11.874  19.910
58436W        W62397  11.045  13.461  20.242
58437W        W62398  12.298  11.423  18.883
58438W        W62399  12.102  12.907  21.732
58439W        W62400  13.096  11.888  19.446
58440W        W62401  13.301  13.298  20.568
58441W        W62402  11.455  13.903  21.003
58442W        W62403  12.046  13.886  21.726
58443W        W62404  11.897  11.683  18.740
58444W        W62405  13.414  11.825  19.065
58445W        W62406  13.372  13.933  21.302
58446W        W62407  12.057  12.525  19.901
58447W        W62408  11.712  14.223  20.766
58448W        W62409  14.457  14.340  18.367
58449W        W62410  11.320  13.012  21.363
58450W        W62411  13.315  13.274  20.051
58451W        W62412  11.751  12.923  19.293
58452W        W62413  12.122  13.930  20.688
58453W        W62414  12.500  11.349  19.729
58454W        W62415  11.111  13.333  18.659
58455W        W62416  12.630  12.284  18.529
58456W        W62417  11.276  12.833  19.548
58457W        W62418  12.566  11.475  21.012
58458W        W62419  14.238  11.184  18.439
58459W        W62420  14.331  12.930  21.538
58460W        W62421  12.985  14.187  21.690
58461W        W62422  14.543  13.281  21.212
58462W        W62423  13.951  14.079  21.823
58463W        W62424  11.690  14.535  20.301
58464W        W62425  14.549  13.157  19.175
58465W        W62426  13.079  12.424  19.688
58466W        W62427  12.846  11.036  19.578
58467W        W62428  11.905  14.020  19.415
58468W        W62429  12.404  11.761  20.640
58469W        W62430  12.104  11.130  20.109
58470W        W62431  11.167  13.952  18.657
58471W        W62432  12.983  13.316  19.375
58472W        W62433  11.858  14.111  21.254
58473W        W62434  11.335  12.934  18.950
58474W        W62435  11.220  11.477  19.949
58475W        W62436  12.768  13.442  20.006
58476W        W62437  11.020  11.296  19.026
58477W        W62438  13.684  12.502  20.953
58478W        W62439  13.561  11.888  18.525
58479W        W62440  14.078  13.560  20.173
58480W        W62441  12.739  14.044  20.004
58481W        W62442  12.151  14.148  18.915
58482W        W62443  13.433  11.051  18.345
58483W        W62444  11.233  14.311  20.086
58484W        W62445  13.430  12.069  21.721
58485W        W62446  11.413  11.599  21.720
58486W        W62447  11.144  12.199  19.053
58487W        W62448  11.835  12.188  18.778
58488W        W62449  13.598  12.515  21.595
58489W        W62450  11.941  12.796  20.304
58490W        W62451  13.415  11.082  19.424
58491W        W62452  12.546  14.513  19.927
58492W        W62453  13.760  13.975  20.864
58493W        W62454  13.344  14.124  19.975
58494W        W62455  13.363  13.104  19.569
58495W        W62456  12.825  11.329  18.640
58496W        W62457  14.506  10.957  19.362
58497W        W62458  12.194  12.592  18.525
58498W        W62459  14.360  11.929  19.515
58499W        W62460  13.052  13.099  18.392
58500W        W62461  13.988  13.299  21.140
58501W        W62462  13.642  14.000  18.607
58502W        W62463  12.257  11.675  21.513
58503W        W62464  12.077  12.259  20.754
58504W        W62465  14.169  13.754  21.031
58505W        W62466  13.269  11.704  21.408
58506W        W62467  11.113  12.175  21.185
58507W        W62468  12.873  12.652  20.911
58508W        W62469  11.230  13.410  19.568
58509W        W62470  11.377  12.707  20.458
58510W        W62471  13.694  12.993  20.808
58511W        W62472  13.466  14.373  21.619
58512W        W62473  13.362  12.112  21.172
58513W        W62474  13.639  14.166  19.577
58514W        W62475  12.641  13.886  20.900
58515W        W62476  12.126  14.241  20.169
58516W        W62477  13.931  13.412  20.588
58517W        W62478  12.981  13.484  21.725
58518W        W62479  11.586  13.437  20.064
58519W        W62480  13.932  13.196  19.709
58520W        W62481  13.573  14.262  20.460
58521W        W62482  11.551  13.991  20.330
58522W        W62483  12.572  12.043  21.540
58523W        W62484  13.023  14.209  19.051
58524W        W62485  12.331  13.464  21.689
58525W        W62486  12.457  13.702  19.066
58526W        W62487  11.678  12.442  18.325
58527W        W62488  14.098  13.151  22.518
58528W        W62489  12.146  14.227  22.071
58529W        W62490  12.229  12.379  23.054
58530W        W62491  11.744  12.227  23.218
58531W        W62492  12.735  13.042  22.652
58532W        W62493  13.164  12.234  22.229
58533W        W62494  12.721  13.469  22.198
58534W        W62495  11.417  11.308  23.033
58535W        W62496  14.105  11.702  21.984
58536W        W62497  14.311  13.676  22.481
58537W        W62498  11.440  14.462  22.235
58538W        W62499  11.833  14.508  22.911
58539W        W62500  13.658  12.702  23.071
58540W        W62501  13.624  12.390  22.098
58541W        W62502  14.109  12.742  22.853
58542W        W62503  13.011  11.400  22.869
58543W        W62504  11.668  14.094  22.552
58544W        W62505  12.624  14.167  22.410
58545W        W62506  14.016  12.193  21.874
58546W        W62507  12.203  12.883  23.137
58547W        W62508  11.673  12.922  21.995
58548W        W62509  11.328  11.955  22.174
58549W        W62510  11.390  13.911  22.968
58550W        W62511  12.521  13.394  23.216
58551W        W62512  12.779  11.895  22.614
58552W        W62513  10.945  12.645  22.808
58553W        W62514  13.260  12.324  22.759
58554W        W62515  13.137  12.814  22.863
58555W        W62516  13.126  11.708  22.320
58556W        W62517  13.525  11.588  23.101
58557W        W62518  12.316  12.015  22.477
58558W        W62519  13.937  11.783  22.822
58559W        W62520  14.304  12.265  22.767
58560W        W62521  11.973  11.018  22.473
58561W        W62522  14.444  13.801  21.953
58562W        W62523  13.268  11.591  21.885
58563W        W62524  12.979  13.668  22.612
58564W        W62525  13.078  14.235  23.204
58565W        W62526  14.252  13.238  22.048
58566W        W62527  12.687  12.721  23.109
58567W        W62528  13.757  12.251  22.727
58568W        W62529  14.044  11.984  22.369
58569W        W62530  13.853  14.024  22.758
58570W        W62531  13.583  12.706  22.532
58571W        W62532  14.236  11.358  22.999
58572W        W62533  12.422  14.234  22.964
58573W        W62534  11.537  11.414  22.222
58574W        W62535  11.669  14.188  21.880
58575W        W62536  12.043  12.654  22.631
58576W        W62537  12.527  11.641  22.934
58577W        W62538  11.875  11.431  22.886
58578W        W62539  11.880  11.659  21.911
58579W        W62540  12.653  12.795  22.218
58580W        W62541  11.921  11.110  21.988
58581W        W62542  12.659  12.191  23.039
58582W        W62543  11.570  11.703  23.253
58583W        W62544  11.356  14.415  22.929
58584W        W62545  11.723  13.230  22.413
58585W        W62546  13.358  13.462  22.099
58586W        W62547  14.509  11.761  22.695
58587W        W62548  10.987  14.422  22.490
58588W        W62549  12.249  13.715  22.145
58589W        W62550  14.154  14.097  22.331
58590W        W62551  13.129  12.750  22.345
58591W        W62552  11.972  11.941  22.862
58592W        W62553  12.804  11.851  21.914
58593W        W62554  13.741  11.322  22.709
58594W        W62555  11.898  13.357  21.937
58595W        W62556  11.139  13.598  22.705
58596W        W62557  12.251  11.138  22.970
58597W        W62558  13.310  11.215  22.475
58598W        W62559  11.414  11.716  22.642
58599W        W62560  14.381  12.607  21.943
58600W        W62561  10.935  11.627  22.180
58601W        W62562  12.946  14.493  22.216
58602W        W62563  11.092  13.000  21.913
58603W        W62564  14.493  12.852  22.403
58604W        W62565  13.356  13.184  22.502
58605W        W62566  13.830  14.484  22.197
58606W        W62567  12.424  11.050  22.156
58607W        W62568  13.963  13.649  22.099
58608W        W62569  13.503  14.386  22.613
58609W        W62570  11.964  13.669  22.598
58610W        W62571  13.719  13.167  22.862
58611W        W62572  12.816  13.855  23.050
58612W        W62573  14.566  12.415  23.231
58613W        W62574  13.090  13.899  22.165
58614W        W62575  12.232  13.144  22.247
58615W        W62576  13.944  14.526  22.966
58616W        W62577  11.200  12.532  22.131
58617W        W62578  14.334  14.190  22.828
58618W        W62579  14.171  11.514  22.447
58619W        W62580  14.045  12.391  23.213
58620W        W62581  11.576  13.719  22.108
58621W        W62582  14.093  13.477  22.918
58622W        W62583  14.470  12.199  22.285
58623W        W62584  12.215  13.256  22.756
58624W        W62585  12.138  12.147  21.995
58625W        W62586  12.349  11.640  22.088
58626W        W62587  11.484  12.456  22.869
58627W        W62588  14.050  12.534  22.414
58628W        W62589  13.581  13.659  23.063
58629W        W62590  14.145  11.047  22.536
58630W        W62591  13.665  13.522  22.547
58631W        W62592  12.567  12.580  22.632
58632W        W62593  13.754  11.384  22.155
58633W        W62594  11.822  13.523  23.197
58634W        W62595  13.585  12.143  23.162
58635W        W62596  11.027  14.250  23.306
58636W        W62597  11.536  13.437  22.842
58637W        W62598  14.325  12.875  23.287
58638W        W62599  13.679  13.052  22.167
58639W        W62600  12.646  11.005  22.696
58640W        W62601  12.298  11.423  22.528
58641W        W62602  13.096  11.888  23.091
58642W        W62603  11.897  11.683  22.385
58643W        W62604  13.414  11.825  22.710
58644W        W62605  14.457  14.340  22.012
58645W        W62606  11.111  13.333  22.304
58646W        W62607  12.630  12.284  22.174
58647W        W62608  11.276  12.833  23.193
58648W        W62609  14.238  11.184  22.084
58649W        W62610  14.549  13.157  22.820
58650W        W62611  12.846  11.036  23.223
58651W        W62612  11.905  14.020  23.060
58652W        W62613  11.167  13.952  22.302
58653W        W62614  12.983  13.316  23.020
58654W        W62615  11.335  12.934  22.595
58655W        W62616  13.561  11.888  22.170
58656W        W62617  12.151  14.148  22.560
58657W        W62618  13.433  11.051  21.990
58658W        W62619  11.144  12.199  22.698
58659W        W62620  11.835  12.188  22.423
58660W        W62621  13.363  13.104  23.214
58661W        W62622  12.825  11.329  22.285
58662W        W62623  14.506  10.957  23.007
58663W        W62624  12.194  12.592  22.170
58664W        W62625  14.360  11.929  23.160
58665W        W62626  13.052  13.099  22.037
58666W        W62627  13.642  14.000  22.252
58667W        W62628  11.230  13.410  23.213
58668W        W62629  13.639  14.166  23.222
58669W        W62630  13.023  14.209  22.696
58670W        W62631  12.457  13.702  22.711
58671W        W62632  11.678  12.442  21.970
58672W        W62633  11.017  18.172   3.359
58673W        W62634  11.393  17.065   2.882
58674W        W62635  14.098  16.795   0.652
58675W        W62636  14.228  17.880   2.679
58676W        W62637  12.146  17.871   0.205
58677W        W62638  12.229  16.023   1.188
58678W        W62639  11.744  15.871   1.352
58679W        W62640  12.735  16.686   0.786
58680W        W62641  12.410  17.778   3.141
58681W        W62642  11.059  15.339   3.104
58682W        W62643  11.821  14.619   2.906
58683W        W62644  13.515  15.007   1.793
58684W        W62645  13.164  15.878   0.363
58685W        W62646  13.734  15.312   3.454
58686W        W62647  11.100  15.104   2.579
58687W        W62648  11.199  17.723   3.600
58688W        W62649  12.721  17.113   0.332
58689W        W62650  11.153  15.896   2.025
58690W        W62651  12.046  15.787   3.262
58691W        W62652  14.505  15.646   1.761
58692W        W62653  14.269  16.689   2.620
58693W        W62654  12.577  16.022   1.647
58694W        W62655  13.123  17.361   2.016
58695W        W62656  11.623  16.795   2.248
58696W        W62657  10.982  16.323   1.819
58697W        W62658  12.018  16.295   3.011
58698W        W62659  14.289  16.078   3.265
58699W        W62660  11.905  17.522   1.710
58700W        W62661  13.026  17.211   2.844
58701W        W62662  12.246  15.851   2.069
58702W        W62663  12.538  16.635   1.712
58703W        W62664  13.535  17.408   3.560
58704W        W62665  12.614  16.728   3.570
58705W        W62666  12.595  16.444   3.048
58706W        W62667  11.004  15.835   3.570
58707W        W62668  13.836  17.370   3.169
58708W        W62669  11.417  14.952   1.167
58709W        W62670  11.944  17.210   2.166
58710W        W62671  14.407  16.993   1.456
58711W        W62672  13.820  15.393   2.023
58712W        W62673  14.105  15.346   0.118
58713W        W62674  14.570  16.147   2.424
58714W        W62675  12.537  17.854   2.177
58715W        W62676  14.311  17.320   0.615
58716W        W62677  11.440  18.106   0.369
58717W        W62678  11.833  18.152   1.045
58718W        W62679  11.630  14.906   2.471
58719W        W62680  14.253  15.924   2.746
58720W        W62681  13.658  16.346   1.205
58721W        W62682  13.624  16.034   0.232
58722W        W62683  12.832  17.178   2.372
58723W        W62684  12.638  15.508   1.571
58724W        W62685  13.238  17.595   2.565
58725W        W62686  14.109  16.386   0.987
58726W        W62687  13.011  15.044   1.003
58727W        W62688  11.668  17.738   0.686
58728W        W62689  11.039  15.237   1.285
58729W        W62690  13.825  15.844   1.759
58730W        W62691  11.283  17.461   1.674
58731W        W62692  12.624  17.811   0.544
58732W        W62693  14.016  15.837   0.008
58733W        W62694  11.039  17.595   2.172
58734W        W62695  11.830  17.167   2.652
58735W        W62696  12.203  16.527   1.271
58736W        W62697  12.225  14.932   2.364
58737W        W62698  14.454  14.694   1.661
58738W        W62699  11.673  16.566   0.129
58739W        W62700  11.328  15.599   0.308
58740W        W62701  11.390  17.555   1.102
58741W        W62702  12.521  17.038   1.350
58742W        W62703  13.853  17.897   3.064
58743W        W62704  12.779  15.539   0.748
58744W        W62705  14.162  17.937   1.520
58745W        W62706  13.839  15.790   3.118
58746W        W62707  14.552  17.446   1.252
58747W        W62708  13.179  16.738   2.736
58748W        W62709  10.945  16.289   0.942
58749W        W62710  12.056  16.704   2.515
58750W        W62711  13.260  15.968   0.893
58751W        W62712  13.137  16.458   0.997
58752W        W62713  11.480  15.878   2.471
58753W        W62714  11.465  15.754   3.393
58754W        W62715  11.355  14.671   1.552
58755W        W62716  13.123  15.018   2.113
58756W        W62717  12.771  15.203   3.276
58757W        W62718  13.126  15.352   0.454
58758W        W62719  14.309  17.745   3.208
58759W        W62720  13.276  14.826   3.247
58760W        W62721  14.295  17.127   3.369
58761W        W62722  13.725  15.294   2.965
58762W        W62723  13.525  15.232   1.235
58763W        W62724  13.918  16.366   3.639
58764W        W62725  11.658  17.942   1.625
58765W        W62726  12.316  15.659   0.611
58766W        W62727  11.885  14.943   3.275
58767W        W62728  13.937  15.427   0.956
58768W        W62729  14.304  15.909   0.901
58769W        W62730  12.047  18.126   3.372
58770W        W62731  11.973  14.662   0.607
58771W        W62732  14.294  15.196   1.642
58772W        W62733  14.444  17.445   0.087
58773W        W62734  11.351  16.648   1.789
58774W        W62735  13.268  15.235   0.019
58775W        W62736  14.402  17.567   1.739
58776W        W62737  14.441  14.761   2.489
58777W        W62738  12.886  15.973   3.043
58778W        W62739  12.979  17.312   0.746
58779W        W62740  13.379  16.606   3.486
58780W        W62741  13.053  14.583   1.795
58781W        W62742  11.665  15.486   1.858
58782W        W62743  11.219  16.686   2.632
58783W        W62744  13.078  17.879   1.338
58784W        W62745  14.272  15.476   2.210
58785W        W62746  12.909  17.823   2.977
58786W        W62747  14.252  16.882   0.182
58787W        W62748  12.687  16.365   1.243
58788W        W62749  14.539  14.876   2.984
58789W        W62750  12.688  16.711   2.578
58790W        W62751  12.905  15.597   2.023
58791W        W62752  13.757  15.895   0.861
58792W        W62753  14.044  15.628   0.503
58793W        W62754  13.853  17.668   0.892
58794W        W62755  13.687  17.271   1.688
58795W        W62756  13.583  16.350   0.666
58796W        W62757  13.016  16.560   1.652
58797W        W62758  13.897  16.348   1.719
58798W        W62759  11.272  15.363   2.143
58799W        W62760  14.050  16.415   2.970
58800W        W62761  14.401  18.033   2.116
58801W        W62762  12.331  17.477   1.518
58802W        W62763  13.338  18.010   2.842
58803W        W62764  13.332  15.340   2.606
58804W        W62765  12.539  18.048   2.667
58805W        W62766  14.236  15.002   1.133
58806W        W62767  14.027  16.321   2.434
58807W        W62768  11.010  15.642   2.472
58808W        W62769  13.870  15.437   1.490
58809W        W62770  14.281  15.588   3.267
58810W        W62771  13.166  17.287   1.485
58811W        W62772  12.422  17.878   1.098
58812W        W62773  11.537  15.058   0.356
58813W        W62774  12.641  14.712   2.166
58814W        W62775  11.669  17.832   0.014
58815W        W62776  12.043  16.298   0.765
58816W        W62777  12.697  16.927   3.078
58817W        W62778  12.527  15.285   1.068
58818W        W62779  13.883  14.882   1.496
58819W        W62780  13.603  18.164   1.824
58820W        W62781  13.015  17.812   2.164
58821W        W62782  12.411  16.849   2.125
58822W        W62783  14.181  17.572   2.251
58823W        W62784  11.875  15.075   1.020
58824W        W62785  12.397  17.372   1.980
58825W        W62786  11.880  15.303   0.045
58826W        W62787  12.681  15.912   2.439
58827W        W62788  13.529  14.778   2.309
58828W        W62789  10.949  16.621   2.194
58829W        W62790  12.653  16.439   0.352
58830W        W62791  11.921  14.754   0.122
58831W        W62792  12.659  15.835   1.173
58832W        W62793  13.629  14.811   2.872
58833W        W62794  12.217  16.823   2.981
58834W        W62795  13.021  16.605   3.198
58835W        W62796  13.638  16.635   3.091
58836W        W62797  12.922  14.775   3.596
58837W        W62798  12.144  15.391   1.989
58838W        W62799  11.570  15.347   1.387
58839W        W62800  11.356  18.059   1.063
58840W        W62801  12.688  17.389   3.188
58841W        W62802  11.723  16.874   0.547
58842W        W62803  13.403  16.259   1.768
58843W        W62804  13.683  16.058   2.167
58844W        W62805  12.888  16.732   2.101
58845W        W62806  13.358  17.106   0.233
58846W        W62807  13.030  15.127   1.561
58847W        W62808  14.509  15.405   0.829
58848W        W62809  11.003  17.994   2.860
58849W        W62810  11.420  17.220   2.392
58850W        W62811  10.987  18.066   0.624
58851W        W62812  12.886  15.336   2.430
58852W        W62813  12.249  17.359   0.279
58853W        W62814  14.154  17.741   0.465
58854W        W62815  13.129  16.394   0.479
58855W        W62816  11.972  15.585   0.996
58856W        W62817  12.804  15.495   0.048
58857W        W62818  13.388  17.060   3.226
58858W        W62819  13.741  14.966   0.843
58859W        W62820  11.071  14.814   0.291
58860W        W62821  12.357  17.133   2.581
58861W        W62822  12.156  17.049   1.673
58862W        W62823  11.898  17.001   0.071
58863W        W62824  11.139  17.242   0.839
58864W        W62825  11.643  16.312   3.281
58865W        W62826  12.347  14.872   3.467
58866W        W62827  13.056  15.014   2.823
58867W        W62828  12.251  14.782   1.104
58868W        W62829  13.310  14.859   0.609
58869W        W62830  11.255  14.791   2.186
58870W        W62831  11.303  15.754   1.556
58871W        W62832  13.992  14.862   1.962
58872W        W62833  11.414  15.360   0.776
58873W        W62834  13.985  15.048   2.392
58874W        W62835  14.381  16.251   0.077
58875W        W62836  11.673  15.009   1.896
58876W        W62837  12.787  15.581   2.836
58877W        W62838  10.935  15.271   0.314
58878W        W62839  11.721  16.660   2.875
58879W        W62840  13.079  16.058   2.054
58880W        W62841  12.946  18.137   0.350
58881W        W62842  11.092  16.644   0.047
58882W        W62843  11.827  17.055   3.173
58883W        W62844  11.348  16.222   2.804
58884W        W62845  12.339  16.327   2.598
58885W        W62846  14.107  14.686   2.860
58886W        W62847  14.505  16.296   2.851
58887W        W62848  14.493  16.496   0.537
58888W        W62849  13.356  16.828   0.636
58889W        W62850  13.830  18.128   0.331
58890W        W62851  13.007  16.118   3.473
58891W        W62852  11.337  17.085   3.513
58892W        W62853  14.543  15.007   3.465
58893W        W62854  14.261  15.935   2.086
58894W        W62855  12.569  18.065   3.563
58895W        W62856  12.424  14.694   0.290
58896W        W62857  13.963  17.293   0.233
58897W        W62858  11.732  15.386   3.119
58898W        W62859  12.166  17.380   2.981
58899W        W62860  14.292  15.371   2.779
58900W        W62861  13.503  18.030   0.747
58901W        W62862  13.742  16.649   2.114
58902W        W62863  11.992  15.065   2.781
58903W        W62864  12.461  16.134   3.538
58904W        W62865  11.964  17.313   0.732
58905W        W62866  13.719  16.811   0.996
58906W        W62867  11.487  15.437   2.720
58907W        W62868  12.816  17.499   1.184
58908W        W62869  14.566  16.059   1.365
58909W        W62870  12.788  14.692   3.084
58910W        W62871  13.568  17.397   2.163
58911W        W62872  13.871  17.741   1.871
58912W        W62873  13.090  17.543   0.299
58913W        W62874  11.100  17.435   3.141
58914W        W62875  11.843  15.427   2.379
58915W        W62876  11.813  14.775   1.489
58916W        W62877  13.434  15.617   2.181
58917W        W62878  12.232  16.788   0.381
58918W        W62879  14.230  16.730   1.880
58919W        W62880  11.557  17.488   3.303
58920W        W62881  13.944  18.170   1.100
58921W        W62882  12.043  15.190   1.545
58922W        W62883  11.812  16.683   1.635
58923W        W62884  12.125  18.094   2.385
58924W        W62885  14.192  18.190   3.417
58925W        W62886  13.351  16.378   2.350
58926W        W62887  11.200  16.176   0.265
58927W        W62888  14.334  17.834   0.962
58928W        W62889  14.171  15.158   0.581
58929W        W62890  12.310  14.677   2.984
58930W        W62891  14.016  17.479   1.442
58931W        W62892  14.045  16.035   1.347
58932W        W62893  12.162  15.708   1.563
58933W        W62894  12.407  15.970   2.887
58934W        W62895  13.518  17.123   2.750
58935W        W62896  12.168  15.577   2.862
58936W        W62897  12.147  18.043   1.478
58937W        W62898  11.464  18.002   3.112
58938W        W62899  11.576  17.363   0.242
58939W        W62900  14.093  17.121   1.052
58940W        W62901  11.697  15.913   2.938
58941W        W62902  14.470  15.843   0.419
58942W        W62903  12.215  16.900   0.890
58943W        W62904  13.314  16.282   2.971
58944W        W62905  13.205  15.910   2.515
58945W        W62906  11.765  16.282   2.544
58946W        W62907  13.975  18.170   2.373
58947W        W62908  13.766  14.804   3.367
58948W        W62909  11.430  14.954   2.954
58949W        W62910  11.769  15.977   2.007
58950W        W62911  12.138  15.791   0.129
58951W        W62912  10.941  17.550   2.674
58952W        W62913  12.526  16.259   2.117
58953W        W62914  12.349  15.284   0.222
58954W        W62915  11.484  16.100   1.003
58955W        W62916  11.255  17.952   2.440
58956W        W62917  14.050  16.178   0.548
58957W        W62918  14.145  15.094   3.234
58958W        W62919  13.581  17.303   1.197
58959W        W62920  11.179  16.227   3.374
58960W        W62921  14.145  14.691   0.670
58961W        W62922  13.665  17.166   0.681
58962W        W62923  12.567  16.224   0.766
58963W        W62924  13.754  15.028   0.289
58964W        W62925  13.819  15.635   2.475
58965W        W62926  11.528  16.228   1.682
58966W        W62927  11.822  17.167   1.331
58967W        W62928  13.585  15.787   1.296
58968W        W62929  12.608  15.166   1.992
58969W        W62930  14.570  17.077   2.503
58970W        W62931  14.488  15.064   2.064
58971W        W62932  11.027  17.894   1.440
58972W        W62933  11.536  17.081   0.976
58973W        W62934  11.451  14.698   3.529
58974W        W62935  12.570  17.551   3.631
58975W        W62936  14.325  16.519   1.421
58976W        W62937  13.679  16.696   0.301
58977W        W62938  12.974  18.217   2.513
58978W        W62939  13.831  16.939   3.550
58979W        W62940  12.646  14.649   0.830
58980W        W62941  13.359  15.518   1.689
58981W        W62942  11.045  17.105   2.021
58982W        W62943  12.298  15.067   0.662
58983W        W62944  12.102  16.551   3.511
58984W        W62945  13.096  15.532   1.225
58985W        W62946  13.301  16.942   2.347
58986W        W62947  11.455  17.547   2.782
58987W        W62948  12.046  17.530   3.505
58988W        W62949  11.897  15.327   0.519
58989W        W62950  13.414  15.469   0.844
58990W        W62951  13.372  17.577   3.081
58991W        W62952  12.057  16.169   1.680
58992W        W62953  11.712  17.867   2.545
58993W        W62954  14.457  17.984   0.146
58994W        W62955  11.320  16.656   3.142
58995W        W62956  13.315  16.918   1.830
58996W        W62957  11.751  16.567   1.072
58997W        W62958  12.122  17.574   2.467
58998W        W62959  12.500  14.993   1.508
58999W        W62960  11.111  16.977   0.438
59000W        W62961  12.630  15.928   0.308
59001W        W62962  11.276  16.477   1.327
59002W        W62963  12.566  15.119   2.791
59003W        W62964  14.238  14.828   0.218
59004W        W62965  12.985  17.831   3.469
59005W        W62966  13.951  17.723   3.602
59006W        W62967  11.690  18.179   2.080
59007W        W62968  14.549  16.801   0.954
59008W        W62969  13.079  16.068   1.467
59009W        W62970  12.846  14.680   1.357
59010W        W62971  11.905  17.664   1.194
59011W        W62972  12.404  15.405   2.419
59012W        W62973  12.104  14.774   1.888
59013W        W62974  11.167  17.596   0.436
59014W        W62975  12.983  16.960   1.154
59015W        W62976  11.858  17.755   3.033
59016W        W62977  11.335  16.578   0.729
59017W        W62978  11.220  15.121   1.728
59018W        W62979  12.768  17.086   1.785
59019W        W62980  11.020  14.940   0.805
59020W        W62981  13.684  16.146   2.732
59021W        W62982  13.561  15.532   0.304
59022W        W62983  14.078  17.204   1.952
59023W        W62984  12.739  17.688   1.783
59024W        W62985  12.151  17.792   0.694
59025W        W62986  13.433  14.695   0.124
59026W        W62987  11.233  17.955   1.865
59027W        W62988  13.430  15.713   3.500
59028W        W62989  11.413  15.243   3.499
59029W        W62990  11.144  15.843   0.832
59030W        W62991  11.835  15.832   0.557
59031W        W62992  13.598  16.159   3.374
59032W        W62993  11.941  16.440   2.083
59033W        W62994  13.415  14.726   1.203
59034W        W62995  12.546  18.157   1.706
59035W        W62996  13.760  17.619   2.643
59036W        W62997  13.344  17.768   1.754
59037W        W62998  13.363  16.748   1.348
59038W        W62999  12.825  14.973   0.419
59039W        W63000  14.506  14.601   1.141
59040W        W63001  12.194  16.236   0.304
59041W        W63002  14.360  15.573   1.294
59042W        W63003  13.052  16.743   0.171
59043W        W63004  13.988  16.943   2.919
59044W        W63005  13.642  17.644   0.386
59045W        W63006  12.257  15.319   3.292
59046W        W63007  12.077  15.903   2.533
59047W        W63008  14.169  17.398   2.810
59048W        W63009  13.269  15.348   3.187
59049W        W63010  11.113  15.819   2.964
59050W        W63011  12.873  16.296   2.690
59051W        W63012  11.230  17.054   1.347
59052W        W63013  11.377  16.351   2.237
59053W        W63014  13.694  16.637   2.587
59054W        W63015  13.466  18.017   3.398
59055W        W63016  13.362  15.756   2.951
59056W        W63017  13.639  17.810   1.356
59057W        W63018  12.641  17.530   2.679
59058W        W63019  12.126  17.885   1.948
59059W        W63020  13.931  17.056   2.367
59060W        W63021  12.981  17.128   3.504
59061W        W63022  11.586  17.081   1.843
59062W        W63023  13.932  16.840   1.488
59063W        W63024  13.573  17.906   2.239
59064W        W63025  11.551  17.635   2.109
59065W        W63026  12.572  15.687   3.319
59066W        W63027  13.023  17.853   0.830
59067W        W63028  12.331  17.108   3.468
59068W        W63029  12.457  17.346   0.845
59069W        W63030  11.678  16.086   0.104
59070W        W63031  11.017  18.172   7.003
59071W        W63032  11.393  17.065   6.526
59072W        W63033  14.098  16.795   4.296
59073W        W63034  14.228  17.880   6.323
59074W        W63035  12.146  17.871   3.849
59075W        W63036  12.229  16.023   4.832
59076W        W63037  11.744  15.871   4.996
59077W        W63038  12.735  16.686   4.430
59078W        W63039  12.410  17.778   6.785
59079W        W63040  11.059  15.339   6.748
59080W        W63041  11.821  14.619   6.550
59081W        W63042  13.515  15.007   5.437
59082W        W63043  13.164  15.878   4.007
59083W        W63044  13.734  15.312   7.098
59084W        W63045  11.100  15.104   6.223
59085W        W63046  11.199  17.723   7.244
59086W        W63047  12.721  17.113   3.976
59087W        W63048  11.153  15.896   5.669
59088W        W63049  12.046  15.787   6.906
59089W        W63050  14.505  15.646   5.405
59090W        W63051  14.269  16.689   6.264
59091W        W63052  12.577  16.022   5.291
59092W        W63053  13.123  17.361   5.660
59093W        W63054  11.623  16.795   5.892
59094W        W63055  10.982  16.323   5.463
59095W        W63056  12.018  16.295   6.655
59096W        W63057  14.289  16.078   6.909
59097W        W63058  11.905  17.522   5.354
59098W        W63059  13.026  17.211   6.488
59099W        W63060  12.246  15.851   5.713
59100W        W63061  12.538  16.635   5.356
59101W        W63062  13.535  17.408   7.204
59102W        W63063  12.614  16.728   7.214
59103W        W63064  12.595  16.444   6.692
59104W        W63065  11.004  15.835   7.214
59105W        W63066  13.836  17.370   6.813
59106W        W63067  11.417  14.952   4.811
59107W        W63068  11.944  17.210   5.810
59108W        W63069  14.407  16.993   5.100
59109W        W63070  13.820  15.393   5.667
59110W        W63071  14.105  15.346   3.762
59111W        W63072  14.570  16.147   6.068
59112W        W63073  12.537  17.854   5.821
59113W        W63074  14.311  17.320   4.259
59114W        W63075  11.440  18.106   4.013
59115W        W63076  11.833  18.152   4.689
59116W        W63077  11.630  14.906   6.115
59117W        W63078  14.253  15.924   6.390
59118W        W63079  13.658  16.346   4.849
59119W        W63080  13.624  16.034   3.876
59120W        W63081  12.832  17.178   6.016
59121W        W63082  12.638  15.508   5.215
59122W        W63083  13.238  17.595   6.209
59123W        W63084  14.109  16.386   4.631
59124W        W63085  13.011  15.044   4.647
59125W        W63086  11.668  17.738   4.330
59126W        W63087  11.039  15.237   4.929
59127W        W63088  13.825  15.844   5.403
59128W        W63089  11.283  17.461   5.318
59129W        W63090  12.624  17.811   4.188
59130W        W63091  14.016  15.837   3.652
59131W        W63092  11.039  17.595   5.816
59132W        W63093  11.830  17.167   6.296
59133W        W63094  12.203  16.527   4.915
59134W        W63095  12.225  14.932   6.008
59135W        W63096  14.454  14.694   5.305
59136W        W63097  11.673  16.566   3.773
59137W        W63098  11.328  15.599   3.952
59138W        W63099  11.390  17.555   4.746
59139W        W63100  12.521  17.038   4.994
59140W        W63101  13.853  17.897   6.708
59141W        W63102  12.779  15.539   4.392
59142W        W63103  14.162  17.937   5.164
59143W        W63104  13.839  15.790   6.762
59144W        W63105  14.552  17.446   4.896
59145W        W63106  13.179  16.738   6.380
59146W        W63107  10.945  16.289   4.586
59147W        W63108  12.056  16.704   6.159
59148W        W63109  13.260  15.968   4.537
59149W        W63110  13.137  16.458   4.641
59150W        W63111  11.480  15.878   6.115
59151W        W63112  11.465  15.754   7.037
59152W        W63113  11.355  14.671   5.196
59153W        W63114  13.123  15.018   5.757
59154W        W63115  12.771  15.203   6.920
59155W        W63116  13.126  15.352   4.098
59156W        W63117  14.309  17.745   6.852
59157W        W63118  13.276  14.826   6.891
59158W        W63119  14.295  17.127   7.013
59159W        W63120  13.725  15.294   6.609
59160W        W63121  13.525  15.232   4.879
59161W        W63122  13.918  16.366   7.283
59162W        W63123  11.658  17.942   5.269
59163W        W63124  12.316  15.659   4.255
59164W        W63125  11.885  14.943   6.919
59165W        W63126  13.937  15.427   4.600
59166W        W63127  14.304  15.909   4.545
59167W        W63128  12.047  18.126   7.016
59168W        W63129  11.973  14.662   4.251
59169W        W63130  14.294  15.196   5.286
59170W        W63131  14.444  17.445   3.731
59171W        W63132  11.351  16.648   5.433
59172W        W63133  13.268  15.235   3.663
59173W        W63134  14.402  17.567   5.383
59174W        W63135  14.441  14.761   6.133
59175W        W63136  12.886  15.973   6.687
59176W        W63137  12.979  17.312   4.390
59177W        W63138  13.379  16.606   7.130
59178W        W63139  13.053  14.583   5.439
59179W        W63140  11.665  15.486   5.502
59180W        W63141  11.219  16.686   6.276
59181W        W63142  13.078  17.879   4.982
59182W        W63143  14.272  15.476   5.854
59183W        W63144  12.909  17.823   6.621
59184W        W63145  14.252  16.882   3.826
59185W        W63146  12.687  16.365   4.887
59186W        W63147  14.539  14.876   6.628
59187W        W63148  12.688  16.711   6.222
59188W        W63149  12.905  15.597   5.667
59189W        W63150  13.757  15.895   4.505
59190W        W63151  14.044  15.628   4.147
59191W        W63152  13.853  17.668   4.536
59192W        W63153  13.687  17.271   5.332
59193W        W63154  13.583  16.350   4.310
59194W        W63155  13.016  16.560   5.296
59195W        W63156  13.897  16.348   5.363
59196W        W63157  11.272  15.363   5.787
59197W        W63158  14.050  16.415   6.614
59198W        W63159  14.401  18.033   5.760
59199W        W63160  12.331  17.477   5.162
59200W        W63161  13.338  18.010   6.486
59201W        W63162  13.332  15.340   6.250
59202W        W63163  12.539  18.048   6.311
59203W        W63164  14.236  15.002   4.777
59204W        W63165  14.027  16.321   6.078
59205W        W63166  11.010  15.642   6.116
59206W        W63167  13.870  15.437   5.134
59207W        W63168  14.281  15.588   6.911
59208W        W63169  13.166  17.287   5.129
59209W        W63170  12.422  17.878   4.742
59210W        W63171  11.537  15.058   4.000
59211W        W63172  12.641  14.712   5.810
59212W        W63173  11.669  17.832   3.658
59213W        W63174  12.043  16.298   4.409
59214W        W63175  12.697  16.927   6.722
59215W        W63176  12.527  15.285   4.712
59216W        W63177  13.883  14.882   5.140
59217W        W63178  13.603  18.164   5.468
59218W        W63179  13.015  17.812   5.808
59219W        W63180  12.411  16.849   5.769
59220W        W63181  14.181  17.572   5.895
59221W        W63182  11.875  15.075   4.664
59222W        W63183  12.397  17.372   5.624
59223W        W63184  11.880  15.303   3.689
59224W        W63185  12.681  15.912   6.083
59225W        W63186  13.529  14.778   5.953
59226W        W63187  10.949  16.621   5.838
59227W        W63188  12.653  16.439   3.996
59228W        W63189  11.921  14.754   3.766
59229W        W63190  12.659  15.835   4.817
59230W        W63191  13.629  14.811   6.516
59231W        W63192  12.217  16.823   6.625
59232W        W63193  13.021  16.605   6.842
59233W        W63194  13.638  16.635   6.735
59234W        W63195  12.922  14.775   7.240
59235W        W63196  12.144  15.391   5.633
59236W        W63197  11.570  15.347   5.031
59237W        W63198  11.356  18.059   4.707
59238W        W63199  12.688  17.389   6.832
59239W        W63200  11.723  16.874   4.191
59240W        W63201  13.403  16.259   5.412
59241W        W63202  13.683  16.058   5.811
59242W        W63203  12.888  16.732   5.745
59243W        W63204  13.358  17.106   3.877
59244W        W63205  13.030  15.127   5.205
59245W        W63206  14.509  15.405   4.473
59246W        W63207  11.003  17.994   6.504
59247W        W63208  11.420  17.220   6.036
59248W        W63209  10.987  18.066   4.268
59249W        W63210  12.886  15.336   6.074
59250W        W63211  12.249  17.359   3.923
59251W        W63212  14.154  17.741   4.109
59252W        W63213  13.129  16.394   4.123
59253W        W63214  11.972  15.585   4.640
59254W        W63215  12.804  15.495   3.692
59255W        W63216  13.388  17.060   6.870
59256W        W63217  13.741  14.966   4.487
59257W        W63218  11.071  14.814   3.935
59258W        W63219  12.357  17.133   6.225
59259W        W63220  12.156  17.049   5.317
59260W        W63221  11.898  17.001   3.715
59261W        W63222  11.139  17.242   4.483
59262W        W63223  11.643  16.312   6.925
59263W        W63224  12.347  14.872   7.111
59264W        W63225  13.056  15.014   6.467
59265W        W63226  12.251  14.782   4.748
59266W        W63227  13.310  14.859   4.253
59267W        W63228  11.255  14.791   5.830
59268W        W63229  11.303  15.754   5.200
59269W        W63230  13.992  14.862   5.606
59270W        W63231  11.414  15.360   4.420
59271W        W63232  13.985  15.048   6.036
59272W        W63233  14.381  16.251   3.721
59273W        W63234  11.673  15.009   5.540
59274W        W63235  12.787  15.581   6.480
59275W        W63236  10.935  15.271   3.958
59276W        W63237  11.721  16.660   6.519
59277W        W63238  13.079  16.058   5.698
59278W        W63239  12.946  18.137   3.994
59279W        W63240  11.092  16.644   3.691
59280W        W63241  11.827  17.055   6.817
59281W        W63242  11.348  16.222   6.448
59282W        W63243  12.339  16.327   6.242
59283W        W63244  14.107  14.686   6.504
59284W        W63245  14.505  16.296   6.495
59285W        W63246  14.493  16.496   4.181
59286W        W63247  13.356  16.828   4.280
59287W        W63248  13.830  18.128   3.975
59288W        W63249  13.007  16.118   7.117
59289W        W63250  11.337  17.085   7.157
59290W        W63251  14.543  15.007   7.109
59291W        W63252  14.261  15.935   5.730
59292W        W63253  12.569  18.065   7.207
59293W        W63254  12.424  14.694   3.934
59294W        W63255  13.963  17.293   3.877
59295W        W63256  11.732  15.386   6.763
59296W        W63257  12.166  17.380   6.625
59297W        W63258  14.292  15.371   6.423
59298W        W63259  13.503  18.030   4.391
59299W        W63260  13.742  16.649   5.758
59300W        W63261  11.992  15.065   6.425
59301W        W63262  12.461  16.134   7.182
59302W        W63263  11.964  17.313   4.376
59303W        W63264  13.719  16.811   4.640
59304W        W63265  11.487  15.437   6.364
59305W        W63266  12.816  17.499   4.828
59306W        W63267  14.566  16.059   5.009
59307W        W63268  12.788  14.692   6.728
59308W        W63269  13.568  17.397   5.807
59309W        W63270  13.871  17.741   5.515
59310W        W63271  13.090  17.543   3.943
59311W        W63272  11.100  17.435   6.785
59312W        W63273  11.843  15.427   6.023
59313W        W63274  11.813  14.775   5.133
59314W        W63275  13.434  15.617   5.825
59315W        W63276  12.232  16.788   4.025
59316W        W63277  14.230  16.730   5.524
59317W        W63278  11.557  17.488   6.947
59318W        W63279  13.944  18.170   4.744
59319W        W63280  12.043  15.190   5.189
59320W        W63281  11.812  16.683   5.279
59321W        W63282  12.125  18.094   6.029
59322W        W63283  14.192  18.190   7.061
59323W        W63284  13.351  16.378   5.994
59324W        W63285  11.200  16.176   3.909
59325W        W63286  14.334  17.834   4.606
59326W        W63287  14.171  15.158   4.225
59327W        W63288  12.310  14.677   6.628
59328W        W63289  14.016  17.479   5.086
59329W        W63290  14.045  16.035   4.991
59330W        W63291  12.162  15.708   5.207
59331W        W63292  12.407  15.970   6.531
59332W        W63293  13.518  17.123   6.394
59333W        W63294  12.168  15.577   6.506
59334W        W63295  12.147  18.043   5.122
59335W        W63296  11.464  18.002   6.756
59336W        W63297  11.576  17.363   3.886
59337W        W63298  14.093  17.121   4.696
59338W        W63299  11.697  15.913   6.582
59339W        W63300  14.470  15.843   4.063
59340W        W63301  12.215  16.900   4.534
59341W        W63302  13.314  16.282   6.615
59342W        W63303  13.205  15.910   6.159
59343W        W63304  11.765  16.282   6.188
59344W        W63305  13.975  18.170   6.017
59345W        W63306  13.766  14.804   7.011
59346W        W63307  11.430  14.954   6.598
59347W        W63308  11.769  15.977   5.651
59348W        W63309  12.138  15.791   3.773
59349W        W63310  10.941  17.550   6.318
59350W        W63311  12.526  16.259   5.761
59351W        W63312  12.349  15.284   3.866
59352W        W63313  11.484  16.100   4.647
59353W        W63314  11.255  17.952   6.084
59354W        W63315  14.050  16.178   4.192
59355W        W63316  14.145  15.094   6.878
59356W        W63317  13.581  17.303   4.841
59357W        W63318  11.179  16.227   7.018
59358W        W63319  14.145  14.691   4.314
59359W        W63320  13.665  17.166   4.325
59360W        W63321  12.567  16.224   4.410
59361W        W63322  13.754  15.028   3.933
59362W        W63323  13.819  15.635   6.119
59363W        W63324  11.528  16.228   5.326
59364W        W63325  11.822  17.167   4.975
59365W        W63326  13.585  15.787   4.940
59366W        W63327  12.608  15.166   5.636
59367W        W63328  14.570  17.077   6.147
59368W        W63329  14.488  15.064   5.708
59369W        W63330  11.027  17.894   5.084
59370W        W63331  11.536  17.081   4.620
59371W        W63332  11.451  14.698   7.173
59372W        W63333  12.570  17.551   7.275
59373W        W63334  14.325  16.519   5.065
59374W        W63335  13.679  16.696   3.945
59375W        W63336  12.974  18.217   6.157
59376W        W63337  13.831  16.939   7.194
59377W        W63338  12.646  14.649   4.474
59378W        W63339  13.359  15.518   5.333
59379W        W63340  11.045  17.105   5.665
59380W        W63341  12.298  15.067   4.306
59381W        W63342  12.102  16.551   7.155
59382W        W63343  13.096  15.532   4.869
59383W        W63344  13.301  16.942   5.991
59384W        W63345  11.455  17.547   6.426
59385W        W63346  12.046  17.530   7.149
59386W        W63347  11.897  15.327   4.163
59387W        W63348  13.414  15.469   4.488
59388W        W63349  13.372  17.577   6.725
59389W        W63350  12.057  16.169   5.324
59390W        W63351  11.712  17.867   6.189
59391W        W63352  14.457  17.984   3.790
59392W        W63353  11.320  16.656   6.786
59393W        W63354  13.315  16.918   5.474
59394W        W63355  11.751  16.567   4.716
59395W        W63356  12.122  17.574   6.111
59396W        W63357  12.500  14.993   5.152
59397W        W63358  11.111  16.977   4.082
59398W        W63359  12.630  15.928   3.952
59399W        W63360  11.276  16.477   4.971
59400W        W63361  12.566  15.119   6.435
59401W        W63362  14.238  14.828   3.862
59402W        W63363  14.331  16.574   6.961
59403W        W63364  12.985  17.831   7.113
59404W        W63365  14.543  16.925   6.635
59405W        W63366  13.951  17.723   7.246
59406W        W63367  11.690  18.179   5.724
59407W        W63368  14.549  16.801   4.598
59408W        W63369  13.079  16.068   5.111
59409W        W63370  12.846  14.680   5.001
59410W        W63371  11.905  17.664   4.838
59411W        W63372  12.404  15.405   6.063
59412W        W63373  12.104  14.774   5.532
59413W        W63374  11.167  17.596   4.080
59414W        W63375  12.983  16.960   4.798
59415W        W63376  11.858  17.755   6.677
59416W        W63377  11.335  16.578   4.373
59417W        W63378  11.220  15.121   5.372
59418W        W63379  12.768  17.086   5.429
59419W        W63380  11.020  14.940   4.449
59420W        W63381  13.684  16.146   6.376
59421W        W63382  13.561  15.532   3.948
59422W        W63383  14.078  17.204   5.596
59423W        W63384  12.739  17.688   5.427
59424W        W63385  12.151  17.792   4.338
59425W        W63386  13.433  14.695   3.768
59426W        W63387  11.233  17.955   5.509
59427W        W63388  13.430  15.713   7.144
59428W        W63389  11.413  15.243   7.143
59429W        W63390  11.144  15.843   4.476
59430W        W63391  11.835  15.832   4.201
59431W        W63392  13.598  16.159   7.018
59432W        W63393  11.941  16.440   5.727
59433W        W63394  13.415  14.726   4.847
59434W        W63395  12.546  18.157   5.350
59435W        W63396  13.760  17.619   6.287
59436W        W63397  13.344  17.768   5.398
59437W        W63398  13.363  16.748   4.992
59438W        W63399  12.825  14.973   4.063
59439W        W63400  14.506  14.601   4.785
59440W        W63401  12.194  16.236   3.948
59441W        W63402  14.360  15.573   4.938
59442W        W63403  13.052  16.743   3.815
59443W        W63404  13.988  16.943   6.563
59444W        W63405  13.642  17.644   4.030
59445W        W63406  12.257  15.319   6.936
59446W        W63407  12.077  15.903   6.177
59447W        W63408  14.169  17.398   6.454
59448W        W63409  13.269  15.348   6.831
59449W        W63410  11.113  15.819   6.608
59450W        W63411  12.873  16.296   6.334
59451W        W63412  11.230  17.054   4.991
59452W        W63413  11.377  16.351   5.881
59453W        W63414  13.694  16.637   6.231
59454W        W63415  13.466  18.017   7.042
59455W        W63416  13.362  15.756   6.595
59456W        W63417  13.639  17.810   5.000
59457W        W63418  12.641  17.530   6.323
59458W        W63419  12.126  17.885   5.592
59459W        W63420  13.931  17.056   6.011
59460W        W63421  12.981  17.128   7.148
59461W        W63422  11.586  17.081   5.487
59462W        W63423  13.932  16.840   5.132
59463W        W63424  13.573  17.906   5.883
59464W        W63425  11.551  17.635   5.753
59465W        W63426  12.572  15.687   6.963
59466W        W63427  13.023  17.853   4.474
59467W        W63428  12.331  17.108   7.112
59468W        W63429  12.457  17.346   4.489
59469W        W63430  11.678  16.086   3.748
59470W        W63431  11.017  18.172  10.648
59471W        W63432  11.393  17.065  10.171
59472W        W63433  14.098  16.795   7.941
59473W        W63434  14.228  17.880   9.968
59474W        W63435  12.146  17.871   7.494
59475W        W63436  12.229  16.023   8.477
59476W        W63437  11.744  15.871   8.641
59477W        W63438  12.735  16.686   8.075
59478W        W63439  12.410  17.778  10.430
59479W        W63440  11.059  15.339  10.393
59480W        W63441  11.821  14.619  10.195
59481W        W63442  13.515  15.007   9.082
59482W        W63443  13.164  15.878   7.652
59483W        W63444  13.734  15.312  10.743
59484W        W63445  11.100  15.104   9.868
59485W        W63446  11.199  17.723  10.889
59486W        W63447  12.721  17.113   7.621
59487W        W63448  11.153  15.896   9.314
59488W        W63449  12.046  15.787  10.551
59489W        W63450  14.505  15.646   9.050
59490W        W63451  14.269  16.689   9.909
59491W        W63452  12.577  16.022   8.936
59492W        W63453  13.123  17.361   9.305
59493W        W63454  11.623  16.795   9.537
59494W        W63455  10.982  16.323   9.108
59495W        W63456  12.018  16.295  10.300
59496W        W63457  14.289  16.078  10.554
59497W        W63458  11.905  17.522   8.999
59498W        W63459  13.026  17.211  10.133
59499W        W63460  12.246  15.851   9.358
59500W        W63461  12.538  16.635   9.001
59501W        W63462  13.535  17.408  10.849
59502W        W63463  12.614  16.728  10.859
59503W        W63464  12.595  16.444  10.337
59504W        W63465  11.004  15.835  10.859
59505W        W63466  13.836  17.370  10.458
59506W        W63467  11.417  14.952   8.456
59507W        W63468  11.944  17.210   9.455
59508W        W63469  14.407  16.993   8.745
59509W        W63470  13.820  15.393   9.312
59510W        W63471  14.105  15.346   7.407
59511W        W63472  14.570  16.147   9.713
59512W        W63473  12.537  17.854   9.466
59513W        W63474  14.311  17.320   7.904
59514W        W63475  11.440  18.106   7.658
59515W        W63476  11.833  18.152   8.334
59516W        W63477  11.630  14.906   9.760
59517W        W63478  14.253  15.924  10.035
59518W        W63479  13.658  16.346   8.494
59519W        W63480  13.624  16.034   7.521
59520W        W63481  12.832  17.178   9.661
59521W        W63482  12.638  15.508   8.860
59522W        W63483  13.238  17.595   9.854
59523W        W63484  14.109  16.386   8.276
59524W        W63485  13.011  15.044   8.292
59525W        W63486  11.668  17.738   7.975
59526W        W63487  11.039  15.237   8.574
59527W        W63488  13.825  15.844   9.048
59528W        W63489  11.283  17.461   8.963
59529W        W63490  12.624  17.811   7.833
59530W        W63491  14.016  15.837   7.297
59531W        W63492  11.039  17.595   9.461
59532W        W63493  11.830  17.167   9.941
59533W        W63494  12.203  16.527   8.560
59534W        W63495  12.225  14.932   9.653
59535W        W63496  14.454  14.694   8.950
59536W        W63497  11.673  16.566   7.418
59537W        W63498  11.328  15.599   7.597
59538W        W63499  11.390  17.555   8.391
59539W        W63500  12.521  17.038   8.639
59540W        W63501  13.853  17.897  10.353
59541W        W63502  12.779  15.539   8.037
59542W        W63503  14.162  17.937   8.809
59543W        W63504  13.839  15.790  10.407
59544W        W63505  14.552  17.446   8.541
59545W        W63506  13.179  16.738  10.025
59546W        W63507  10.945  16.289   8.231
59547W        W63508  12.056  16.704   9.804
59548W        W63509  13.260  15.968   8.182
59549W        W63510  13.137  16.458   8.286
59550W        W63511  11.480  15.878   9.760
59551W        W63512  11.465  15.754  10.682
59552W        W63513  11.355  14.671   8.841
59553W        W63514  13.123  15.018   9.402
59554W        W63515  12.771  15.203  10.565
59555W        W63516  13.126  15.352   7.743
59556W        W63517  14.309  17.745  10.497
59557W        W63518  13.276  14.826  10.536
59558W        W63519  14.295  17.127  10.658
59559W        W63520  13.725  15.294  10.254
59560W        W63521  13.525  15.232   8.524
59561W        W63522  13.918  16.366  10.928
59562W        W63523  11.658  17.942   8.914
59563W        W63524  12.316  15.659   7.900
59564W        W63525  11.885  14.943  10.564
59565W        W63526  13.937  15.427   8.245
59566W        W63527  14.304  15.909   8.190
59567W        W63528  12.047  18.126  10.661
59568W        W63529  11.973  14.662   7.896
59569W        W63530  14.294  15.196   8.931
59570W        W63531  14.444  17.445   7.376
59571W        W63532  11.351  16.648   9.078
59572W        W63533  13.268  15.235   7.308
59573W        W63534  14.402  17.567   9.028
59574W        W63535  14.441  14.761   9.778
59575W        W63536  12.886  15.973  10.332
59576W        W63537  12.979  17.312   8.035
59577W        W63538  13.379  16.606  10.775
59578W        W63539  13.053  14.583   9.084
59579W        W63540  11.665  15.486   9.147
59580W        W63541  11.219  16.686   9.921
59581W        W63542  13.078  17.879   8.627
59582W        W63543  14.272  15.476   9.499
59583W        W63544  12.909  17.823  10.266
59584W        W63545  14.252  16.882   7.471
59585W        W63546  12.687  16.365   8.532
59586W        W63547  12.688  16.711   9.867
59587W        W63548  12.905  15.597   9.312
59588W        W63549  13.757  15.895   8.150
59589W        W63550  14.044  15.628   7.792
59590W        W63551  13.853  17.668   8.181
59591W        W63552  13.687  17.271   8.977
59592W        W63553  13.583  16.350   7.955
59593W        W63554  13.016  16.560   8.941
59594W        W63555  13.897  16.348   9.008
59595W        W63556  11.272  15.363   9.432
59596W        W63557  14.050  16.415  10.259
59597W        W63558  14.401  18.033   9.405
59598W        W63559  12.331  17.477   8.807
59599W        W63560  13.338  18.010  10.131
59600W        W63561  13.332  15.340   9.895
59601W        W63562  12.539  18.048   9.956
59602W        W63563  14.236  15.002   8.422
59603W        W63564  14.027  16.321   9.723
59604W        W63565  11.010  15.642   9.761
59605W        W63566  13.870  15.437   8.779
59606W        W63567  14.281  15.588  10.556
59607W        W63568  13.166  17.287   8.774
59608W        W63569  12.422  17.878   8.387
59609W        W63570  11.537  15.058   7.645
59610W        W63571  12.641  14.712   9.455
59611W        W63572  11.669  17.832   7.303
59612W        W63573  12.043  16.298   8.054
59613W        W63574  12.697  16.927  10.367
59614W        W63575  12.527  15.285   8.357
59615W        W63576  13.883  14.882   8.785
59616W        W63577  13.603  18.164   9.113
59617W        W63578  13.015  17.812   9.453
59618W        W63579  12.411  16.849   9.414
59619W        W63580  14.181  17.572   9.540
59620W        W63581  11.875  15.075   8.309
59621W        W63582  12.397  17.372   9.269
59622W        W63583  11.880  15.303   7.334
59623W        W63584  12.681  15.912   9.728
59624W        W63585  13.529  14.778   9.598
59625W        W63586  10.949  16.621   9.483
59626W        W63587  12.653  16.439   7.641
59627W        W63588  11.921  14.754   7.411
59628W        W63589  12.659  15.835   8.462
59629W        W63590  13.629  14.811  10.161
59630W        W63591  12.217  16.823  10.270
59631W        W63592  13.021  16.605  10.487
59632W        W63593  13.638  16.635  10.380
59633W        W63594  12.922  14.775  10.885
59634W        W63595  12.144  15.391   9.278
59635W        W63596  11.570  15.347   8.676
59636W        W63597  11.356  18.059   8.352
59637W        W63598  12.688  17.389  10.477
59638W        W63599  11.723  16.874   7.836
59639W        W63600  13.403  16.259   9.057
59640W        W63601  13.683  16.058   9.456
59641W        W63602  12.888  16.732   9.390
59642W        W63603  13.358  17.106   7.522
59643W        W63604  13.030  15.127   8.850
59644W        W63605  14.509  15.405   8.118
59645W        W63606  11.003  17.994  10.149
59646W        W63607  11.420  17.220   9.681
59647W        W63608  10.987  18.066   7.913
59648W        W63609  12.886  15.336   9.719
59649W        W63610  12.249  17.359   7.568
59650W        W63611  14.154  17.741   7.754
59651W        W63612  13.129  16.394   7.768
59652W        W63613  11.972  15.585   8.285
59653W        W63614  12.804  15.495   7.337
59654W        W63615  13.388  17.060  10.515
59655W        W63616  13.741  14.966   8.132
59656W        W63617  11.071  14.814   7.580
59657W        W63618  12.357  17.133   9.870
59658W        W63619  12.156  17.049   8.962
59659W        W63620  11.898  17.001   7.360
59660W        W63621  11.139  17.242   8.128
59661W        W63622  11.643  16.312  10.570
59662W        W63623  12.347  14.872  10.756
59663W        W63624  13.056  15.014  10.112
59664W        W63625  12.251  14.782   8.393
59665W        W63626  13.310  14.859   7.898
59666W        W63627  11.255  14.791   9.475
59667W        W63628  11.303  15.754   8.845
59668W        W63629  13.992  14.862   9.251
59669W        W63630  11.414  15.360   8.065
59670W        W63631  13.985  15.048   9.681
59671W        W63632  14.381  16.251   7.366
59672W        W63633  11.673  15.009   9.185
59673W        W63634  12.787  15.581  10.125
59674W        W63635  10.935  15.271   7.603
59675W        W63636  11.721  16.660  10.164
59676W        W63637  13.079  16.058   9.343
59677W        W63638  12.946  18.137   7.639
59678W        W63639  11.092  16.644   7.336
59679W        W63640  11.827  17.055  10.462
59680W        W63641  11.348  16.222  10.093
59681W        W63642  12.339  16.327   9.887
59682W        W63643  14.107  14.686  10.149
59683W        W63644  14.505  16.296  10.140
59684W        W63645  14.493  16.496   7.826
59685W        W63646  13.356  16.828   7.925
59686W        W63647  13.830  18.128   7.620
59687W        W63648  13.007  16.118  10.762
59688W        W63649  11.337  17.085  10.802
59689W        W63650  14.261  15.935   9.375
59690W        W63651  12.569  18.065  10.852
59691W        W63652  12.424  14.694   7.579
59692W        W63653  13.963  17.293   7.522
59693W        W63654  11.732  15.386  10.408
59694W        W63655  12.166  17.380  10.270
59695W        W63656  14.292  15.371  10.068
59696W        W63657  13.503  18.030   8.036
59697W        W63658  13.742  16.649   9.403
59698W        W63659  11.992  15.065  10.070
59699W        W63660  12.461  16.134  10.827
59700W        W63661  11.964  17.313   8.021
59701W        W63662  13.719  16.811   8.285
59702W        W63663  11.487  15.437  10.009
59703W        W63664  12.816  17.499   8.473
59704W        W63665  14.566  16.059   8.654
59705W        W63666  12.788  14.692  10.373
59706W        W63667  13.568  17.397   9.452
59707W        W63668  13.871  17.741   9.160
59708W        W63669  13.090  17.543   7.588
59709W        W63670  11.100  17.435  10.430
59710W        W63671  11.843  15.427   9.668
59711W        W63672  11.813  14.775   8.778
59712W        W63673  13.434  15.617   9.470
59713W        W63674  12.232  16.788   7.670
59714W        W63675  14.230  16.730   9.169
59715W        W63676  11.557  17.488  10.592
59716W        W63677  13.944  18.170   8.389
59717W        W63678  12.043  15.190   8.834
59718W        W63679  11.812  16.683   8.924
59719W        W63680  12.125  18.094   9.674
59720W        W63681  14.192  18.190  10.706
59721W        W63682  13.351  16.378   9.639
59722W        W63683  11.200  16.176   7.554
59723W        W63684  14.334  17.834   8.251
59724W        W63685  14.171  15.158   7.870
59725W        W63686  12.310  14.677  10.273
59726W        W63687  14.016  17.479   8.731
59727W        W63688  14.045  16.035   8.636
59728W        W63689  12.162  15.708   8.852
59729W        W63690  12.407  15.970  10.176
59730W        W63691  13.518  17.123  10.039
59731W        W63692  12.168  15.577  10.151
59732W        W63693  12.147  18.043   8.767
59733W        W63694  11.464  18.002  10.401
59734W        W63695  11.576  17.363   7.531
59735W        W63696  14.093  17.121   8.341
59736W        W63697  11.697  15.913  10.227
59737W        W63698  14.470  15.843   7.708
59738W        W63699  12.215  16.900   8.179
59739W        W63700  13.314  16.282  10.260
59740W        W63701  13.205  15.910   9.804
59741W        W63702  11.765  16.282   9.833
59742W        W63703  13.975  18.170   9.662
59743W        W63704  13.766  14.804  10.656
59744W        W63705  11.430  14.954  10.243
59745W        W63706  11.769  15.977   9.296
59746W        W63707  12.138  15.791   7.418
59747W        W63708  10.941  17.550   9.963
59748W        W63709  12.526  16.259   9.406
59749W        W63710  12.349  15.284   7.511
59750W        W63711  11.484  16.100   8.292
59751W        W63712  11.255  17.952   9.729
59752W        W63713  14.050  16.178   7.837
59753W        W63714  13.581  17.303   8.486
59754W        W63715  11.179  16.227  10.663
59755W        W63716  14.145  14.691   7.959
59756W        W63717  13.665  17.166   7.970
59757W        W63718  12.567  16.224   8.055
59758W        W63719  13.754  15.028   7.578
59759W        W63720  13.819  15.635   9.764
59760W        W63721  11.528  16.228   8.971
59761W        W63722  11.822  17.167   8.620
59762W        W63723  13.585  15.787   8.585
59763W        W63724  12.608  15.166   9.281
59764W        W63725  14.570  17.077   9.792
59765W        W63726  14.488  15.064   9.353
59766W        W63727  11.027  17.894   8.729
59767W        W63728  11.536  17.081   8.265
59768W        W63729  11.451  14.698  10.818
59769W        W63730  12.570  17.551  10.920
59770W        W63731  14.325  16.519   8.710
59771W        W63732  13.679  16.696   7.590
59772W        W63733  12.974  18.217   9.802
59773W        W63734  13.831  16.939  10.839
59774W        W63735  12.646  14.649   8.119
59775W        W63736  13.359  15.518   8.978
59776W        W63737  11.045  17.105   9.310
59777W        W63738  12.298  15.067   7.951
59778W        W63739  12.102  16.551  10.800
59779W        W63740  13.096  15.532   8.514
59780W        W63741  13.301  16.942   9.636
59781W        W63742  11.455  17.547  10.071
59782W        W63743  12.046  17.530  10.794
59783W        W63744  11.897  15.327   7.808
59784W        W63745  13.414  15.469   8.133
59785W        W63746  13.372  17.577  10.370
59786W        W63747  12.057  16.169   8.969
59787W        W63748  11.712  17.867   9.834
59788W        W63749  14.457  17.984   7.435
59789W        W63750  11.320  16.656  10.431
59790W        W63751  13.315  16.918   9.119
59791W        W63752  11.751  16.567   8.361
59792W        W63753  12.122  17.574   9.756
59793W        W63754  12.500  14.993   8.797
59794W        W63755  11.111  16.977   7.727
59795W        W63756  12.630  15.928   7.597
59796W        W63757  11.276  16.477   8.616
59797W        W63758  12.566  15.119  10.080
59798W        W63759  14.238  14.828   7.507
59799W        W63760  14.331  16.574  10.606
59800W        W63761  12.985  17.831  10.758
59801W        W63762  14.543  16.925  10.280
59802W        W63763  13.951  17.723  10.891
59803W        W63764  11.690  18.179   9.369
59804W        W63765  14.549  16.801   8.243
59805W        W63766  13.079  16.068   8.756
59806W        W63767  12.846  14.680   8.646
59807W        W63768  11.905  17.664   8.483
59808W        W63769  12.404  15.405   9.708
59809W        W63770  12.104  14.774   9.177
59810W        W63771  11.167  17.596   7.725
59811W        W63772  12.983  16.960   8.443
59812W        W63773  11.858  17.755  10.322
59813W        W63774  11.335  16.578   8.018
59814W        W63775  11.220  15.121   9.017
59815W        W63776  12.768  17.086   9.074
59816W        W63777  11.020  14.940   8.094
59817W        W63778  13.684  16.146  10.021
59818W        W63779  13.561  15.532   7.593
59819W        W63780  14.078  17.204   9.241
59820W        W63781  12.739  17.688   9.072
59821W        W63782  12.151  17.792   7.983
59822W        W63783  13.433  14.695   7.413
59823W        W63784  11.233  17.955   9.154
59824W        W63785  13.430  15.713  10.789
59825W        W63786  11.413  15.243  10.788
59826W        W63787  11.144  15.843   8.121
59827W        W63788  11.835  15.832   7.846
59828W        W63789  13.598  16.159  10.663
59829W        W63790  11.941  16.440   9.372
59830W        W63791  13.415  14.726   8.492
59831W        W63792  12.546  18.157   8.995
59832W        W63793  13.760  17.619   9.932
59833W        W63794  13.344  17.768   9.043
59834W        W63795  13.363  16.748   8.637
59835W        W63796  12.825  14.973   7.708
59836W        W63797  14.506  14.601   8.430
59837W        W63798  12.194  16.236   7.593
59838W        W63799  14.360  15.573   8.583
59839W        W63800  13.052  16.743   7.460
59840W        W63801  13.988  16.943  10.208
59841W        W63802  13.642  17.644   7.675
59842W        W63803  12.257  15.319  10.581
59843W        W63804  12.077  15.903   9.822
59844W        W63805  14.169  17.398  10.099
59845W        W63806  13.269  15.348  10.476
59846W        W63807  11.113  15.819  10.253
59847W        W63808  12.873  16.296   9.979
59848W        W63809  11.230  17.054   8.636
59849W        W63810  11.377  16.351   9.526
59850W        W63811  13.694  16.637   9.876
59851W        W63812  13.466  18.017  10.687
59852W        W63813  13.362  15.756  10.240
59853W        W63814  13.639  17.810   8.645
59854W        W63815  12.641  17.530   9.968
59855W        W63816  12.126  17.885   9.237
59856W        W63817  13.931  17.056   9.656
59857W        W63818  12.981  17.128  10.793
59858W        W63819  11.586  17.081   9.132
59859W        W63820  13.932  16.840   8.777
59860W        W63821  13.573  17.906   9.528
59861W        W63822  11.551  17.635   9.398
59862W        W63823  12.572  15.687  10.608
59863W        W63824  13.023  17.853   8.119
59864W        W63825  12.331  17.108  10.757
59865W        W63826  12.457  17.346   8.134
59866W        W63827  11.678  16.086   7.393
59867W        W63828  11.017  18.172  14.292
59868W        W63829  11.393  17.065  13.815
59869W        W63830  14.098  16.795  11.585
59870W        W63831  14.228  17.880  13.612
59871W        W63832  12.146  17.871  11.138
59872W        W63833  12.229  16.023  12.121
59873W        W63834  11.744  15.871  12.285
59874W        W63835  12.735  16.686  11.719
59875W        W63836  12.410  17.778  14.074
59876W        W63837  11.059  15.339  14.037
59877W        W63838  11.821  14.619  13.839
59878W        W63839  13.515  15.007  12.726
59879W        W63840  13.164  15.878  11.296
59880W        W63841  13.734  15.312  14.387
59881W        W63842  11.100  15.104  13.512
59882W        W63843  11.199  17.723  14.533
59883W        W63844  12.721  17.113  11.265
59884W        W63845  11.153  15.896  12.958
59885W        W63846  12.046  15.787  14.195
59886W        W63847  14.505  15.646  12.694
59887W        W63848  14.269  16.689  13.553
59888W        W63849  12.577  16.022  12.580
59889W        W63850  13.123  17.361  12.949
59890W        W63851  11.623  16.795  13.181
59891W        W63852  10.982  16.323  12.752
59892W        W63853  12.018  16.295  13.944
59893W        W63854  14.289  16.078  14.198
59894W        W63855  11.905  17.522  12.643
59895W        W63856  13.026  17.211  13.777
59896W        W63857  12.246  15.851  13.002
59897W        W63858  12.538  16.635  12.645
59898W        W63859  13.535  17.408  14.493
59899W        W63860  12.614  16.728  14.503
59900W        W63861  12.595  16.444  13.981
59901W        W63862  11.004  15.835  14.503
59902W        W63863  13.836  17.370  14.102
59903W        W63864  11.417  14.952  12.100
59904W        W63865  11.944  17.210  13.099
59905W        W63866  14.407  16.993  12.389
59906W        W63867  13.820  15.393  12.956
59907W        W63868  14.105  15.346  11.051
59908W        W63869  14.570  16.147  13.357
59909W        W63870  12.537  17.854  13.110
59910W        W63871  14.311  17.320  11.548
59911W        W63872  11.440  18.106  11.302
59912W        W63873  11.833  18.152  11.978
59913W        W63874  11.630  14.906  13.404
59914W        W63875  14.253  15.924  13.679
59915W        W63876  13.658  16.346  12.138
59916W        W63877  13.624  16.034  11.165
59917W        W63878  12.832  17.178  13.305
59918W        W63879  12.638  15.508  12.504
59919W        W63880  13.238  17.595  13.498
59920W        W63881  14.109  16.386  11.920
59921W        W63882  13.011  15.044  11.936
59922W        W63883  11.668  17.738  11.619
59923W        W63884  11.039  15.237  12.218
59924W        W63885  13.825  15.844  12.692
59925W        W63886  11.283  17.461  12.607
59926W        W63887  12.624  17.811  11.477
59927W        W63888  14.016  15.837  10.941
59928W        W63889  11.039  17.595  13.105
59929W        W63890  11.830  17.167  13.585
59930W        W63891  12.203  16.527  12.204
59931W        W63892  12.225  14.932  13.297
59932W        W63893  14.454  14.694  12.594
59933W        W63894  11.673  16.566  11.062
59934W        W63895  11.328  15.599  11.241
59935W        W63896  11.390  17.555  12.035
59936W        W63897  12.521  17.038  12.283
59937W        W63898  13.853  17.897  13.997
59938W        W63899  12.779  15.539  11.681
59939W        W63900  14.162  17.937  12.453
59940W        W63901  13.839  15.790  14.051
59941W        W63902  14.552  17.446  12.185
59942W        W63903  13.179  16.738  13.669
59943W        W63904  10.945  16.289  11.875
59944W        W63905  12.056  16.704  13.448
59945W        W63906  13.260  15.968  11.826
59946W        W63907  13.137  16.458  11.930
59947W        W63908  11.480  15.878  13.404
59948W        W63909  11.465  15.754  14.326
59949W        W63910  11.355  14.671  12.485
59950W        W63911  13.123  15.018  13.046
59951W        W63912  12.771  15.203  14.209
59952W        W63913  13.126  15.352  11.387
59953W        W63914  14.309  17.745  14.141
59954W        W63915  13.276  14.826  14.180
59955W        W63916  14.295  17.127  14.302
59956W        W63917  13.725  15.294  13.898
59957W        W63918  13.525  15.232  12.168
59958W        W63919  13.918  16.366  14.572
59959W        W63920  11.658  17.942  12.558
59960W        W63921  12.316  15.659  11.544
59961W        W63922  11.885  14.943  14.208
59962W        W63923  13.937  15.427  11.889
59963W        W63924  14.304  15.909  11.834
59964W        W63925  12.047  18.126  14.305
59965W        W63926  11.973  14.662  11.540
59966W        W63927  14.294  15.196  12.575
59967W        W63928  14.444  17.445  11.020
59968W        W63929  11.351  16.648  12.722
59969W        W63930  13.268  15.235  10.952
59970W        W63931  14.402  17.567  12.672
59971W        W63932  14.441  14.761  13.422
59972W        W63933  12.886  15.973  13.976
59973W        W63934  12.979  17.312  11.679
59974W        W63935  13.379  16.606  14.419
59975W        W63936  13.053  14.583  12.728
59976W        W63937  11.665  15.486  12.791
59977W        W63938  11.219  16.686  13.565
59978W        W63939  13.078  17.879  12.271
59979W        W63940  14.272  15.476  13.143
59980W        W63941  12.909  17.823  13.910
59981W        W63942  14.252  16.882  11.115
59982W        W63943  12.687  16.365  12.176
59983W        W63944  14.539  14.876  13.917
59984W        W63945  12.688  16.711  13.511
59985W        W63946  12.905  15.597  12.956
59986W        W63947  13.757  15.895  11.794
59987W        W63948  14.044  15.628  11.436
59988W        W63949  13.853  17.668  11.825
59989W        W63950  13.687  17.271  12.621
59990W        W63951  13.583  16.350  11.599
59991W        W63952  13.016  16.560  12.585
59992W        W63953  13.897  16.348  12.652
59993W        W63954  11.272  15.363  13.076
59994W        W63955  14.050  16.415  13.903
59995W        W63956  14.401  18.033  13.049
59996W        W63957  12.331  17.477  12.451
59997W        W63958  13.338  18.010  13.775
59998W        W63959  13.332  15.340  13.539
59999W        W63960  12.539  18.048  13.600
60000W        W63961  14.236  15.002  12.066
60001W        W63962  14.027  16.321  13.367
60002W        W63963  11.010  15.642  13.405
60003W        W63964  13.870  15.437  12.423
60004W        W63965  14.281  15.588  14.200
60005W        W63966  13.166  17.287  12.418
60006W        W63967  12.422  17.878  12.031
60007W        W63968  11.537  15.058  11.289
60008W        W63969  12.641  14.712  13.099
60009W        W63970  11.669  17.832  10.947
60010W        W63971  12.043  16.298  11.698
60011W        W63972  12.697  16.927  14.011
60012W        W63973  12.527  15.285  12.001
60013W        W63974  13.883  14.882  12.429
60014W        W63975  13.603  18.164  12.757
60015W        W63976  13.015  17.812  13.097
60016W        W63977  12.411  16.849  13.058
60017W        W63978  14.181  17.572  13.184
60018W        W63979  11.875  15.075  11.953
60019W        W63980  12.397  17.372  12.913
60020W        W63981  11.880  15.303  10.978
60021W        W63982  12.681  15.912  13.372
60022W        W63983  13.529  14.778  13.242
60023W        W63984  10.949  16.621  13.127
60024W        W63985  12.653  16.439  11.285
60025W        W63986  11.921  14.754  11.055
60026W        W63987  12.659  15.835  12.106
60027W        W63988  13.629  14.811  13.805
60028W        W63989  12.217  16.823  13.914
60029W        W63990  13.021  16.605  14.131
60030W        W63991  13.638  16.635  14.024
60031W        W63992  12.922  14.775  14.529
60032W        W63993  12.144  15.391  12.922
60033W        W63994  11.570  15.347  12.320
60034W        W63995  11.356  18.059  11.996
60035W        W63996  12.688  17.389  14.121
60036W        W63997  11.723  16.874  11.480
60037W        W63998  13.403  16.259  12.701
60038W        W63999  13.683  16.058  13.100
60039W        W64000  12.888  16.732  13.034
60040W        W64001  13.358  17.106  11.166
60041W        W64002  13.030  15.127  12.494
60042W        W64003  14.509  15.405  11.762
60043W        W64004  11.003  17.994  13.793
60044W        W64005  11.420  17.220  13.325
60045W        W64006  10.987  18.066  11.557
60046W        W64007  12.886  15.336  13.363
60047W        W64008  12.249  17.359  11.212
60048W        W64009  14.154  17.741  11.398
60049W        W64010  13.129  16.394  11.412
60050W        W64011  11.972  15.585  11.929
60051W        W64012  12.804  15.495  10.981
60052W        W64013  13.388  17.060  14.159
60053W        W64014  13.741  14.966  11.776
60054W        W64015  11.071  14.814  11.224
60055W        W64016  12.357  17.133  13.514
60056W        W64017  12.156  17.049  12.606
60057W        W64018  11.898  17.001  11.004
60058W        W64019  11.139  17.242  11.772
60059W        W64020  11.643  16.312  14.214
60060W        W64021  12.347  14.872  14.400
60061W        W64022  13.056  15.014  13.756
60062W        W64023  12.251  14.782  12.037
60063W        W64024  13.310  14.859  11.542
60064W        W64025  11.255  14.791  13.119
60065W        W64026  11.303  15.754  12.489
60066W        W64027  13.992  14.862  12.895
60067W        W64028  11.414  15.360  11.709
60068W        W64029  13.985  15.048  13.325
60069W        W64030  14.381  16.251  11.010
60070W        W64031  11.673  15.009  12.829
60071W        W64032  12.787  15.581  13.769
60072W        W64033  10.935  15.271  11.247
60073W        W64034  11.721  16.660  13.808
60074W        W64035  13.079  16.058  12.987
60075W        W64036  12.946  18.137  11.283
60076W        W64037  11.092  16.644  10.980
60077W        W64038  11.827  17.055  14.106
60078W        W64039  11.348  16.222  13.737
60079W        W64040  12.339  16.327  13.531
60080W        W64041  14.107  14.686  13.793
60081W        W64042  14.505  16.296  13.784
60082W        W64043  14.493  16.496  11.470
60083W        W64044  13.356  16.828  11.569
60084W        W64045  13.830  18.128  11.264
60085W        W64046  13.007  16.118  14.406
60086W        W64047  11.337  17.085  14.446
60087W        W64048  14.543  15.007  14.398
60088W        W64049  14.261  15.935  13.019
60089W        W64050  12.569  18.065  14.496
60090W        W64051  12.424  14.694  11.223
60091W        W64052  13.963  17.293  11.166
60092W        W64053  11.732  15.386  14.052
60093W        W64054  12.166  17.380  13.914
60094W        W64055  14.292  15.371  13.712
60095W        W64056  13.503  18.030  11.680
60096W        W64057  13.742  16.649  13.047
60097W        W64058  11.992  15.065  13.714
60098W        W64059  12.461  16.134  14.471
60099W        W64060  11.964  17.313  11.665
60100W        W64061  13.719  16.811  11.929
60101W        W64062  11.487  15.437  13.653
60102W        W64063  12.816  17.499  12.117
60103W        W64064  14.566  16.059  12.298
60104W        W64065  12.788  14.692  14.017
60105W        W64066  13.568  17.397  13.096
60106W        W64067  13.871  17.741  12.804
60107W        W64068  13.090  17.543  11.232
60108W        W64069  11.100  17.435  14.074
60109W        W64070  11.843  15.427  13.312
60110W        W64071  11.813  14.775  12.422
60111W        W64072  13.434  15.617  13.114
60112W        W64073  12.232  16.788  11.314
60113W        W64074  14.230  16.730  12.813
60114W        W64075  11.557  17.488  14.236
60115W        W64076  13.944  18.170  12.033
60116W        W64077  12.043  15.190  12.478
60117W        W64078  11.812  16.683  12.568
60118W        W64079  12.125  18.094  13.318
60119W        W64080  14.192  18.190  14.350
60120W        W64081  13.351  16.378  13.283
60121W        W64082  11.200  16.176  11.198
60122W        W64083  14.334  17.834  11.895
60123W        W64084  14.171  15.158  11.514
60124W        W64085  12.310  14.677  13.917
60125W        W64086  14.016  17.479  12.375
60126W        W64087  14.045  16.035  12.280
60127W        W64088  12.162  15.708  12.496
60128W        W64089  12.407  15.970  13.820
60129W        W64090  13.518  17.123  13.683
60130W        W64091  12.168  15.577  13.795
60131W        W64092  12.147  18.043  12.411
60132W        W64093  11.464  18.002  14.045
60133W        W64094  11.576  17.363  11.175
60134W        W64095  14.093  17.121  11.985
60135W        W64096  11.697  15.913  13.871
60136W        W64097  14.470  15.843  11.352
60137W        W64098  12.215  16.900  11.823
60138W        W64099  13.314  16.282  13.904
60139W        W64100  13.205  15.910  13.448
60140W        W64101  11.765  16.282  13.477
60141W        W64102  13.975  18.170  13.306
60142W        W64103  13.766  14.804  14.300
60143W        W64104  11.430  14.954  13.887
60144W        W64105  11.769  15.977  12.940
60145W        W64106  12.138  15.791  11.062
60146W        W64107  10.941  17.550  13.607
60147W        W64108  12.526  16.259  13.050
60148W        W64109  12.349  15.284  11.155
60149W        W64110  11.484  16.100  11.936
60150W        W64111  11.255  17.952  13.373
60151W        W64112  14.050  16.178  11.481
60152W        W64113  14.145  15.094  14.167
60153W        W64114  13.581  17.303  12.130
60154W        W64115  11.179  16.227  14.307
60155W        W64116  14.145  14.691  11.603
60156W        W64117  13.665  17.166  11.614
60157W        W64118  12.567  16.224  11.699
60158W        W64119  13.754  15.028  11.222
60159W        W64120  13.819  15.635  13.408
60160W        W64121  11.528  16.228  12.615
60161W        W64122  11.822  17.167  12.264
60162W        W64123  13.585  15.787  12.229
60163W        W64124  12.608  15.166  12.925
60164W        W64125  14.570  17.077  13.436
60165W        W64126  14.488  15.064  12.997
60166W        W64127  11.027  17.894  12.373
60167W        W64128  11.536  17.081  11.909
60168W        W64129  11.451  14.698  14.462
60169W        W64130  12.570  17.551  14.564
60170W        W64131  14.325  16.519  12.354
60171W        W64132  13.679  16.696  11.234
60172W        W64133  12.974  18.217  13.446
60173W        W64134  13.831  16.939  14.483
60174W        W64135  12.646  14.649  11.763
60175W        W64136  13.359  15.518  12.622
60176W        W64137  11.045  17.105  12.954
60177W        W64138  12.298  15.067  11.595
60178W        W64139  12.102  16.551  14.444
60179W        W64140  13.096  15.532  12.158
60180W        W64141  13.301  16.942  13.280
60181W        W64142  11.455  17.547  13.715
60182W        W64143  12.046  17.530  14.438
60183W        W64144  11.897  15.327  11.452
60184W        W64145  13.414  15.469  11.777
60185W        W64146  13.372  17.577  14.014
60186W        W64147  12.057  16.169  12.613
60187W        W64148  11.712  17.867  13.478
60188W        W64149  14.457  17.984  11.079
60189W        W64150  11.320  16.656  14.075
60190W        W64151  13.315  16.918  12.763
60191W        W64152  11.751  16.567  12.005
60192W        W64153  12.122  17.574  13.400
60193W        W64154  12.500  14.993  12.441
60194W        W64155  11.111  16.977  11.371
60195W        W64156  12.630  15.928  11.241
60196W        W64157  11.276  16.477  12.260
60197W        W64158  12.566  15.119  13.724
60198W        W64159  14.238  14.828  11.151
60199W        W64160  14.331  16.574  14.250
60200W        W64161  12.985  17.831  14.402
60201W        W64162  14.543  16.925  13.924
60202W        W64163  13.951  17.723  14.535
60203W        W64164  11.690  18.179  13.013
60204W        W64165  14.549  16.801  11.887
60205W        W64166  13.079  16.068  12.400
60206W        W64167  12.846  14.680  12.290
60207W        W64168  11.905  17.664  12.127
60208W        W64169  12.404  15.405  13.352
60209W        W64170  12.104  14.774  12.821
60210W        W64171  11.167  17.596  11.369
60211W        W64172  12.983  16.960  12.087
60212W        W64173  11.858  17.755  13.966
60213W        W64174  11.335  16.578  11.662
60214W        W64175  11.220  15.121  12.661
60215W        W64176  12.768  17.086  12.718
60216W        W64177  11.020  14.940  11.738
60217W        W64178  13.684  16.146  13.665
60218W        W64179  13.561  15.532  11.237
60219W        W64180  14.078  17.204  12.885
60220W        W64181  12.739  17.688  12.716
60221W        W64182  12.151  17.792  11.627
60222W        W64183  13.433  14.695  11.057
60223W        W64184  11.233  17.955  12.798
60224W        W64185  13.430  15.713  14.433
60225W        W64186  11.413  15.243  14.432
60226W        W64187  11.144  15.843  11.765
60227W        W64188  11.835  15.832  11.490
60228W        W64189  13.598  16.159  14.307
60229W        W64190  11.941  16.440  13.016
60230W        W64191  13.415  14.726  12.136
60231W        W64192  12.546  18.157  12.639
60232W        W64193  13.760  17.619  13.576
60233W        W64194  13.344  17.768  12.687
60234W        W64195  13.363  16.748  12.281
60235W        W64196  12.825  14.973  11.352
60236W        W64197  14.506  14.601  12.074
60237W        W64198  12.194  16.236  11.237
60238W        W64199  14.360  15.573  12.227
60239W        W64200  13.052  16.743  11.104
60240W        W64201  13.988  16.943  13.852
60241W        W64202  13.642  17.644  11.319
60242W        W64203  12.257  15.319  14.225
60243W        W64204  12.077  15.903  13.466
60244W        W64205  14.169  17.398  13.743
60245W        W64206  13.269  15.348  14.120
60246W        W64207  11.113  15.819  13.897
60247W        W64208  12.873  16.296  13.623
60248W        W64209  11.230  17.054  12.280
60249W        W64210  11.377  16.351  13.170
60250W        W64211  13.694  16.637  13.520
60251W        W64212  13.466  18.017  14.331
60252W        W64213  13.362  15.756  13.884
60253W        W64214  13.639  17.810  12.289
60254W        W64215  12.641  17.530  13.612
60255W        W64216  12.126  17.885  12.881
60256W        W64217  13.931  17.056  13.300
60257W        W64218  12.981  17.128  14.437
60258W        W64219  11.586  17.081  12.776
60259W        W64220  13.932  16.840  12.421
60260W        W64221  13.573  17.906  13.172
60261W        W64222  11.551  17.635  13.042
60262W        W64223  12.572  15.687  14.252
60263W        W64224  13.023  17.853  11.763
60264W        W64225  12.331  17.108  14.401
60265W        W64226  12.457  17.346  11.778
60266W        W64227  11.678  16.086  11.037
60267W        W64228  11.017  18.172  17.936
60268W        W64229  11.393  17.065  17.459
60269W        W64230  14.098  16.795  15.229
60270W        W64231  14.228  17.880  17.256
60271W        W64232  12.146  17.871  14.782
60272W        W64233  12.229  16.023  15.765
60273W        W64234  11.744  15.871  15.929
60274W        W64235  12.735  16.686  15.363
60275W        W64236  12.410  17.778  17.718
60276W        W64237  11.059  15.339  17.681
60277W        W64238  11.821  14.619  17.483
60278W        W64239  13.515  15.007  16.370
60279W        W64240  13.164  15.878  14.940
60280W        W64241  13.734  15.312  18.031
60281W        W64242  11.100  15.104  17.156
60282W        W64243  11.199  17.723  18.177
60283W        W64244  12.721  17.113  14.909
60284W        W64245  11.153  15.896  16.602
60285W        W64246  12.046  15.787  17.839
60286W        W64247  14.505  15.646  16.338
60287W        W64248  14.269  16.689  17.197
60288W        W64249  12.577  16.022  16.224
60289W        W64250  13.123  17.361  16.593
60290W        W64251  11.623  16.795  16.825
60291W        W64252  10.982  16.323  16.396
60292W        W64253  12.018  16.295  17.588
60293W        W64254  14.289  16.078  17.842
60294W        W64255  11.905  17.522  16.287
60295W        W64256  13.026  17.211  17.421
60296W        W64257  12.246  15.851  16.646
60297W        W64258  12.538  16.635  16.289
60298W        W64259  13.535  17.408  18.137
60299W        W64260  12.614  16.728  18.147
60300W        W64261  12.595  16.444  17.625
60301W        W64262  11.004  15.835  18.147
60302W        W64263  13.836  17.370  17.746
60303W        W64264  11.417  14.952  15.744
60304W        W64265  11.944  17.210  16.743
60305W        W64266  14.407  16.993  16.033
60306W        W64267  13.820  15.393  16.600
60307W        W64268  14.105  15.346  14.695
60308W        W64269  14.570  16.147  17.001
60309W        W64270  12.537  17.854  16.754
60310W        W64271  14.311  17.320  15.192
60311W        W64272  11.440  18.106  14.946
60312W        W64273  11.833  18.152  15.622
60313W        W64274  11.630  14.906  17.048
60314W        W64275  14.253  15.924  17.323
60315W        W64276  13.658  16.346  15.782
60316W        W64277  13.624  16.034  14.809
60317W        W64278  12.832  17.178  16.949
60318W        W64279  12.638  15.508  16.148
60319W        W64280  13.238  17.595  17.142
60320W        W64281  14.109  16.386  15.564
60321W        W64282  13.011  15.044  15.580
60322W        W64283  11.668  17.738  15.263
60323W        W64284  11.039  15.237  15.862
60324W        W64285  13.825  15.844  16.336
60325W        W64286  11.283  17.461  16.251
60326W        W64287  12.624  17.811  15.121
60327W        W64288  14.016  15.837  14.585
60328W        W64289  11.039  17.595  16.749
60329W        W64290  11.830  17.167  17.229
60330W        W64291  12.203  16.527  15.848
60331W        W64292  12.225  14.932  16.941
60332W        W64293  14.454  14.694  16.238
60333W        W64294  11.673  16.566  14.706
60334W        W64295  11.328  15.599  14.885
60335W        W64296  11.390  17.555  15.679
60336W        W64297  12.521  17.038  15.927
60337W        W64298  13.853  17.897  17.641
60338W        W64299  12.779  15.539  15.325
60339W        W64300  14.162  17.937  16.097
60340W        W64301  13.839  15.790  17.695
60341W        W64302  14.552  17.446  15.829
60342W        W64303  13.179  16.738  17.313
60343W        W64304  10.945  16.289  15.519
60344W        W64305  12.056  16.704  17.092
60345W        W64306  13.260  15.968  15.470
60346W        W64307  13.137  16.458  15.574
60347W        W64308  11.480  15.878  17.048
60348W        W64309  11.465  15.754  17.970
60349W        W64310  11.355  14.671  16.129
60350W        W64311  13.123  15.018  16.690
60351W        W64312  12.771  15.203  17.853
60352W        W64313  13.126  15.352  15.031
60353W        W64314  14.309  17.745  17.785
60354W        W64315  13.276  14.826  17.824
60355W        W64316  14.295  17.127  17.946
60356W        W64317  13.725  15.294  17.542
60357W        W64318  13.525  15.232  15.812
60358W        W64319  13.918  16.366  18.216
60359W        W64320  11.658  17.942  16.202
60360W        W64321  12.316  15.659  15.188
60361W        W64322  11.885  14.943  17.852
60362W        W64323  13.937  15.427  15.533
60363W        W64324  14.304  15.909  15.478
60364W        W64325  12.047  18.126  17.949
60365W        W64326  11.973  14.662  15.184
60366W        W64327  14.294  15.196  16.219
60367W        W64328  14.444  17.445  14.664
60368W        W64329  11.351  16.648  16.366
60369W        W64330  13.268  15.235  14.596
60370W        W64331  14.402  17.567  16.316
60371W        W64332  14.441  14.761  17.066
60372W        W64333  12.886  15.973  17.620
60373W        W64334  12.979  17.312  15.323
60374W        W64335  13.379  16.606  18.063
60375W        W64336  13.053  14.583  16.372
60376W        W64337  11.665  15.486  16.435
60377W        W64338  11.219  16.686  17.209
60378W        W64339  13.078  17.879  15.915
60379W        W64340  14.272  15.476  16.787
60380W        W64341  12.909  17.823  17.554
60381W        W64342  14.252  16.882  14.759
60382W        W64343  12.687  16.365  15.820
60383W        W64344  14.539  14.876  17.561
60384W        W64345  12.688  16.711  17.155
60385W        W64346  12.905  15.597  16.600
60386W        W64347  13.757  15.895  15.438
60387W        W64348  14.044  15.628  15.080
60388W        W64349  13.853  17.668  15.469
60389W        W64350  13.687  17.271  16.265
60390W        W64351  13.583  16.350  15.243
60391W        W64352  13.016  16.560  16.229
60392W        W64353  13.897  16.348  16.296
60393W        W64354  11.272  15.363  16.720
60394W        W64355  14.050  16.415  17.547
60395W        W64356  14.401  18.033  16.693
60396W        W64357  12.331  17.477  16.095
60397W        W64358  13.338  18.010  17.419
60398W        W64359  13.332  15.340  17.183
60399W        W64360  12.539  18.048  17.244
60400W        W64361  14.236  15.002  15.710
60401W        W64362  14.027  16.321  17.011
60402W        W64363  11.010  15.642  17.049
60403W        W64364  13.870  15.437  16.067
60404W        W64365  14.281  15.588  17.844
60405W        W64366  13.166  17.287  16.062
60406W        W64367  12.422  17.878  15.675
60407W        W64368  11.537  15.058  14.933
60408W        W64369  12.641  14.712  16.743
60409W        W64370  11.669  17.832  14.591
60410W        W64371  12.043  16.298  15.342
60411W        W64372  12.697  16.927  17.655
60412W        W64373  12.527  15.285  15.645
60413W        W64374  13.883  14.882  16.073
60414W        W64375  13.603  18.164  16.401
60415W        W64376  13.015  17.812  16.741
60416W        W64377  12.411  16.849  16.702
60417W        W64378  14.181  17.572  16.828
60418W        W64379  11.875  15.075  15.597
60419W        W64380  12.397  17.372  16.557
60420W        W64381  11.880  15.303  14.622
60421W        W64382  12.681  15.912  17.016
60422W        W64383  13.529  14.778  16.886
60423W        W64384  10.949  16.621  16.771
60424W        W64385  12.653  16.439  14.929
60425W        W64386  11.921  14.754  14.699
60426W        W64387  12.659  15.835  15.750
60427W        W64388  13.629  14.811  17.449
60428W        W64389  12.217  16.823  17.558
60429W        W64390  13.021  16.605  17.775
60430W        W64391  13.638  16.635  17.668
60431W        W64392  12.922  14.775  18.173
60432W        W64393  12.144  15.391  16.566
60433W        W64394  11.570  15.347  15.964
60434W        W64395  11.356  18.059  15.640
60435W        W64396  12.688  17.389  17.765
60436W        W64397  11.723  16.874  15.124
60437W        W64398  13.403  16.259  16.345
60438W        W64399  13.683  16.058  16.744
60439W        W64400  12.888  16.732  16.678
60440W        W64401  13.358  17.106  14.810
60441W        W64402  13.030  15.127  16.138
60442W        W64403  14.509  15.405  15.406
60443W        W64404  11.003  17.994  17.437
60444W        W64405  11.420  17.220  16.969
60445W        W64406  10.987  18.066  15.201
60446W        W64407  12.886  15.336  17.007
60447W        W64408  12.249  17.359  14.856
60448W        W64409  14.154  17.741  15.042
60449W        W64410  13.129  16.394  15.056
60450W        W64411  11.972  15.585  15.573
60451W        W64412  12.804  15.495  14.625
60452W        W64413  13.388  17.060  17.803
60453W        W64414  13.741  14.966  15.420
60454W        W64415  11.071  14.814  14.868
60455W        W64416  12.357  17.133  17.158
60456W        W64417  12.156  17.049  16.250
60457W        W64418  11.898  17.001  14.648
60458W        W64419  11.139  17.242  15.416
60459W        W64420  11.643  16.312  17.858
60460W        W64421  12.347  14.872  18.044
60461W        W64422  13.056  15.014  17.400
60462W        W64423  12.251  14.782  15.681
60463W        W64424  13.310  14.859  15.186
60464W        W64425  11.255  14.791  16.763
60465W        W64426  11.303  15.754  16.133
60466W        W64427  13.992  14.862  16.539
60467W        W64428  11.414  15.360  15.353
60468W        W64429  13.985  15.048  16.969
60469W        W64430  14.381  16.251  14.654
60470W        W64431  11.673  15.009  16.473
60471W        W64432  12.787  15.581  17.413
60472W        W64433  10.935  15.271  14.891
60473W        W64434  11.721  16.660  17.452
60474W        W64435  13.079  16.058  16.631
60475W        W64436  12.946  18.137  14.927
60476W        W64437  11.092  16.644  14.624
60477W        W64438  11.827  17.055  17.750
60478W        W64439  11.348  16.222  17.381
60479W        W64440  12.339  16.327  17.175
60480W        W64441  14.107  14.686  17.437
60481W        W64442  14.505  16.296  17.428
60482W        W64443  14.493  16.496  15.114
60483W        W64444  13.356  16.828  15.213
60484W        W64445  13.830  18.128  14.908
60485W        W64446  13.007  16.118  18.050
60486W        W64447  11.337  17.085  18.090
60487W        W64448  14.543  15.007  18.042
60488W        W64449  14.261  15.935  16.663
60489W        W64450  12.569  18.065  18.140
60490W        W64451  12.424  14.694  14.867
60491W        W64452  13.963  17.293  14.810
60492W        W64453  11.732  15.386  17.696
60493W        W64454  12.166  17.380  17.558
60494W        W64455  14.292  15.371  17.356
60495W        W64456  13.503  18.030  15.324
60496W        W64457  13.742  16.649  16.691
60497W        W64458  11.992  15.065  17.358
60498W        W64459  12.461  16.134  18.115
60499W        W64460  11.964  17.313  15.309
60500W        W64461  13.719  16.811  15.573
60501W        W64462  11.487  15.437  17.297
60502W        W64463  12.816  17.499  15.761
60503W        W64464  14.566  16.059  15.942
60504W        W64465  12.788  14.692  17.661
60505W        W64466  13.568  17.397  16.740
60506W        W64467  13.871  17.741  16.448
60507W        W64468  13.090  17.543  14.876
60508W        W64469  11.100  17.435  17.718
60509W        W64470  11.843  15.427  16.956
60510W        W64471  11.813  14.775  16.066
60511W        W64472  13.434  15.617  16.758
60512W        W64473  12.232  16.788  14.958
60513W        W64474  14.230  16.730  16.457
60514W        W64475  11.557  17.488  17.880
60515W        W64476  13.944  18.170  15.677
60516W        W64477  12.043  15.190  16.122
60517W        W64478  11.812  16.683  16.212
60518W        W64479  12.125  18.094  16.962
60519W        W64480  14.192  18.190  17.994
60520W        W64481  13.351  16.378  16.927
60521W        W64482  11.200  16.176  14.842
60522W        W64483  14.334  17.834  15.539
60523W        W64484  14.171  15.158  15.158
60524W        W64485  12.310  14.677  17.561
60525W        W64486  14.016  17.479  16.019
60526W        W64487  14.045  16.035  15.924
60527W        W64488  12.162  15.708  16.140
60528W        W64489  12.407  15.970  17.464
60529W        W64490  13.518  17.123  17.327
60530W        W64491  12.168  15.577  17.439
60531W        W64492  12.147  18.043  16.055
60532W        W64493  11.464  18.002  17.689
60533W        W64494  11.576  17.363  14.819
60534W        W64495  14.093  17.121  15.629
60535W        W64496  11.697  15.913  17.515
60536W        W64497  14.470  15.843  14.996
60537W        W64498  12.215  16.900  15.467
60538W        W64499  13.314  16.282  17.548
60539W        W64500  13.205  15.910  17.092
60540W        W64501  11.765  16.282  17.121
60541W        W64502  13.975  18.170  16.950
60542W        W64503  13.766  14.804  17.944
60543W        W64504  11.430  14.954  17.531
60544W        W64505  11.769  15.977  16.584
60545W        W64506  12.138  15.791  14.706
60546W        W64507  10.941  17.550  17.251
60547W        W64508  12.526  16.259  16.694
60548W        W64509  12.349  15.284  14.799
60549W        W64510  11.484  16.100  15.580
60550W        W64511  11.255  17.952  17.017
60551W        W64512  14.050  16.178  15.125
60552W        W64513  14.145  15.094  17.811
60553W        W64514  13.581  17.303  15.774
60554W        W64515  11.179  16.227  17.951
60555W        W64516  14.145  14.691  15.247
60556W        W64517  13.665  17.166  15.258
60557W        W64518  12.567  16.224  15.343
60558W        W64519  13.754  15.028  14.866
60559W        W64520  13.819  15.635  17.052
60560W        W64521  11.528  16.228  16.259
60561W        W64522  11.822  17.167  15.908
60562W        W64523  13.585  15.787  15.873
60563W        W64524  12.608  15.166  16.569
60564W        W64525  14.570  17.077  17.080
60565W        W64526  14.488  15.064  16.641
60566W        W64527  11.027  17.894  16.017
60567W        W64528  11.536  17.081  15.553
60568W        W64529  11.451  14.698  18.106
60569W        W64530  12.570  17.551  18.208
60570W        W64531  14.325  16.519  15.998
60571W        W64532  13.679  16.696  14.878
60572W        W64533  12.974  18.217  17.090
60573W        W64534  13.831  16.939  18.127
60574W        W64535  12.646  14.649  15.407
60575W        W64536  13.359  15.518  16.266
60576W        W64537  11.045  17.105  16.598
60577W        W64538  12.298  15.067  15.239
60578W        W64539  12.102  16.551  18.088
60579W        W64540  13.096  15.532  15.802
60580W        W64541  13.301  16.942  16.924
60581W        W64542  11.455  17.547  17.359
60582W        W64543  12.046  17.530  18.082
60583W        W64544  11.897  15.327  15.096
60584W        W64545  13.414  15.469  15.421
60585W        W64546  13.372  17.577  17.658
60586W        W64547  12.057  16.169  16.257
60587W        W64548  11.712  17.867  17.122
60588W        W64549  14.457  17.984  14.723
60589W        W64550  11.320  16.656  17.719
60590W        W64551  13.315  16.918  16.407
60591W        W64552  11.751  16.567  15.649
60592W        W64553  12.122  17.574  17.044
60593W        W64554  12.500  14.993  16.085
60594W        W64555  11.111  16.977  15.015
60595W        W64556  12.630  15.928  14.885
60596W        W64557  11.276  16.477  15.904
60597W        W64558  12.566  15.119  17.368
60598W        W64559  14.238  14.828  14.795
60599W        W64560  14.331  16.574  17.894
60600W        W64561  12.985  17.831  18.046
60601W        W64562  14.543  16.925  17.568
60602W        W64563  13.951  17.723  18.179
60603W        W64564  11.690  18.179  16.657
60604W        W64565  14.549  16.801  15.531
60605W        W64566  13.079  16.068  16.044
60606W        W64567  12.846  14.680  15.934
60607W        W64568  11.905  17.664  15.771
60608W        W64569  12.404  15.405  16.996
60609W        W64570  12.104  14.774  16.465
60610W        W64571  11.167  17.596  15.013
60611W        W64572  12.983  16.960  15.731
60612W        W64573  11.858  17.755  17.610
60613W        W64574  11.335  16.578  15.306
60614W        W64575  11.220  15.121  16.305
60615W        W64576  12.768  17.086  16.362
60616W        W64577  11.020  14.940  15.382
60617W        W64578  13.684  16.146  17.309
60618W        W64579  13.561  15.532  14.881
60619W        W64580  14.078  17.204  16.529
60620W        W64581  12.739  17.688  16.360
60621W        W64582  12.151  17.792  15.271
60622W        W64583  13.433  14.695  14.701
60623W        W64584  11.233  17.955  16.442
60624W        W64585  13.430  15.713  18.077
60625W        W64586  11.413  15.243  18.076
60626W        W64587  11.144  15.843  15.409
60627W        W64588  11.835  15.832  15.134
60628W        W64589  13.598  16.159  17.951
60629W        W64590  11.941  16.440  16.660
60630W        W64591  13.415  14.726  15.780
60631W        W64592  12.546  18.157  16.283
60632W        W64593  13.760  17.619  17.220
60633W        W64594  13.344  17.768  16.331
60634W        W64595  13.363  16.748  15.925
60635W        W64596  12.825  14.973  14.996
60636W        W64597  14.506  14.601  15.718
60637W        W64598  12.194  16.236  14.881
60638W        W64599  14.360  15.573  15.871
60639W        W64600  13.052  16.743  14.748
60640W        W64601  13.988  16.943  17.496
60641W        W64602  13.642  17.644  14.963
60642W        W64603  12.257  15.319  17.869
60643W        W64604  12.077  15.903  17.110
60644W        W64605  14.169  17.398  17.387
60645W        W64606  13.269  15.348  17.764
60646W        W64607  11.113  15.819  17.541
60647W        W64608  12.873  16.296  17.267
60648W        W64609  11.230  17.054  15.924
60649W        W64610  11.377  16.351  16.814
60650W        W64611  13.694  16.637  17.164
60651W        W64612  13.466  18.017  17.975
60652W        W64613  13.362  15.756  17.528
60653W        W64614  13.639  17.810  15.933
60654W        W64615  12.641  17.530  17.256
60655W        W64616  12.126  17.885  16.525
60656W        W64617  13.931  17.056  16.944
60657W        W64618  12.981  17.128  18.081
60658W        W64619  11.586  17.081  16.420
60659W        W64620  13.932  16.840  16.065
60660W        W64621  13.573  17.906  16.816
60661W        W64622  11.551  17.635  16.686
60662W        W64623  12.572  15.687  17.896
60663W        W64624  13.023  17.853  15.407
60664W        W64625  12.331  17.108  18.045
60665W        W64626  12.457  17.346  15.422
60666W        W64627  11.678  16.086  14.681
60667W        W64628  11.017  18.172  21.580
60668W        W64629  11.393  17.065  21.103
60669W        W64630  14.098  16.795  18.873
60670W        W64631  14.228  17.880  20.900
60671W        W64632  12.146  17.871  18.426
60672W        W64633  12.229  16.023  19.409
60673W        W64634  11.744  15.871  19.573
60674W        W64635  12.735  16.686  19.007
60675W        W64636  12.410  17.778  21.362
60676W        W64637  11.059  15.339  21.325
60677W        W64638  11.821  14.619  21.127
60678W        W64639  13.515  15.007  20.014
60679W        W64640  13.164  15.878  18.584
60680W        W64641  13.734  15.312  21.675
60681W        W64642  11.100  15.104  20.800
60682W        W64643  11.199  17.723  21.821
60683W        W64644  12.721  17.113  18.553
60684W        W64645  11.153  15.896  20.246
60685W        W64646  12.046  15.787  21.483
60686W        W64647  14.505  15.646  19.982
60687W        W64648  14.269  16.689  20.841
60688W        W64649  12.577  16.022  19.868
60689W        W64650  13.123  17.361  20.237
60690W        W64651  11.623  16.795  20.469
60691W        W64652  10.982  16.323  20.040
60692W        W64653  12.018  16.295  21.232
60693W        W64654  14.289  16.078  21.486
60694W        W64655  11.905  17.522  19.931
60695W        W64656  13.026  17.211  21.065
60696W        W64657  12.246  15.851  20.290
60697W        W64658  12.538  16.635  19.933
60698W        W64659  13.535  17.408  21.781
60699W        W64660  12.614  16.728  21.791
60700W        W64661  12.595  16.444  21.269
60701W        W64662  11.004  15.835  21.791
60702W        W64663  13.836  17.370  21.390
60703W        W64664  11.417  14.952  19.388
60704W        W64665  11.944  17.210  20.387
60705W        W64666  14.407  16.993  19.677
60706W        W64667  13.820  15.393  20.244
60707W        W64668  14.105  15.346  18.339
60708W        W64669  14.570  16.147  20.645
60709W        W64670  12.537  17.854  20.398
60710W        W64671  14.311  17.320  18.836
60711W        W64672  11.440  18.106  18.590
60712W        W64673  11.833  18.152  19.266
60713W        W64674  11.630  14.906  20.692
60714W        W64675  14.253  15.924  20.967
60715W        W64676  13.658  16.346  19.426
60716W        W64677  13.624  16.034  18.453
60717W        W64678  12.832  17.178  20.593
60718W        W64679  12.638  15.508  19.792
60719W        W64680  13.238  17.595  20.786
60720W        W64681  14.109  16.386  19.208
60721W        W64682  13.011  15.044  19.224
60722W        W64683  11.668  17.738  18.907
60723W        W64684  11.039  15.237  19.506
60724W        W64685  13.825  15.844  19.980
60725W        W64686  11.283  17.461  19.895
60726W        W64687  12.624  17.811  18.765
60727W        W64688  14.016  15.837  18.229
60728W        W64689  11.039  17.595  20.393
60729W        W64690  11.830  17.167  20.873
60730W        W64691  12.203  16.527  19.492
60731W        W64692  12.225  14.932  20.585
60732W        W64693  14.454  14.694  19.882
60733W        W64694  11.673  16.566  18.350
60734W        W64695  11.328  15.599  18.529
60735W        W64696  11.390  17.555  19.323
60736W        W64697  12.521  17.038  19.571
60737W        W64698  13.853  17.897  21.285
60738W        W64699  14.162  17.937  19.741
60739W        W64700  13.839  15.790  21.339
60740W        W64701  14.552  17.446  19.473
60741W        W64702  13.179  16.738  20.957
60742W        W64703  10.945  16.289  19.163
60743W        W64704  12.056  16.704  20.736
60744W        W64705  13.260  15.968  19.114
60745W        W64706  13.137  16.458  19.218
60746W        W64707  11.480  15.878  20.692
60747W        W64708  11.465  15.754  21.614
60748W        W64709  11.355  14.671  19.773
60749W        W64710  13.123  15.018  20.334
60750W        W64711  12.771  15.203  21.497
60751W        W64712  13.126  15.352  18.675
60752W        W64713  14.309  17.745  21.429
60753W        W64714  13.276  14.826  21.468
60754W        W64715  14.295  17.127  21.590
60755W        W64716  13.725  15.294  21.186
60756W        W64717  13.525  15.232  19.456
60757W        W64718  13.918  16.366  21.860
60758W        W64719  11.658  17.942  19.846
60759W        W64720  12.316  15.659  18.832
60760W        W64721  11.885  14.943  21.496
60761W        W64722  13.937  15.427  19.177
60762W        W64723  14.304  15.909  19.122
60763W        W64724  12.047  18.126  21.593
60764W        W64725  14.294  15.196  19.863
60765W        W64726  14.444  17.445  18.308
60766W        W64727  11.351  16.648  20.010
60767W        W64728  13.268  15.235  18.240
60768W        W64729  14.402  17.567  19.960
60769W        W64730  14.441  14.761  20.710
60770W        W64731  12.886  15.973  21.264
60771W        W64732  12.979  17.312  18.967
60772W        W64733  13.379  16.606  21.707
60773W        W64734  13.053  14.583  20.016
60774W        W64735  11.665  15.486  20.079
60775W        W64736  11.219  16.686  20.853
60776W        W64737  13.078  17.879  19.559
60777W        W64738  14.272  15.476  20.431
60778W        W64739  12.909  17.823  21.198
60779W        W64740  14.252  16.882  18.403
60780W        W64741  12.687  16.365  19.464
60781W        W64742  14.539  14.876  21.205
60782W        W64743  12.688  16.711  20.799
60783W        W64744  12.905  15.597  20.244
60784W        W64745  13.757  15.895  19.082
60785W        W64746  14.044  15.628  18.724
60786W        W64747  13.853  17.668  19.113
60787W        W64748  13.687  17.271  19.909
60788W        W64749  13.583  16.350  18.887
60789W        W64750  13.016  16.560  19.873
60790W        W64751  13.897  16.348  19.940
60791W        W64752  11.272  15.363  20.364
60792W        W64753  14.050  16.415  21.191
60793W        W64754  14.401  18.033  20.337
60794W        W64755  12.331  17.477  19.739
60795W        W64756  13.338  18.010  21.063
60796W        W64757  13.332  15.340  20.827
60797W        W64758  12.539  18.048  20.888
60798W        W64759  14.236  15.002  19.354
60799W        W64760  14.027  16.321  20.655
60800W        W64761  11.010  15.642  20.693
60801W        W64762  13.870  15.437  19.711
60802W        W64763  14.281  15.588  21.488
60803W        W64764  13.166  17.287  19.706
60804W        W64765  12.422  17.878  19.319
60805W        W64766  11.537  15.058  18.577
60806W        W64767  12.641  14.712  20.387
60807W        W64768  11.669  17.832  18.235
60808W        W64769  12.043  16.298  18.986
60809W        W64770  12.697  16.927  21.299
60810W        W64771  12.527  15.285  19.289
60811W        W64772  13.883  14.882  19.717
60812W        W64773  13.603  18.164  20.045
60813W        W64774  13.015  17.812  20.385
60814W        W64775  12.411  16.849  20.346
60815W        W64776  14.181  17.572  20.472
60816W        W64777  11.875  15.075  19.241
60817W        W64778  12.397  17.372  20.201
60818W        W64779  11.880  15.303  18.266
60819W        W64780  12.681  15.912  20.660
60820W        W64781  13.529  14.778  20.530
60821W        W64782  10.949  16.621  20.415
60822W        W64783  12.653  16.439  18.573
60823W        W64784  11.921  14.754  18.343
60824W        W64785  12.659  15.835  19.394
60825W        W64786  13.629  14.811  21.093
60826W        W64787  12.217  16.823  21.202
60827W        W64788  13.021  16.605  21.419
60828W        W64789  13.638  16.635  21.312
60829W        W64790  12.922  14.775  21.817
60830W        W64791  12.144  15.391  20.210
60831W        W64792  11.570  15.347  19.608
60832W        W64793  11.356  18.059  19.284
60833W        W64794  12.688  17.389  21.409
60834W        W64795  11.723  16.874  18.768
60835W        W64796  13.403  16.259  19.989
60836W        W64797  13.683  16.058  20.388
60837W        W64798  12.888  16.732  20.322
60838W        W64799  13.358  17.106  18.454
60839W        W64800  13.030  15.127  19.782
60840W        W64801  14.509  15.405  19.050
60841W        W64802  11.003  17.994  21.081
60842W        W64803  11.420  17.220  20.613
60843W        W64804  10.987  18.066  18.845
60844W        W64805  12.886  15.336  20.651
60845W        W64806  12.249  17.359  18.500
60846W        W64807  14.154  17.741  18.686
60847W        W64808  13.129  16.394  18.700
60848W        W64809  11.972  15.585  19.217
60849W        W64810  12.804  15.495  18.269
60850W        W64811  13.388  17.060  21.447
60851W        W64812  13.741  14.966  19.064
60852W        W64813  11.071  14.814  18.512
60853W        W64814  12.357  17.133  20.802
60854W        W64815  12.156  17.049  19.894
60855W        W64816  11.898  17.001  18.292
60856W        W64817  11.139  17.242  19.060
60857W        W64818  11.643  16.312  21.502
60858W        W64819  12.347  14.872  21.688
60859W        W64820  13.056  15.014  21.044
60860W        W64821  12.251  14.782  19.325
60861W        W64822  13.310  14.859  18.830
60862W        W64823  11.255  14.791  20.407
60863W        W64824  11.303  15.754  19.777
60864W        W64825  13.992  14.862  20.183
60865W        W64826  11.414  15.360  18.997
60866W        W64827  13.985  15.048  20.613
60867W        W64828  14.381  16.251  18.298
60868W        W64829  11.673  15.009  20.117
60869W        W64830  12.787  15.581  21.057
60870W        W64831  10.935  15.271  18.535
60871W        W64832  11.721  16.660  21.096
60872W        W64833  13.079  16.058  20.275
60873W        W64834  12.946  18.137  18.571
60874W        W64835  11.092  16.644  18.268
60875W        W64836  11.827  17.055  21.394
60876W        W64837  11.348  16.222  21.025
60877W        W64838  12.339  16.327  20.819
60878W        W64839  14.107  14.686  21.081
60879W        W64840  14.505  16.296  21.072
60880W        W64841  14.493  16.496  18.758
60881W        W64842  13.356  16.828  18.857
60882W        W64843  13.830  18.128  18.552
60883W        W64844  13.007  16.118  21.694
60884W        W64845  11.337  17.085  21.734
60885W        W64846  14.543  15.007  21.686
60886W        W64847  14.261  15.935  20.307
60887W        W64848  12.569  18.065  21.784
60888W        W64849  13.963  17.293  18.454
60889W        W64850  11.732  15.386  21.340
60890W        W64851  12.166  17.380  21.202
60891W        W64852  14.292  15.371  21.000
60892W        W64853  13.503  18.030  18.968
60893W        W64854  13.742  16.649  20.335
60894W        W64855  11.992  15.065  21.002
60895W        W64856  12.461  16.134  21.759
60896W        W64857  11.964  17.313  18.953
60897W        W64858  13.719  16.811  19.217
60898W        W64859  11.487  15.437  20.941
60899W        W64860  12.816  17.499  19.405
60900W        W64861  14.566  16.059  19.586
60901W        W64862  12.788  14.692  21.305
60902W        W64863  13.568  17.397  20.384
60903W        W64864  13.871  17.741  20.092
60904W        W64865  13.090  17.543  18.520
60905W        W64866  11.100  17.435  21.362
60906W        W64867  11.843  15.427  20.600
60907W        W64868  11.813  14.775  19.710
60908W        W64869  13.434  15.617  20.402
60909W        W64870  12.232  16.788  18.602
60910W        W64871  14.230  16.730  20.101
60911W        W64872  11.557  17.488  21.524
60912W        W64873  13.944  18.170  19.321
60913W        W64874  12.043  15.190  19.766
60914W        W64875  11.812  16.683  19.856
60915W        W64876  12.125  18.094  20.606
60916W        W64877  14.192  18.190  21.638
60917W        W64878  13.351  16.378  20.571
60918W        W64879  11.200  16.176  18.486
60919W        W64880  14.334  17.834  19.183
60920W        W64881  14.171  15.158  18.802
60921W        W64882  12.310  14.677  21.205
60922W        W64883  14.016  17.479  19.663
60923W        W64884  14.045  16.035  19.568
60924W        W64885  12.162  15.708  19.784
60925W        W64886  12.407  15.970  21.108
60926W        W64887  13.518  17.123  20.971
60927W        W64888  12.168  15.577  21.083
60928W        W64889  12.147  18.043  19.699
60929W        W64890  11.464  18.002  21.333
60930W        W64891  11.576  17.363  18.463
60931W        W64892  14.093  17.121  19.273
60932W        W64893  11.697  15.913  21.159
60933W        W64894  14.470  15.843  18.640
60934W        W64895  12.215  16.900  19.111
60935W        W64896  13.314  16.282  21.192
60936W        W64897  13.205  15.910  20.736
60937W        W64898  11.765  16.282  20.765
60938W        W64899  13.975  18.170  20.594
60939W        W64900  13.766  14.804  21.588
60940W        W64901  11.430  14.954  21.175
60941W        W64902  11.769  15.977  20.228
60942W        W64903  12.138  15.791  18.350
60943W        W64904  10.941  17.550  20.895
60944W        W64905  12.526  16.259  20.338
60945W        W64906  11.484  16.100  19.224
60946W        W64907  11.255  17.952  20.661
60947W        W64908  14.050  16.178  18.769
60948W        W64909  14.145  15.094  21.455
60949W        W64910  13.581  17.303  19.418
60950W        W64911  11.179  16.227  21.595
60951W        W64912  14.145  14.691  18.891
60952W        W64913  13.665  17.166  18.902
60953W        W64914  12.567  16.224  18.987
60954W        W64915  13.754  15.028  18.510
60955W        W64916  13.819  15.635  20.696
60956W        W64917  11.528  16.228  19.903
60957W        W64918  11.822  17.167  19.552
60958W        W64919  13.585  15.787  19.517
60959W        W64920  12.608  15.166  20.213
60960W        W64921  14.570  17.077  20.724
60961W        W64922  14.488  15.064  20.285
60962W        W64923  11.027  17.894  19.661
60963W        W64924  11.536  17.081  19.197
60964W        W64925  11.451  14.698  21.750
60965W        W64926  12.570  17.551  21.852
60966W        W64927  14.325  16.519  19.642
60967W        W64928  13.679  16.696  18.522
60968W        W64929  12.974  18.217  20.734
60969W        W64930  13.831  16.939  21.771
60970W        W64931  12.646  14.649  19.051
60971W        W64932  13.359  15.518  19.910
60972W        W64933  11.045  17.105  20.242
60973W        W64934  12.102  16.551  21.732
60974W        W64935  13.096  15.532  19.446
60975W        W64936  13.301  16.942  20.568
60976W        W64937  11.455  17.547  21.003
60977W        W64938  12.046  17.530  21.726
60978W        W64939  11.897  15.327  18.740
60979W        W64940  13.414  15.469  19.065
60980W        W64941  13.372  17.577  21.302
60981W        W64942  12.057  16.169  19.901
60982W        W64943  11.712  17.867  20.766
60983W        W64944  14.457  17.984  18.367
60984W        W64945  11.320  16.656  21.363
60985W        W64946  13.315  16.918  20.051
60986W        W64947  11.751  16.567  19.293
60987W        W64948  12.122  17.574  20.688
60988W        W64949  12.500  14.993  19.729
60989W        W64950  11.111  16.977  18.659
60990W        W64951  12.630  15.928  18.529
60991W        W64952  11.276  16.477  19.548
60992W        W64953  12.566  15.119  21.012
60993W        W64954  14.238  14.828  18.439
60994W        W64955  14.331  16.574  21.538
60995W        W64956  12.985  17.831  21.690
60996W        W64957  14.543  16.925  21.212
60997W        W64958  13.951  17.723  21.823
60998W        W64959  11.690  18.179  20.301
60999W        W64960  14.549  16.801  19.175
61000W        W64961  13.079  16.068  19.688
61001W        W64962  12.846  14.680  19.578
61002W        W64963  11.905  17.664  19.415
61003W        W64964  12.404  15.405  20.640
61004W        W64965  12.104  14.774  20.109
61005W        W64966  11.167  17.596  18.657
61006W        W64967  12.983  16.960  19.375
61007W        W64968  11.858  17.755  21.254
61008W        W64969  11.335  16.578  18.950
61009W        W64970  11.220  15.121  19.949
61010W        W64971  12.768  17.086  20.006
61011W        W64972  11.020  14.940  19.026
61012W        W64973  13.684  16.146  20.953
61013W        W64974  13.561  15.532  18.525
61014W        W64975  14.078  17.204  20.173
61015W        W64976  12.739  17.688  20.004
61016W        W64977  12.151  17.792  18.915
61017W        W64978  13.433  14.695  18.345
61018W        W64979  11.233  17.955  20.086
61019W        W64980  13.430  15.713  21.721
61020W        W64981  11.413  15.243  21.720
61021W        W64982  11.144  15.843  19.053
61022W        W64983  11.835  15.832  18.778
61023W        W64984  13.598  16.159  21.595
61024W        W64985  11.941  16.440  20.304
61025W        W64986  13.415  14.726  19.424
61026W        W64987  12.546  18.157  19.927
61027W        W64988  13.760  17.619  20.864
61028W        W64989  13.344  17.768  19.975
61029W        W64990  13.363  16.748  19.569
61030W        W64991  12.825  14.973  18.640
61031W        W64992  14.506  14.601  19.362
61032W        W64993  12.194  16.236  18.525
61033W        W64994  14.360  15.573  19.515
61034W        W64995  13.052  16.743  18.392
61035W        W64996  13.988  16.943  21.140
61036W        W64997  13.642  17.644  18.607
61037W        W64998  12.257  15.319  21.513
61038W        W64999  12.077  15.903  20.754
61039W        W65000  14.169  17.398  21.031
61040W        W65001  13.269  15.348  21.408
61041W        W65002  11.113  15.819  21.185
61042W        W65003  12.873  16.296  20.911
61043W        W65004  11.230  17.054  19.568
61044W        W65005  11.377  16.351  20.458
61045W        W65006  13.694  16.637  20.808
61046W        W65007  13.466  18.017  21.619
61047W        W65008  13.362  15.756  21.172
61048W        W65009  13.639  17.810  19.577
61049W        W65010  12.641  17.530  20.900
61050W        W65011  12.126  17.885  20.169
61051W        W65012  13.931  17.056  20.588
61052W        W65013  12.981  17.128  21.725
61053W        W65014  11.586  17.081  20.064
61054W        W65015  13.932  16.840  19.709
61055W        W65016  13.573  17.906  20.460
61056W        W65017  11.551  17.635  20.330
61057W        W65018  12.572  15.687  21.540
61058W        W65019  13.023  17.853  19.051
61059W        W65020  12.331  17.108  21.689
61060W        W65021  12.457  17.346  19.066
61061W        W65022  11.678  16.086  18.325
61062W        W65023  14.098  16.795  22.518
61063W        W65024  12.146  17.871  22.071
61064W        W65025  12.229  16.023  23.054
61065W        W65026  11.744  15.871  23.218
61066W        W65027  12.735  16.686  22.652
61067W        W65028  13.164  15.878  22.229
61068W        W65029  12.721  17.113  22.198
61069W        W65030  11.417  14.952  23.033
61070W        W65031  14.105  15.346  21.984
61071W        W65032  14.311  17.320  22.481
61072W        W65033  11.440  18.106  22.235
61073W        W65034  11.833  18.152  22.911
61074W        W65035  13.658  16.346  23.071
61075W        W65036  13.624  16.034  22.098
61076W        W65037  14.109  16.386  22.853
61077W        W65038  13.011  15.044  22.869
61078W        W65039  11.668  17.738  22.552
61079W        W65040  12.624  17.811  22.410
61080W        W65041  14.016  15.837  21.874
61081W        W65042  12.203  16.527  23.137
61082W        W65043  11.673  16.566  21.995
61083W        W65044  11.328  15.599  22.174
61084W        W65045  11.390  17.555  22.968
61085W        W65046  12.521  17.038  23.216
61086W        W65047  12.779  15.539  22.614
61087W        W65048  10.945  16.289  22.808
61088W        W65049  13.260  15.968  22.759
61089W        W65050  13.137  16.458  22.863
61090W        W65051  13.126  15.352  22.320
61091W        W65052  13.525  15.232  23.101
61092W        W65053  12.316  15.659  22.477
61093W        W65054  13.937  15.427  22.822
61094W        W65055  14.304  15.909  22.767
61095W        W65056  11.973  14.662  22.473
61096W        W65057  14.444  17.445  21.953
61097W        W65058  13.268  15.235  21.885
61098W        W65059  12.979  17.312  22.612
61099W        W65060  13.078  17.879  23.204
61100W        W65061  14.252  16.882  22.048
61101W        W65062  12.687  16.365  23.109
61102W        W65063  13.757  15.895  22.727
61103W        W65064  14.044  15.628  22.369
61104W        W65065  13.853  17.668  22.758
61105W        W65066  13.583  16.350  22.532
61106W        W65067  14.236  15.002  22.999
61107W        W65068  12.422  17.878  22.964
61108W        W65069  11.537  15.058  22.222
61109W        W65070  11.669  17.832  21.880
61110W        W65071  12.043  16.298  22.631
61111W        W65072  12.527  15.285  22.934
61112W        W65073  11.875  15.075  22.886
61113W        W65074  11.880  15.303  21.911
61114W        W65075  12.653  16.439  22.218
61115W        W65076  11.921  14.754  21.988
61116W        W65077  12.659  15.835  23.039
61117W        W65078  11.570  15.347  23.253
61118W        W65079  11.356  18.059  22.929
61119W        W65080  11.723  16.874  22.413
61120W        W65081  13.358  17.106  22.099
61121W        W65082  14.509  15.405  22.695
61122W        W65083  10.987  18.066  22.490
61123W        W65084  12.249  17.359  22.145
61124W        W65085  14.154  17.741  22.331
61125W        W65086  13.129  16.394  22.345
61126W        W65087  11.972  15.585  22.862
61127W        W65088  12.804  15.495  21.914
61128W        W65089  13.741  14.966  22.709
61129W        W65090  11.071  14.814  22.157
61130W        W65091  11.898  17.001  21.937
61131W        W65092  11.139  17.242  22.705
61132W        W65093  12.251  14.782  22.970
61133W        W65094  13.310  14.859  22.475
61134W        W65095  11.414  15.360  22.642
61135W        W65096  14.381  16.251  21.943
61136W        W65097  10.935  15.271  22.180
61137W        W65098  12.946  18.137  22.216
61138W        W65099  11.092  16.644  21.913
61139W        W65100  14.493  16.496  22.403
61140W        W65101  13.356  16.828  22.502
61141W        W65102  13.830  18.128  22.197
61142W        W65103  12.424  14.694  22.156
61143W        W65104  13.963  17.293  22.099
61144W        W65105  13.503  18.030  22.613
61145W        W65106  11.964  17.313  22.598
61146W        W65107  13.719  16.811  22.862
61147W        W65108  12.816  17.499  23.050
61148W        W65109  14.566  16.059  23.231
61149W        W65110  13.090  17.543  22.165
61150W        W65111  12.232  16.788  22.247
61151W        W65112  13.944  18.170  22.966
61152W        W65113  11.200  16.176  22.131
61153W        W65114  14.334  17.834  22.828
61154W        W65115  14.171  15.158  22.447
61155W        W65116  14.045  16.035  23.213
61156W        W65117  11.576  17.363  22.108
61157W        W65118  14.093  17.121  22.918
61158W        W65119  14.470  15.843  22.285
61159W        W65120  12.215  16.900  22.756
61160W        W65121  12.138  15.791  21.995
61161W        W65122  12.349  15.284  22.088
61162W        W65123  11.484  16.100  22.869
61163W        W65124  14.050  16.178  22.414
61164W        W65125  13.581  17.303  23.063
61165W        W65126  14.145  14.691  22.536
61166W        W65127  13.665  17.166  22.547
61167W        W65128  12.567  16.224  22.632
61168W        W65129  13.754  15.028  22.155
61169W        W65130  11.822  17.167  23.197
61170W        W65131  13.585  15.787  23.162
61171W        W65132  11.027  17.894  23.306
61172W        W65133  11.536  17.081  22.842
61173W        W65134  14.325  16.519  23.287
61174W        W65135  13.679  16.696  22.167
61175W        W65136  12.646  14.649  22.696
61176W        W65137  12.298  15.067  22.528
61177W        W65138  13.096  15.532  23.091
61178W        W65139  11.897  15.327  22.385
61179W        W65140  13.414  15.469  22.710
61180W        W65141  14.457  17.984  22.012
61181W        W65142  11.111  16.977  22.304
61182W        W65143  12.630  15.928  22.174
61183W        W65144  11.276  16.477  23.193
61184W        W65145  14.238  14.828  22.084
61185W        W65146  14.549  16.801  22.820
61186W        W65147  12.846  14.680  23.223
61187W        W65148  11.905  17.664  23.060
61188W        W65149  11.167  17.596  22.302
61189W        W65150  12.983  16.960  23.020
61190W        W65151  11.335  16.578  22.595
61191W        W65152  11.020  14.940  22.671
61192W        W65153  13.561  15.532  22.170
61193W        W65154  12.151  17.792  22.560
61194W        W65155  13.433  14.695  21.990
61195W        W65156  11.144  15.843  22.698
61196W        W65157  11.835  15.832  22.423
61197W        W65158  13.363  16.748  23.214
61198W        W65159  12.825  14.973  22.285
61199W        W65160  14.506  14.601  23.007
61200W        W65161  12.194  16.236  22.170
61201W        W65162  14.360  15.573  23.160
61202W        W65163  13.052  16.743  22.037
61203W        W65164  13.642  17.644  22.252
61204W        W65165  11.230  17.054  23.213
61205W        W65166  13.639  17.810  23.222
61206W        W65167  13.023  17.853  22.696
61207W        W65168  12.457  17.346  22.711
61208W        W65169  11.678  16.086  21.970
61209W        W65170  11.017  21.816   3.359
61210W        W65171  11.393  20.709   2.882
61211W        W65172  14.098  20.439   0.652
61212W        W65173  14.228  21.524   2.679
61213W        W65174  12.146  21.515   0.205
61214W        W65175  12.229  19.667   1.188
61215W        W65176  11.744  19.515   1.352
61216W        W65177  12.735  20.330   0.786
61217W        W65178  12.410  21.422   3.141
61218W        W65179  11.059  18.983   3.104
61219W        W65180  11.821  18.263   2.906
61220W        W65181  13.515  18.651   1.793
61221W        W65182  13.734  18.956   3.454
61222W        W65183  11.100  18.748   2.579
61223W        W65184  11.199  21.367   3.600
61224W        W65185  12.721  20.757   0.332
61225W        W65186  11.153  19.540   2.025
61226W        W65187  12.046  19.431   3.262
61227W        W65188  14.505  19.290   1.761
61228W        W65189  14.269  20.333   2.620
61229W        W65190  12.577  19.666   1.647
61230W        W65191  13.123  21.005   2.016
61231W        W65192  11.623  20.439   2.248
61232W        W65193  10.982  19.967   1.819
61233W        W65194  12.018  19.939   3.011
61234W        W65195  14.289  19.722   3.265
61235W        W65196  11.905  21.166   1.710
61236W        W65197  13.026  20.855   2.844
61237W        W65198  12.246  19.495   2.069
61238W        W65199  12.538  20.279   1.712
61239W        W65200  13.535  21.052   3.560
61240W        W65201  12.614  20.372   3.570
61241W        W65202  12.595  20.088   3.048
61242W        W65203  11.004  19.479   3.570
61243W        W65204  13.836  21.014   3.169
61244W        W65205  11.417  18.596   1.167
61245W        W65206  11.944  20.854   2.166
61246W        W65207  14.407  20.637   1.456
61247W        W65208  13.820  19.037   2.023
61248W        W65209  14.105  18.990   0.118
61249W        W65210  14.570  19.791   2.424
61250W        W65211  12.537  21.498   2.177
61251W        W65212  14.311  20.964   0.615
61252W        W65213  11.440  21.750   0.369
61253W        W65214  11.833  21.796   1.045
61254W        W65215  11.630  18.550   2.471
61255W        W65216  14.253  19.568   2.746
61256W        W65217  13.658  19.990   1.205
61257W        W65218  13.624  19.678   0.232
61258W        W65219  12.832  20.822   2.372
61259W        W65220  12.638  19.152   1.571
61260W        W65221  13.238  21.239   2.565
61261W        W65222  14.109  20.030   0.987
61262W        W65223  13.011  18.688   1.003
61263W        W65224  11.668  21.382   0.686
61264W        W65225  11.039  18.881   1.285
61265W        W65226  13.825  19.488   1.759
61266W        W65227  11.283  21.105   1.674
61267W        W65228  12.624  21.455   0.544
61268W        W65229  14.016  19.481   0.008
61269W        W65230  11.039  21.239   2.172
61270W        W65231  11.830  20.811   2.652
61271W        W65232  12.203  20.171   1.271
61272W        W65233  12.225  18.576   2.364
61273W        W65234  14.454  18.338   1.661
61274W        W65235  11.673  20.210   0.129
61275W        W65236  11.328  19.243   0.308
61276W        W65237  11.390  21.199   1.102
61277W        W65238  12.521  20.682   1.350
61278W        W65239  13.853  21.541   3.064
61279W        W65240  12.779  19.183   0.748
61280W        W65241  14.162  21.581   1.520
61281W        W65242  13.839  19.434   3.118
61282W        W65243  14.552  21.090   1.252
61283W        W65244  13.179  20.382   2.736
61284W        W65245  10.945  19.933   0.942
61285W        W65246  12.056  20.348   2.515
61286W        W65247  13.260  19.612   0.893
61287W        W65248  13.137  20.102   0.997
61288W        W65249  11.480  19.522   2.471
61289W        W65250  11.465  19.398   3.393
61290W        W65251  11.355  18.315   1.552
61291W        W65252  13.123  18.662   2.113
61292W        W65253  12.771  18.847   3.276
61293W        W65254  13.126  18.996   0.454
61294W        W65255  14.309  21.389   3.208
61295W        W65256  13.276  18.470   3.247
61296W        W65257  14.295  20.771   3.369
61297W        W65258  13.725  18.938   2.965
61298W        W65259  13.525  18.876   1.235
61299W        W65260  13.918  20.010   3.639
61300W        W65261  11.658  21.586   1.625
61301W        W65262  12.316  19.303   0.611
61302W        W65263  11.885  18.587   3.275
61303W        W65264  13.937  19.071   0.956
61304W        W65265  14.304  19.553   0.901
61305W        W65266  12.047  21.770   3.372
61306W        W65267  11.973  18.306   0.607
61307W        W65268  14.294  18.840   1.642
61308W        W65269  14.444  21.089   0.087
61309W        W65270  11.351  20.292   1.789
61310W        W65271  13.268  18.879   0.019
61311W        W65272  14.402  21.211   1.739
61312W        W65273  14.441  18.405   2.489
61313W        W65274  12.886  19.617   3.043
61314W        W65275  12.979  20.956   0.746
61315W        W65276  13.379  20.250   3.486
61316W        W65277  13.053  18.227   1.795
61317W        W65278  11.665  19.130   1.858
61318W        W65279  11.219  20.330   2.632
61319W        W65280  13.078  21.523   1.338
61320W        W65281  14.272  19.120   2.210
61321W        W65282  12.909  21.467   2.977
61322W        W65283  14.252  20.526   0.182
61323W        W65284  12.687  20.009   1.243
61324W        W65285  14.539  18.520   2.984
61325W        W65286  12.688  20.355   2.578
61326W        W65287  12.905  19.241   2.023
61327W        W65288  13.757  19.539   0.861
61328W        W65289  14.044  19.272   0.503
61329W        W65290  13.853  21.312   0.892
61330W        W65291  13.687  20.915   1.688
61331W        W65292  13.583  19.994   0.666
61332W        W65293  13.016  20.204   1.652
61333W        W65294  13.897  19.992   1.719
61334W        W65295  11.272  19.007   2.143
61335W        W65296  14.050  20.059   2.970
61336W        W65297  14.401  21.677   2.116
61337W        W65298  12.331  21.121   1.518
61338W        W65299  13.338  21.654   2.842
61339W        W65300  13.332  18.984   2.606
61340W        W65301  12.539  21.692   2.667
61341W        W65302  14.236  18.646   1.133
61342W        W65303  14.027  19.965   2.434
61343W        W65304  11.010  19.286   2.472
61344W        W65305  13.870  19.081   1.490
61345W        W65306  14.281  19.232   3.267
61346W        W65307  13.166  20.931   1.485
61347W        W65308  12.422  21.522   1.098
61348W        W65309  11.537  18.702   0.356
61349W        W65310  12.641  18.356   2.166
61350W        W65311  11.669  21.476   0.014
61351W        W65312  12.043  19.942   0.765
61352W        W65313  12.697  20.571   3.078
61353W        W65314  12.527  18.929   1.068
61354W        W65315  13.883  18.526   1.496
61355W        W65316  13.603  21.808   1.824
61356W        W65317  13.015  21.456   2.164
61357W        W65318  12.411  20.493   2.125
61358W        W65319  14.181  21.216   2.251
61359W        W65320  11.875  18.719   1.020
61360W        W65321  12.397  21.016   1.980
61361W        W65322  11.880  18.947   0.045
61362W        W65323  12.681  19.556   2.439
61363W        W65324  13.529  18.422   2.309
61364W        W65325  10.949  20.265   2.194
61365W        W65326  12.653  20.083   0.352
61366W        W65327  11.921  18.398   0.122
61367W        W65328  12.659  19.479   1.173
61368W        W65329  13.629  18.455   2.872
61369W        W65330  12.217  20.467   2.981
61370W        W65331  13.021  20.249   3.198
61371W        W65332  13.638  20.279   3.091
61372W        W65333  12.922  18.419   3.596
61373W        W65334  12.144  19.035   1.989
61374W        W65335  11.570  18.991   1.387
61375W        W65336  11.356  21.703   1.063
61376W        W65337  12.688  21.033   3.188
61377W        W65338  11.723  20.518   0.547
61378W        W65339  13.403  19.903   1.768
61379W        W65340  13.683  19.702   2.167
61380W        W65341  12.888  20.376   2.101
61381W        W65342  13.358  20.750   0.233
61382W        W65343  13.030  18.771   1.561
61383W        W65344  14.509  19.049   0.829
61384W        W65345  11.003  21.638   2.860
61385W        W65346  11.420  20.864   2.392
61386W        W65347  10.987  21.710   0.624
61387W        W65348  12.886  18.980   2.430
61388W        W65349  12.249  21.003   0.279
61389W        W65350  14.154  21.385   0.465
61390W        W65351  13.129  20.038   0.479
61391W        W65352  11.972  19.229   0.996
61392W        W65353  12.804  19.139   0.048
61393W        W65354  13.388  20.704   3.226
61394W        W65355  13.741  18.610   0.843
61395W        W65356  11.071  18.458   0.291
61396W        W65357  12.357  20.777   2.581
61397W        W65358  12.156  20.693   1.673
61398W        W65359  11.898  20.645   0.071
61399W        W65360  11.139  20.886   0.839
61400W        W65361  11.643  19.956   3.281
61401W        W65362  12.347  18.516   3.467
61402W        W65363  13.056  18.658   2.823
61403W        W65364  12.251  18.426   1.104
61404W        W65365  13.310  18.503   0.609
61405W        W65366  11.255  18.435   2.186
61406W        W65367  11.303  19.398   1.556
61407W        W65368  13.992  18.506   1.962
61408W        W65369  11.414  19.004   0.776
61409W        W65370  13.985  18.692   2.392
61410W        W65371  14.381  19.895   0.077
61411W        W65372  11.673  18.653   1.896
61412W        W65373  12.787  19.225   2.836
61413W        W65374  10.935  18.915   0.314
61414W        W65375  11.721  20.304   2.875
61415W        W65376  13.079  19.702   2.054
61416W        W65377  12.946  21.781   0.350
61417W        W65378  11.092  20.288   0.047
61418W        W65379  11.827  20.699   3.173
61419W        W65380  11.348  19.866   2.804
61420W        W65381  12.339  19.971   2.598
61421W        W65382  14.107  18.330   2.860
61422W        W65383  14.505  19.940   2.851
61423W        W65384  14.493  20.140   0.537
61424W        W65385  13.356  20.472   0.636
61425W        W65386  13.830  21.772   0.331
61426W        W65387  13.007  19.762   3.473
61427W        W65388  11.337  20.729   3.513
61428W        W65389  14.543  18.651   3.465
61429W        W65390  14.261  19.579   2.086
61430W        W65391  12.569  21.709   3.563
61431W        W65392  12.424  18.338   0.290
61432W        W65393  13.963  20.937   0.233
61433W        W65394  11.732  19.030   3.119
61434W        W65395  12.166  21.024   2.981
61435W        W65396  14.292  19.015   2.779
61436W        W65397  13.503  21.674   0.747
61437W        W65398  13.742  20.293   2.114
61438W        W65399  11.992  18.709   2.781
61439W        W65400  12.461  19.778   3.538
61440W        W65401  11.964  20.957   0.732
61441W        W65402  13.719  20.455   0.996
61442W        W65403  11.487  19.081   2.720
61443W        W65404  12.816  21.143   1.184
61444W        W65405  14.566  19.703   1.365
61445W        W65406  12.788  18.336   3.084
61446W        W65407  13.568  21.041   2.163
61447W        W65408  13.871  21.385   1.871
61448W        W65409  13.090  21.187   0.299
61449W        W65410  11.100  21.079   3.141
61450W        W65411  11.843  19.071   2.379
61451W        W65412  11.813  18.419   1.489
61452W        W65413  13.434  19.261   2.181
61453W        W65414  14.230  20.374   1.880
61454W        W65415  11.557  21.132   3.303
61455W        W65416  13.944  21.814   1.100
61456W        W65417  12.043  18.834   1.545
61457W        W65418  11.812  20.327   1.635
61458W        W65419  12.125  21.738   2.385
61459W        W65420  14.192  21.834   3.417
61460W        W65421  13.351  20.022   2.350
61461W        W65422  11.200  19.820   0.265
61462W        W65423  14.334  21.478   0.962
61463W        W65424  14.171  18.802   0.581
61464W        W65425  12.310  18.321   2.984
61465W        W65426  14.016  21.123   1.442
61466W        W65427  14.045  19.679   1.347
61467W        W65428  12.162  19.352   1.563
61468W        W65429  12.407  19.614   2.887
61469W        W65430  13.518  20.767   2.750
61470W        W65431  12.168  19.221   2.862
61471W        W65432  12.147  21.687   1.478
61472W        W65433  11.464  21.646   3.112
61473W        W65434  11.576  21.007   0.242
61474W        W65435  14.093  20.765   1.052
61475W        W65436  11.697  19.557   2.938
61476W        W65437  14.470  19.487   0.419
61477W        W65438  12.215  20.544   0.890
61478W        W65439  13.314  19.926   2.971
61479W        W65440  13.205  19.554   2.515
61480W        W65441  11.765  19.926   2.544
61481W        W65442  13.975  21.814   2.373
61482W        W65443  13.766  18.448   3.367
61483W        W65444  11.430  18.598   2.954
61484W        W65445  11.769  19.621   2.007
61485W        W65446  12.138  19.435   0.129
61486W        W65447  10.941  21.194   2.674
61487W        W65448  12.526  19.903   2.117
61488W        W65449  12.349  18.928   0.222
61489W        W65450  11.484  19.744   1.003
61490W        W65451  11.255  21.596   2.440
61491W        W65452  14.050  19.822   0.548
61492W        W65453  14.145  18.738   3.234
61493W        W65454  13.581  20.947   1.197
61494W        W65455  11.179  19.871   3.374
61495W        W65456  14.145  18.335   0.670
61496W        W65457  13.665  20.810   0.681
61497W        W65458  12.567  19.868   0.766
61498W        W65459  13.754  18.672   0.289
61499W        W65460  13.819  19.279   2.475
61500W        W65461  11.528  19.872   1.682
61501W        W65462  11.822  20.811   1.331
61502W        W65463  13.585  19.431   1.296
61503W        W65464  12.608  18.810   1.992
61504W        W65465  14.570  20.721   2.503
61505W        W65466  14.488  18.708   2.064
61506W        W65467  11.027  21.538   1.440
61507W        W65468  11.536  20.725   0.976
61508W        W65469  11.451  18.342   3.529
61509W        W65470  12.570  21.195   3.631
61510W        W65471  14.325  20.163   1.421
61511W        W65472  13.679  20.340   0.301
61512W        W65473  12.974  21.861   2.513
61513W        W65474  13.831  20.583   3.550
61514W        W65475  12.646  18.293   0.830
61515W        W65476  13.359  19.162   1.689
61516W        W65477  11.045  20.749   2.021
61517W        W65478  12.298  18.711   0.662
61518W        W65479  12.102  20.195   3.511
61519W        W65480  13.096  19.176   1.225
61520W        W65481  13.301  20.586   2.347
61521W        W65482  11.455  21.191   2.782
61522W        W65483  12.046  21.174   3.505
61523W        W65484  11.897  18.971   0.519
61524W        W65485  13.414  19.113   0.844
61525W        W65486  13.372  21.221   3.081
61526W        W65487  12.057  19.813   1.680
61527W        W65488  11.712  21.511   2.545
61528W        W65489  14.457  21.628   0.146
61529W        W65490  11.320  20.300   3.142
61530W        W65491  13.315  20.562   1.830
61531W        W65492  11.751  20.211   1.072
61532W        W65493  12.122  21.218   2.467
61533W        W65494  12.500  18.637   1.508
61534W        W65495  11.111  20.621   0.438
61535W        W65496  12.630  19.572   0.308
61536W        W65497  11.276  20.121   1.327
61537W        W65498  12.566  18.763   2.791
61538W        W65499  14.238  18.472   0.218
61539W        W65500  14.331  20.218   3.317
61540W        W65501  12.985  21.475   3.469
61541W        W65502  14.543  20.569   2.991
61542W        W65503  13.951  21.367   3.602
61543W        W65504  11.690  21.823   2.080
61544W        W65505  14.549  20.445   0.954
61545W        W65506  13.079  19.712   1.467
61546W        W65507  12.846  18.324   1.357
61547W        W65508  11.905  21.308   1.194
61548W        W65509  12.404  19.049   2.419
61549W        W65510  12.104  18.418   1.888
61550W        W65511  11.167  21.240   0.436
61551W        W65512  12.983  20.604   1.154
61552W        W65513  11.858  21.399   3.033
61553W        W65514  11.335  20.222   0.729
61554W        W65515  11.220  18.765   1.728
61555W        W65516  12.768  20.730   1.785
61556W        W65517  11.020  18.584   0.805
61557W        W65518  13.684  19.790   2.732
61558W        W65519  13.561  19.176   0.304
61559W        W65520  14.078  20.848   1.952
61560W        W65521  12.739  21.332   1.783
61561W        W65522  12.151  21.436   0.694
61562W        W65523  13.433  18.339   0.124
61563W        W65524  11.233  21.599   1.865
61564W        W65525  13.430  19.357   3.500
61565W        W65526  11.413  18.887   3.499
61566W        W65527  11.144  19.487   0.832
61567W        W65528  11.835  19.476   0.557
61568W        W65529  13.598  19.803   3.374
61569W        W65530  11.941  20.084   2.083
61570W        W65531  13.415  18.370   1.203
61571W        W65532  12.546  21.801   1.706
61572W        W65533  13.760  21.263   2.643
61573W        W65534  13.344  21.412   1.754
61574W        W65535  13.363  20.392   1.348
61575W        W65536  12.825  18.617   0.419
61576W        W65537  14.506  18.245   1.141
61577W        W65538  12.194  19.880   0.304
61578W        W65539  14.360  19.217   1.294
61579W        W65540  13.052  20.387   0.171
61580W        W65541  13.988  20.587   2.919
61581W        W65542  13.642  21.288   0.386
61582W        W65543  12.257  18.963   3.292
61583W        W65544  12.077  19.547   2.533
61584W        W65545  14.169  21.042   2.810
61585W        W65546  13.269  18.992   3.187
61586W        W65547  11.113  19.463   2.964
61587W        W65548  12.873  19.940   2.690
61588W        W65549  11.230  20.698   1.347
61589W        W65550  11.377  19.995   2.237
61590W        W65551  13.694  20.281   2.587
61591W        W65552  13.466  21.661   3.398
61592W        W65553  13.362  19.400   2.951
61593W        W65554  13.639  21.454   1.356
61594W        W65555  12.641  21.174   2.679
61595W        W65556  12.126  21.529   1.948
61596W        W65557  13.931  20.700   2.367
61597W        W65558  12.981  20.772   3.504
61598W        W65559  11.586  20.725   1.843
61599W        W65560  13.932  20.484   1.488
61600W        W65561  13.573  21.550   2.239
61601W        W65562  11.551  21.279   2.109
61602W        W65563  12.572  19.331   3.319
61603W        W65564  13.023  21.497   0.830
61604W        W65565  12.331  20.752   3.468
61605W        W65566  12.457  20.990   0.845
61606W        W65567  11.678  19.730   0.104
61607W        W65568  11.017  21.816   7.003
61608W        W65569  11.393  20.709   6.526
61609W        W65570  14.098  20.439   4.296
61610W        W65571  14.228  21.524   6.323
61611W        W65572  12.146  21.515   3.849
61612W        W65573  12.229  19.667   4.832
61613W        W65574  11.744  19.515   4.996
61614W        W65575  12.735  20.330   4.430
61615W        W65576  12.410  21.422   6.785
61616W        W65577  11.059  18.983   6.748
61617W        W65578  11.821  18.263   6.550
61618W        W65579  13.515  18.651   5.437
61619W        W65580  13.164  19.522   4.007
61620W        W65581  13.734  18.956   7.098
61621W        W65582  11.100  18.748   6.223
61622W        W65583  11.199  21.367   7.244
61623W        W65584  12.721  20.757   3.976
61624W        W65585  11.153  19.540   5.669
61625W        W65586  12.046  19.431   6.906
61626W        W65587  14.505  19.290   5.405
61627W        W65588  14.269  20.333   6.264
61628W        W65589  12.577  19.666   5.291
61629W        W65590  13.123  21.005   5.660
61630W        W65591  11.623  20.439   5.892
61631W        W65592  10.982  19.967   5.463
61632W        W65593  12.018  19.939   6.655
61633W        W65594  14.289  19.722   6.909
61634W        W65595  11.905  21.166   5.354
61635W        W65596  13.026  20.855   6.488
61636W        W65597  12.246  19.495   5.713
61637W        W65598  12.538  20.279   5.356
61638W        W65599  13.535  21.052   7.204
61639W        W65600  12.614  20.372   7.214
61640W        W65601  12.595  20.088   6.692
61641W        W65602  11.004  19.479   7.214
61642W        W65603  13.836  21.014   6.813
61643W        W65604  11.417  18.596   4.811
61644W        W65605  11.944  20.854   5.810
61645W        W65606  14.407  20.637   5.100
61646W        W65607  13.820  19.037   5.667
61647W        W65608  14.105  18.990   3.762
61648W        W65609  14.570  19.791   6.068
61649W        W65610  12.537  21.498   5.821
61650W        W65611  14.311  20.964   4.259
61651W        W65612  11.440  21.750   4.013
61652W        W65613  11.833  21.796   4.689
61653W        W65614  11.630  18.550   6.115
61654W        W65615  14.253  19.568   6.390
61655W        W65616  13.658  19.990   4.849
61656W        W65617  13.624  19.678   3.876
61657W        W65618  12.832  20.822   6.016
61658W        W65619  12.638  19.152   5.215
61659W        W65620  13.238  21.239   6.209
61660W        W65621  14.109  20.030   4.631
61661W        W65622  13.011  18.688   4.647
61662W        W65623  11.668  21.382   4.330
61663W        W65624  11.039  18.881   4.929
61664W        W65625  13.825  19.488   5.403
61665W        W65626  11.283  21.105   5.318
61666W        W65627  12.624  21.455   4.188
61667W        W65628  14.016  19.481   3.652
61668W        W65629  11.039  21.239   5.816
61669W        W65630  11.830  20.811   6.296
61670W        W65631  12.203  20.171   4.915
61671W        W65632  12.225  18.576   6.008
61672W        W65633  14.454  18.338   5.305
61673W        W65634  11.673  20.210   3.773
61674W        W65635  11.328  19.243   3.952
61675W        W65636  11.390  21.199   4.746
61676W        W65637  12.521  20.682   4.994
61677W        W65638  13.853  21.541   6.708
61678W        W65639  12.779  19.183   4.392
61679W        W65640  14.162  21.581   5.164
61680W        W65641  13.839  19.434   6.762
61681W        W65642  14.552  21.090   4.896
61682W        W65643  13.179  20.382   6.380
61683W        W65644  10.945  19.933   4.586
61684W        W65645  12.056  20.348   6.159
61685W        W65646  13.260  19.612   4.537
61686W        W65647  13.137  20.102   4.641
61687W        W65648  11.480  19.522   6.115
61688W        W65649  11.465  19.398   7.037
61689W        W65650  11.355  18.315   5.196
61690W        W65651  13.123  18.662   5.757
61691W        W65652  12.771  18.847   6.920
61692W        W65653  13.126  18.996   4.098
61693W        W65654  14.309  21.389   6.852
61694W        W65655  13.276  18.470   6.891
61695W        W65656  14.295  20.771   7.013
61696W        W65657  13.725  18.938   6.609
61697W        W65658  13.525  18.876   4.879
61698W        W65659  13.918  20.010   7.283
61699W        W65660  11.658  21.586   5.269
61700W        W65661  12.316  19.303   4.255
61701W        W65662  11.885  18.587   6.919
61702W        W65663  13.937  19.071   4.600
61703W        W65664  14.304  19.553   4.545
61704W        W65665  12.047  21.770   7.016
61705W        W65666  11.973  18.306   4.251
61706W        W65667  14.294  18.840   5.286
61707W        W65668  14.444  21.089   3.731
61708W        W65669  11.351  20.292   5.433
61709W        W65670  13.268  18.879   3.663
61710W        W65671  14.402  21.211   5.383
61711W        W65672  14.441  18.405   6.133
61712W        W65673  12.886  19.617   6.687
61713W        W65674  12.979  20.956   4.390
61714W        W65675  13.379  20.250   7.130
61715W        W65676  13.053  18.227   5.439
61716W        W65677  11.665  19.130   5.502
61717W        W65678  11.219  20.330   6.276
61718W        W65679  13.078  21.523   4.982
61719W        W65680  14.272  19.120   5.854
61720W        W65681  12.909  21.467   6.621
61721W        W65682  14.252  20.526   3.826
61722W        W65683  12.687  20.009   4.887
61723W        W65684  14.539  18.520   6.628
61724W        W65685  12.688  20.355   6.222
61725W        W65686  12.905  19.241   5.667
61726W        W65687  13.757  19.539   4.505
61727W        W65688  14.044  19.272   4.147
61728W        W65689  13.853  21.312   4.536
61729W        W65690  13.687  20.915   5.332
61730W        W65691  13.583  19.994   4.310
61731W        W65692  13.016  20.204   5.296
61732W        W65693  13.897  19.992   5.363
61733W        W65694  11.272  19.007   5.787
61734W        W65695  14.050  20.059   6.614
61735W        W65696  14.401  21.677   5.760
61736W        W65697  12.331  21.121   5.162
61737W        W65698  13.338  21.654   6.486
61738W        W65699  13.332  18.984   6.250
61739W        W65700  12.539  21.692   6.311
61740W        W65701  14.236  18.646   4.777
61741W        W65702  14.027  19.965   6.078
61742W        W65703  11.010  19.286   6.116
61743W        W65704  13.870  19.081   5.134
61744W        W65705  14.281  19.232   6.911
61745W        W65706  13.166  20.931   5.129
61746W        W65707  12.422  21.522   4.742
61747W        W65708  11.537  18.702   4.000
61748W        W65709  12.641  18.356   5.810
61749W        W65710  11.669  21.476   3.658
61750W        W65711  12.043  19.942   4.409
61751W        W65712  12.697  20.571   6.722
61752W        W65713  12.527  18.929   4.712
61753W        W65714  13.883  18.526   5.140
61754W        W65715  13.603  21.808   5.468
61755W        W65716  13.015  21.456   5.808
61756W        W65717  12.411  20.493   5.769
61757W        W65718  14.181  21.216   5.895
61758W        W65719  11.875  18.719   4.664
61759W        W65720  12.397  21.016   5.624
61760W        W65721  11.880  18.947   3.689
61761W        W65722  12.681  19.556   6.083
61762W        W65723  13.529  18.422   5.953
61763W        W65724  10.949  20.265   5.838
61764W        W65725  12.653  20.083   3.996
61765W        W65726  11.921  18.398   3.766
61766W        W65727  12.659  19.479   4.817
61767W        W65728  13.629  18.455   6.516
61768W        W65729  12.217  20.467   6.625
61769W        W65730  13.021  20.249   6.842
61770W        W65731  13.638  20.279   6.735
61771W        W65732  12.922  18.419   7.240
61772W        W65733  12.144  19.035   5.633
61773W        W65734  11.570  18.991   5.031
61774W        W65735  11.356  21.703   4.707
61775W        W65736  12.688  21.033   6.832
61776W        W65737  11.723  20.518   4.191
61777W        W65738  13.403  19.903   5.412
61778W        W65739  13.683  19.702   5.811
61779W        W65740  12.888  20.376   5.745
61780W        W65741  13.358  20.750   3.877
61781W        W65742  13.030  18.771   5.205
61782W        W65743  14.509  19.049   4.473
61783W        W65744  11.003  21.638   6.504
61784W        W65745  11.420  20.864   6.036
61785W        W65746  10.987  21.710   4.268
61786W        W65747  12.886  18.980   6.074
61787W        W65748  12.249  21.003   3.923
61788W        W65749  14.154  21.385   4.109
61789W        W65750  13.129  20.038   4.123
61790W        W65751  11.972  19.229   4.640
61791W        W65752  12.804  19.139   3.692
61792W        W65753  13.388  20.704   6.870
61793W        W65754  13.741  18.610   4.487
61794W        W65755  11.071  18.458   3.935
61795W        W65756  12.357  20.777   6.225
61796W        W65757  12.156  20.693   5.317
61797W        W65758  11.898  20.645   3.715
61798W        W65759  11.139  20.886   4.483
61799W        W65760  11.643  19.956   6.925
61800W        W65761  12.347  18.516   7.111
61801W        W65762  13.056  18.658   6.467
61802W        W65763  12.251  18.426   4.748
61803W        W65764  13.310  18.503   4.253
61804W        W65765  11.255  18.435   5.830
61805W        W65766  11.303  19.398   5.200
61806W        W65767  13.992  18.506   5.606
61807W        W65768  11.414  19.004   4.420
61808W        W65769  13.985  18.692   6.036
61809W        W65770  14.381  19.895   3.721
61810W        W65771  11.673  18.653   5.540
61811W        W65772  12.787  19.225   6.480
61812W        W65773  10.935  18.915   3.958
61813W        W65774  11.721  20.304   6.519
61814W        W65775  13.079  19.702   5.698
61815W        W65776  12.946  21.781   3.994
61816W        W65777  11.092  20.288   3.691
61817W        W65778  11.827  20.699   6.817
61818W        W65779  11.348  19.866   6.448
61819W        W65780  12.339  19.971   6.242
61820W        W65781  14.107  18.330   6.504
61821W        W65782  14.505  19.940   6.495
61822W        W65783  14.493  20.140   4.181
61823W        W65784  13.356  20.472   4.280
61824W        W65785  13.830  21.772   3.975
61825W        W65786  13.007  19.762   7.117
61826W        W65787  11.337  20.729   7.157
61827W        W65788  14.543  18.651   7.109
61828W        W65789  14.261  19.579   5.730
61829W        W65790  12.569  21.709   7.207
61830W        W65791  12.424  18.338   3.934
61831W        W65792  13.963  20.937   3.877
61832W        W65793  11.732  19.030   6.763
61833W        W65794  12.166  21.024   6.625
61834W        W65795  14.292  19.015   6.423
61835W        W65796  13.503  21.674   4.391
61836W        W65797  13.742  20.293   5.758
61837W        W65798  11.992  18.709   6.425
61838W        W65799  12.461  19.778   7.182
61839W        W65800  11.964  20.957   4.376
61840W        W65801  13.719  20.455   4.640
61841W        W65802  11.487  19.081   6.364
61842W        W65803  12.816  21.143   4.828
61843W        W65804  14.566  19.703   5.009
61844W        W65805  12.788  18.336   6.728
61845W        W65806  13.568  21.041   5.807
61846W        W65807  13.871  21.385   5.515
61847W        W65808  13.090  21.187   3.943
61848W        W65809  11.100  21.079   6.785
61849W        W65810  11.843  19.071   6.023
61850W        W65811  11.813  18.419   5.133
61851W        W65812  13.434  19.261   5.825
61852W        W65813  12.232  20.432   4.025
61853W        W65814  14.230  20.374   5.524
61854W        W65815  11.557  21.132   6.947
61855W        W65816  13.944  21.814   4.744
61856W        W65817  12.043  18.834   5.189
61857W        W65818  11.812  20.327   5.279
61858W        W65819  12.125  21.738   6.029
61859W        W65820  14.192  21.834   7.061
61860W        W65821  13.351  20.022   5.994
61861W        W65822  11.200  19.820   3.909
61862W        W65823  14.334  21.478   4.606
61863W        W65824  14.171  18.802   4.225
61864W        W65825  12.310  18.321   6.628
61865W        W65826  14.016  21.123   5.086
61866W        W65827  14.045  19.679   4.991
61867W        W65828  12.162  19.352   5.207
61868W        W65829  12.407  19.614   6.531
61869W        W65830  13.518  20.767   6.394
61870W        W65831  12.168  19.221   6.506
61871W        W65832  12.147  21.687   5.122
61872W        W65833  11.464  21.646   6.756
61873W        W65834  11.576  21.007   3.886
61874W        W65835  14.093  20.765   4.696
61875W        W65836  11.697  19.557   6.582
61876W        W65837  14.470  19.487   4.063
61877W        W65838  12.215  20.544   4.534
61878W        W65839  13.314  19.926   6.615
61879W        W65840  13.205  19.554   6.159
61880W        W65841  11.765  19.926   6.188
61881W        W65842  13.975  21.814   6.017
61882W        W65843  13.766  18.448   7.011
61883W        W65844  11.430  18.598   6.598
61884W        W65845  11.769  19.621   5.651
61885W        W65846  12.138  19.435   3.773
61886W        W65847  10.941  21.194   6.318
61887W        W65848  12.526  19.903   5.761
61888W        W65849  12.349  18.928   3.866
61889W        W65850  11.484  19.744   4.647
61890W        W65851  11.255  21.596   6.084
61891W        W65852  14.050  19.822   4.192
61892W        W65853  14.145  18.738   6.878
61893W        W65854  13.581  20.947   4.841
61894W        W65855  11.179  19.871   7.018
61895W        W65856  14.145  18.335   4.314
61896W        W65857  13.665  20.810   4.325
61897W        W65858  12.567  19.868   4.410
61898W        W65859  13.754  18.672   3.933
61899W        W65860  13.819  19.279   6.119
61900W        W65861  11.528  19.872   5.326
61901W        W65862  11.822  20.811   4.975
61902W        W65863  13.585  19.431   4.940
61903W        W65864  12.608  18.810   5.636
61904W        W65865  14.570  20.721   6.147
61905W        W65866  14.488  18.708   5.708
61906W        W65867  11.027  21.538   5.084
61907W        W65868  11.536  20.725   4.620
61908W        W65869  11.451  18.342   7.173
61909W        W65870  12.570  21.195   7.275
61910W        W65871  14.325  20.163   5.065
61911W        W65872  13.679  20.340   3.945
61912W        W65873  12.974  21.861   6.157
61913W        W65874  13.831  20.583   7.194
61914W        W65875  12.646  18.293   4.474
61915W        W65876  13.359  19.162   5.333
61916W        W65877  11.045  20.749   5.665
61917W        W65878  12.298  18.711   4.306
61918W        W65879  12.102  20.195   7.155
61919W        W65880  13.096  19.176   4.869
61920W        W65881  13.301  20.586   5.991
61921W        W65882  11.455  21.191   6.426
61922W        W65883  12.046  21.174   7.149
61923W        W65884  11.897  18.971   4.163
61924W        W65885  13.414  19.113   4.488
61925W        W65886  13.372  21.221   6.725
61926W        W65887  12.057  19.813   5.324
61927W        W65888  11.712  21.511   6.189
61928W        W65889  14.457  21.628   3.790
61929W        W65890  11.320  20.300   6.786
61930W        W65891  13.315  20.562   5.474
61931W        W65892  11.751  20.211   4.716
61932W        W65893  12.122  21.218   6.111
61933W        W65894  12.500  18.637   5.152
61934W        W65895  11.111  20.621   4.082
61935W        W65896  12.630  19.572   3.952
61936W        W65897  11.276  20.121   4.971
61937W        W65898  12.566  18.763   6.435
61938W        W65899  14.238  18.472   3.862
61939W        W65900  14.331  20.218   6.961
61940W        W65901  12.985  21.475   7.113
61941W        W65902  14.543  20.569   6.635
61942W        W65903  13.951  21.367   7.246
61943W        W65904  11.690  21.823   5.724
61944W        W65905  14.549  20.445   4.598
61945W        W65906  13.079  19.712   5.111
61946W        W65907  12.846  18.324   5.001
61947W        W65908  11.905  21.308   4.838
61948W        W65909  12.404  19.049   6.063
61949W        W65910  12.104  18.418   5.532
61950W        W65911  11.167  21.240   4.080
61951W        W65912  12.983  20.604   4.798
61952W        W65913  11.858  21.399   6.677
61953W        W65914  11.335  20.222   4.373
61954W        W65915  11.220  18.765   5.372
61955W        W65916  12.768  20.730   5.429
61956W        W65917  11.020  18.584   4.449
61957W        W65918  13.684  19.790   6.376
61958W        W65919  13.561  19.176   3.948
61959W        W65920  14.078  20.848   5.596
61960W        W65921  12.739  21.332   5.427
61961W        W65922  12.151  21.436   4.338
61962W        W65923  13.433  18.339   3.768
61963W        W65924  11.233  21.599   5.509
61964W        W65925  13.430  19.357   7.144
61965W        W65926  11.413  18.887   7.143
61966W        W65927  11.144  19.487   4.476
61967W        W65928  11.835  19.476   4.201
61968W        W65929  13.598  19.803   7.018
61969W        W65930  11.941  20.084   5.727
61970W        W65931  13.415  18.370   4.847
61971W        W65932  12.546  21.801   5.350
61972W        W65933  13.760  21.263   6.287
61973W        W65934  13.344  21.412   5.398
61974W        W65935  13.363  20.392   4.992
61975W        W65936  12.825  18.617   4.063
61976W        W65937  14.506  18.245   4.785
61977W        W65938  12.194  19.880   3.948
61978W        W65939  14.360  19.217   4.938
61979W        W65940  13.052  20.387   3.815
61980W        W65941  13.988  20.587   6.563
61981W        W65942  13.642  21.288   4.030
61982W        W65943  12.257  18.963   6.936
61983W        W65944  12.077  19.547   6.177
61984W        W65945  14.169  21.042   6.454
61985W        W65946  13.269  18.992   6.831
61986W        W65947  11.113  19.463   6.608
61987W        W65948  12.873  19.940   6.334
61988W        W65949  11.230  20.698   4.991
61989W        W65950  11.377  19.995   5.881
61990W        W65951  13.694  20.281   6.231
61991W        W65952  13.466  21.661   7.042
61992W        W65953  13.362  19.400   6.595
61993W        W65954  13.639  21.454   5.000
61994W        W65955  12.641  21.174   6.323
61995W        W65956  12.126  21.529   5.592
61996W        W65957  13.931  20.700   6.011
61997W        W65958  12.981  20.772   7.148
61998W        W65959  11.586  20.725   5.487
61999W        W65960  13.932  20.484   5.132
62000W        W65961  13.573  21.550   5.883
62001W        W65962  11.551  21.279   5.753
62002W        W65963  12.572  19.331   6.963
62003W        W65964  13.023  21.497   4.474
62004W        W65965  12.331  20.752   7.112
62005W        W65966  12.457  20.990   4.489
62006W        W65967  11.678  19.730   3.748
62007W        W65968  11.017  21.816  10.648
62008W        W65969  11.393  20.709  10.171
62009W        W65970  14.098  20.439   7.941
62010W        W65971  14.228  21.524   9.968
62011W        W65972  12.146  21.515   7.494
62012W        W65973  12.229  19.667   8.477
62013W        W65974  11.744  19.515   8.641
62014W        W65975  12.735  20.330   8.075
62015W        W65976  12.410  21.422  10.430
62016W        W65977  11.059  18.983  10.393
62017W        W65978  11.821  18.263  10.195
62018W        W65979  13.515  18.651   9.082
62019W        W65980  13.164  19.522   7.652
62020W        W65981  13.734  18.956  10.743
62021W        W65982  11.100  18.748   9.868
62022W        W65983  11.199  21.367  10.889
62023W        W65984  12.721  20.757   7.621
62024W        W65985  11.153  19.540   9.314
62025W        W65986  12.046  19.431  10.551
62026W        W65987  14.505  19.290   9.050
62027W        W65988  14.269  20.333   9.909
62028W        W65989  12.577  19.666   8.936
62029W        W65990  13.123  21.005   9.305
62030W        W65991  11.623  20.439   9.537
62031W        W65992  10.982  19.967   9.108
62032W        W65993  12.018  19.939  10.300
62033W        W65994  14.289  19.722  10.554
62034W        W65995  11.905  21.166   8.999
62035W        W65996  12.246  19.495   9.358
62036W        W65997  12.538  20.279   9.001
62037W        W65998  13.535  21.052  10.849
62038W        W65999  12.614  20.372  10.859
62039W        W66000  12.595  20.088  10.337
62040W        W66001  11.004  19.479  10.859
62041W        W66002  13.836  21.014  10.458
62042W        W66003  11.417  18.596   8.456
62043W        W66004  11.944  20.854   9.455
62044W        W66005  14.407  20.637   8.745
62045W        W66006  13.820  19.037   9.312
62046W        W66007  14.105  18.990   7.407
62047W        W66008  14.570  19.791   9.713
62048W        W66009  12.537  21.498   9.466
62049W        W66010  14.311  20.964   7.904
62050W        W66011  11.440  21.750   7.658
62051W        W66012  11.833  21.796   8.334
62052W        W66013  11.630  18.550   9.760
62053W        W66014  14.253  19.568  10.035
62054W        W66015  13.658  19.990   8.494
62055W        W66016  13.624  19.678   7.521
62056W        W66017  12.832  20.822   9.661
62057W        W66018  12.638  19.152   8.860
62058W        W66019  13.238  21.239   9.854
62059W        W66020  14.109  20.030   8.276
62060W        W66021  13.011  18.688   8.292
62061W        W66022  11.668  21.382   7.975
62062W        W66023  11.039  18.881   8.574
62063W        W66024  13.825  19.488   9.048
62064W        W66025  11.283  21.105   8.963
62065W        W66026  12.624  21.455   7.833
62066W        W66027  14.016  19.481   7.297
62067W        W66028  11.039  21.239   9.461
62068W        W66029  11.830  20.811   9.941
62069W        W66030  12.203  20.171   8.560
62070W        W66031  12.225  18.576   9.653
62071W        W66032  14.454  18.338   8.950
62072W        W66033  11.673  20.210   7.418
62073W        W66034  11.328  19.243   7.597
62074W        W66035  11.390  21.199   8.391
62075W        W66036  12.521  20.682   8.639
62076W        W66037  13.853  21.541  10.353
62077W        W66038  12.779  19.183   8.037
62078W        W66039  14.162  21.581   8.809
62079W        W66040  13.839  19.434  10.407
62080W        W66041  14.552  21.090   8.541
62081W        W66042  13.179  20.382  10.025
62082W        W66043  10.945  19.933   8.231
62083W        W66044  12.056  20.348   9.804
62084W        W66045  13.260  19.612   8.182
62085W        W66046  13.137  20.102   8.286
62086W        W66047  11.480  19.522   9.760
62087W        W66048  11.465  19.398  10.682
62088W        W66049  11.355  18.315   8.841
62089W        W66050  13.123  18.662   9.402
62090W        W66051  12.771  18.847  10.565
62091W        W66052  13.126  18.996   7.743
62092W        W66053  14.309  21.389  10.497
62093W        W66054  13.276  18.470  10.536
62094W        W66055  14.295  20.771  10.658
62095W        W66056  13.725  18.938  10.254
62096W        W66057  13.525  18.876   8.524
62097W        W66058  13.918  20.010  10.928
62098W        W66059  11.658  21.586   8.914
62099W        W66060  12.316  19.303   7.900
62100W        W66061  11.885  18.587  10.564
62101W        W66062  13.937  19.071   8.245
62102W        W66063  14.304  19.553   8.190
62103W        W66064  12.047  21.770  10.661
62104W        W66065  11.973  18.306   7.896
62105W        W66066  14.294  18.840   8.931
62106W        W66067  14.444  21.089   7.376
62107W        W66068  11.351  20.292   9.078
62108W        W66069  13.268  18.879   7.308
62109W        W66070  14.402  21.211   9.028
62110W        W66071  14.441  18.405   9.778
62111W        W66072  12.886  19.617  10.332
62112W        W66073  12.979  20.956   8.035
62113W        W66074  13.379  20.250  10.775
62114W        W66075  13.053  18.227   9.084
62115W        W66076  11.665  19.130   9.147
62116W        W66077  11.219  20.330   9.921
62117W        W66078  13.078  21.523   8.627
62118W        W66079  14.272  19.120   9.499
62119W        W66080  12.909  21.467  10.266
62120W        W66081  14.252  20.526   7.471
62121W        W66082  12.687  20.009   8.532
62122W        W66083  14.539  18.520  10.273
62123W        W66084  12.688  20.355   9.867
62124W        W66085  12.905  19.241   9.312
62125W        W66086  13.757  19.539   8.150
62126W        W66087  14.044  19.272   7.792
62127W        W66088  13.853  21.312   8.181
62128W        W66089  13.687  20.915   8.977
62129W        W66090  13.583  19.994   7.955
62130W        W66091  13.016  20.204   8.941
62131W        W66092  13.897  19.992   9.008
62132W        W66093  11.272  19.007   9.432
62133W        W66094  14.050  20.059  10.259
62134W        W66095  14.401  21.677   9.405
62135W        W66096  12.331  21.121   8.807
62136W        W66097  13.338  21.654  10.131
62137W        W66098  13.332  18.984   9.895
62138W        W66099  12.539  21.692   9.956
62139W        W66100  14.236  18.646   8.422
62140W        W66101  14.027  19.965   9.723
62141W        W66102  11.010  19.286   9.761
62142W        W66103  13.870  19.081   8.779
62143W        W66104  14.281  19.232  10.556
62144W        W66105  13.166  20.931   8.774
62145W        W66106  12.422  21.522   8.387
62146W        W66107  11.537  18.702   7.645
62147W        W66108  12.641  18.356   9.455
62148W        W66109  11.669  21.476   7.303
62149W        W66110  12.043  19.942   8.054
62150W        W66111  12.697  20.571  10.367
62151W        W66112  12.527  18.929   8.357
62152W        W66113  13.883  18.526   8.785
62153W        W66114  13.603  21.808   9.113
62154W        W66115  13.015  21.456   9.453
62155W        W66116  12.411  20.493   9.414
62156W        W66117  14.181  21.216   9.540
62157W        W66118  11.875  18.719   8.309
62158W        W66119  12.397  21.016   9.269
62159W        W66120  11.880  18.947   7.334
62160W        W66121  12.681  19.556   9.728
62161W        W66122  13.529  18.422   9.598
62162W        W66123  10.949  20.265   9.483
62163W        W66124  12.653  20.083   7.641
62164W        W66125  11.921  18.398   7.411
62165W        W66126  12.659  19.479   8.462
62166W        W66127  13.629  18.455  10.161
62167W        W66128  12.217  20.467  10.270
62168W        W66129  13.021  20.249  10.487
62169W        W66130  13.638  20.279  10.380
62170W        W66131  12.922  18.419  10.885
62171W        W66132  12.144  19.035   9.278
62172W        W66133  11.570  18.991   8.676
62173W        W66134  11.356  21.703   8.352
62174W        W66135  12.688  21.033  10.477
62175W        W66136  11.723  20.518   7.836
62176W        W66137  13.403  19.903   9.057
62177W        W66138  13.683  19.702   9.456
62178W        W66139  12.888  20.376   9.390
62179W        W66140  13.358  20.750   7.522
62180W        W66141  13.030  18.771   8.850
62181W        W66142  14.509  19.049   8.118
62182W        W66143  11.003  21.638  10.149
62183W        W66144  11.420  20.864   9.681
62184W        W66145  10.987  21.710   7.913
62185W        W66146  12.886  18.980   9.719
62186W        W66147  12.249  21.003   7.568
62187W        W66148  14.154  21.385   7.754
62188W        W66149  13.129  20.038   7.768
62189W        W66150  11.972  19.229   8.285
62190W        W66151  12.804  19.139   7.337
62191W        W66152  13.388  20.704  10.515
62192W        W66153  13.741  18.610   8.132
62193W        W66154  11.071  18.458   7.580
62194W        W66155  12.357  20.777   9.870
62195W        W66156  12.156  20.693   8.962
62196W        W66157  11.898  20.645   7.360
62197W        W66158  11.139  20.886   8.128
62198W        W66159  11.643  19.956  10.570
62199W        W66160  12.347  18.516  10.756
62200W        W66161  13.056  18.658  10.112
62201W        W66162  12.251  18.426   8.393
62202W        W66163  13.310  18.503   7.898
62203W        W66164  11.255  18.435   9.475
62204W        W66165  11.303  19.398   8.845
62205W        W66166  13.992  18.506   9.251
62206W        W66167  11.414  19.004   8.065
62207W        W66168  13.985  18.692   9.681
62208W        W66169  14.381  19.895   7.366
62209W        W66170  11.673  18.653   9.185
62210W        W66171  12.787  19.225  10.125
62211W        W66172  10.935  18.915   7.603
62212W        W66173  11.721  20.304  10.164
62213W        W66174  13.079  19.702   9.343
62214W        W66175  12.946  21.781   7.639
62215W        W66176  11.092  20.288   7.336
62216W        W66177  11.827  20.699  10.462
62217W        W66178  11.348  19.866  10.093
62218W        W66179  12.339  19.971   9.887
62219W        W66180  14.107  18.330  10.149
62220W        W66181  14.505  19.940  10.140
62221W        W66182  14.493  20.140   7.826
62222W        W66183  13.356  20.472   7.925
62223W        W66184  13.830  21.772   7.620
62224W        W66185  13.007  19.762  10.762
62225W        W66186  11.337  20.729  10.802
62226W        W66187  14.543  18.651  10.754
62227W        W66188  14.261  19.579   9.375
62228W        W66189  12.569  21.709  10.852
62229W        W66190  12.424  18.338   7.579
62230W        W66191  13.963  20.937   7.522
62231W        W66192  11.732  19.030  10.408
62232W        W66193  12.166  21.024  10.270
62233W        W66194  14.292  19.015  10.068
62234W        W66195  13.503  21.674   8.036
62235W        W66196  13.742  20.293   9.403
62236W        W66197  11.992  18.709  10.070
62237W        W66198  12.461  19.778  10.827
62238W        W66199  11.964  20.957   8.021
62239W        W66200  13.719  20.455   8.285
62240W        W66201  11.487  19.081  10.009
62241W        W66202  12.816  21.143   8.473
62242W        W66203  14.566  19.703   8.654
62243W        W66204  12.788  18.336  10.373
62244W        W66205  13.568  21.041   9.452
62245W        W66206  13.871  21.385   9.160
62246W        W66207  13.090  21.187   7.588
62247W        W66208  11.100  21.079  10.430
62248W        W66209  11.843  19.071   9.668
62249W        W66210  11.813  18.419   8.778
62250W        W66211  13.434  19.261   9.470
62251W        W66212  12.232  20.432   7.670
62252W        W66213  14.230  20.374   9.169
62253W        W66214  11.557  21.132  10.592
62254W        W66215  13.944  21.814   8.389
62255W        W66216  12.043  18.834   8.834
62256W        W66217  11.812  20.327   8.924
62257W        W66218  12.125  21.738   9.674
62258W        W66219  14.192  21.834  10.706
62259W        W66220  13.351  20.022   9.639
62260W        W66221  11.200  19.820   7.554
62261W        W66222  14.334  21.478   8.251
62262W        W66223  14.171  18.802   7.870
62263W        W66224  12.310  18.321  10.273
62264W        W66225  14.016  21.123   8.731
62265W        W66226  14.045  19.679   8.636
62266W        W66227  12.162  19.352   8.852
62267W        W66228  12.407  19.614  10.176
62268W        W66229  13.518  20.767  10.039
62269W        W66230  12.168  19.221  10.151
62270W        W66231  12.147  21.687   8.767
62271W        W66232  11.464  21.646  10.401
62272W        W66233  11.576  21.007   7.531
62273W        W66234  14.093  20.765   8.341
62274W        W66235  11.697  19.557  10.227
62275W        W66236  14.470  19.487   7.708
62276W        W66237  12.215  20.544   8.179
62277W        W66238  13.314  19.926  10.260
62278W        W66239  13.205  19.554   9.804
62279W        W66240  11.765  19.926   9.833
62280W        W66241  13.975  21.814   9.662
62281W        W66242  13.766  18.448  10.656
62282W        W66243  11.430  18.598  10.243
62283W        W66244  11.769  19.621   9.296
62284W        W66245  12.138  19.435   7.418
62285W        W66246  10.941  21.194   9.963
62286W        W66247  12.526  19.903   9.406
62287W        W66248  12.349  18.928   7.511
62288W        W66249  11.484  19.744   8.292
62289W        W66250  11.255  21.596   9.729
62290W        W66251  14.050  19.822   7.837
62291W        W66252  14.145  18.738  10.523
62292W        W66253  13.581  20.947   8.486
62293W        W66254  11.179  19.871  10.663
62294W        W66255  14.145  18.335   7.959
62295W        W66256  13.665  20.810   7.970
62296W        W66257  12.567  19.868   8.055
62297W        W66258  13.754  18.672   7.578
62298W        W66259  13.819  19.279   9.764
62299W        W66260  11.528  19.872   8.971
62300W        W66261  11.822  20.811   8.620
62301W        W66262  13.585  19.431   8.585
62302W        W66263  12.608  18.810   9.281
62303W        W66264  14.570  20.721   9.792
62304W        W66265  14.488  18.708   9.353
62305W        W66266  11.027  21.538   8.729
62306W        W66267  11.536  20.725   8.265
62307W        W66268  11.451  18.342  10.818
62308W        W66269  12.570  21.195  10.920
62309W        W66270  14.325  20.163   8.710
62310W        W66271  13.679  20.340   7.590
62311W        W66272  12.974  21.861   9.802
62312W        W66273  13.831  20.583  10.839
62313W        W66274  12.646  18.293   8.119
62314W        W66275  13.359  19.162   8.978
62315W        W66276  11.045  20.749   9.310
62316W        W66277  12.298  18.711   7.951
62317W        W66278  12.102  20.195  10.800
62318W        W66279  13.096  19.176   8.514
62319W        W66280  13.301  20.586   9.636
62320W        W66281  11.455  21.191  10.071
62321W        W66282  12.046  21.174  10.794
62322W        W66283  11.897  18.971   7.808
62323W        W66284  13.414  19.113   8.133
62324W        W66285  13.372  21.221  10.370
62325W        W66286  12.057  19.813   8.969
62326W        W66287  11.712  21.511   9.834
62327W        W66288  14.457  21.628   7.435
62328W        W66289  11.320  20.300  10.431
62329W        W66290  13.315  20.562   9.119
62330W        W66291  11.751  20.211   8.361
62331W        W66292  12.122  21.218   9.756
62332W        W66293  12.500  18.637   8.797
62333W        W66294  11.111  20.621   7.727
62334W        W66295  12.630  19.572   7.597
62335W        W66296  11.276  20.121   8.616
62336W        W66297  12.566  18.763  10.080
62337W        W66298  14.238  18.472   7.507
62338W        W66299  14.331  20.218  10.606
62339W        W66300  12.985  21.475  10.758
62340W        W66301  14.543  20.569  10.280
62341W        W66302  13.951  21.367  10.891
62342W        W66303  11.690  21.823   9.369
62343W        W66304  14.549  20.445   8.243
62344W        W66305  13.079  19.712   8.756
62345W        W66306  12.846  18.324   8.646
62346W        W66307  11.905  21.308   8.483
62347W        W66308  12.404  19.049   9.708
62348W        W66309  12.104  18.418   9.177
62349W        W66310  11.167  21.240   7.725
62350W        W66311  12.983  20.604   8.443
62351W        W66312  11.858  21.399  10.322
62352W        W66313  11.335  20.222   8.018
62353W        W66314  11.220  18.765   9.017
62354W        W66315  12.768  20.730   9.074
62355W        W66316  11.020  18.584   8.094
62356W        W66317  13.684  19.790  10.021
62357W        W66318  13.561  19.176   7.593
62358W        W66319  14.078  20.848   9.241
62359W        W66320  12.739  21.332   9.072
62360W        W66321  12.151  21.436   7.983
62361W        W66322  13.433  18.339   7.413
62362W        W66323  11.233  21.599   9.154
62363W        W66324  13.430  19.357  10.789
62364W        W66325  11.413  18.887  10.788
62365W        W66326  11.144  19.487   8.121
62366W        W66327  11.835  19.476   7.846
62367W        W66328  13.598  19.803  10.663
62368W        W66329  11.941  20.084   9.372
62369W        W66330  13.415  18.370   8.492
62370W        W66331  12.546  21.801   8.995
62371W        W66332  13.344  21.412   9.043
62372W        W66333  13.363  20.392   8.637
62373W        W66334  12.825  18.617   7.708
62374W        W66335  14.506  18.245   8.430
62375W        W66336  12.194  19.880   7.593
62376W        W66337  14.360  19.217   8.583
62377W        W66338  13.052  20.387   7.460
62378W        W66339  13.988  20.587  10.208
62379W        W66340  13.642  21.288   7.675
62380W        W66341  12.257  18.963  10.581
62381W        W66342  12.077  19.547   9.822
62382W        W66343  14.169  21.042  10.099
62383W        W66344  13.269  18.992  10.476
62384W        W66345  11.113  19.463  10.253
62385W        W66346  12.873  19.940   9.979
62386W        W66347  11.230  20.698   8.636
62387W        W66348  11.377  19.995   9.526
62388W        W66349  13.694  20.281   9.876
62389W        W66350  13.466  21.661  10.687
62390W        W66351  13.362  19.400  10.240
62391W        W66352  13.639  21.454   8.645
62392W        W66353  12.126  21.529   9.237
62393W        W66354  13.931  20.700   9.656
62394W        W66355  12.981  20.772  10.793
62395W        W66356  11.586  20.725   9.132
62396W        W66357  13.932  20.484   8.777
62397W        W66358  13.573  21.550   9.528
62398W        W66359  11.551  21.279   9.398
62399W        W66360  12.572  19.331  10.608
62400W        W66361  13.023  21.497   8.119
62401W        W66362  12.331  20.752  10.757
62402W        W66363  12.457  20.990   8.134
62403W        W66364  11.678  19.730   7.393
62404W        W66365  11.017  21.816  14.292
62405W        W66366  11.393  20.709  13.815
62406W        W66367  14.098  20.439  11.585
62407W        W66368  14.228  21.524  13.612
62408W        W66369  12.146  21.515  11.138
62409W        W66370  12.229  19.667  12.121
62410W        W66371  11.744  19.515  12.285
62411W        W66372  12.735  20.330  11.719
62412W        W66373  12.410  21.422  14.074
62413W        W66374  11.059  18.983  14.037
62414W        W66375  11.821  18.263  13.839
62415W        W66376  13.515  18.651  12.726
62416W        W66377  13.164  19.522  11.296
62417W        W66378  13.734  18.956  14.387
62418W        W66379  11.100  18.748  13.512
62419W        W66380  11.199  21.367  14.533
62420W        W66381  12.721  20.757  11.265
62421W        W66382  11.153  19.540  12.958
62422W        W66383  12.046  19.431  14.195
62423W        W66384  14.505  19.290  12.694
62424W        W66385  14.269  20.333  13.553
62425W        W66386  12.577  19.666  12.580
62426W        W66387  13.123  21.005  12.949
62427W        W66388  11.623  20.439  13.181
62428W        W66389  10.982  19.967  12.752
62429W        W66390  12.018  19.939  13.944
62430W        W66391  14.289  19.722  14.198
62431W        W66392  11.905  21.166  12.643
62432W        W66393  13.026  20.855  13.777
62433W        W66394  12.246  19.495  13.002
62434W        W66395  12.538  20.279  12.645
62435W        W66396  13.535  21.052  14.493
62436W        W66397  12.614  20.372  14.503
62437W        W66398  12.595  20.088  13.981
62438W        W66399  11.004  19.479  14.503
62439W        W66400  13.836  21.014  14.102
62440W        W66401  11.417  18.596  12.100
62441W        W66402  11.944  20.854  13.099
62442W        W66403  14.407  20.637  12.389
62443W        W66404  13.820  19.037  12.956
62444W        W66405  14.105  18.990  11.051
62445W        W66406  14.570  19.791  13.357
62446W        W66407  12.537  21.498  13.110
62447W        W66408  14.311  20.964  11.548
62448W        W66409  11.440  21.750  11.302
62449W        W66410  11.833  21.796  11.978
62450W        W66411  11.630  18.550  13.404
62451W        W66412  14.253  19.568  13.679
62452W        W66413  13.658  19.990  12.138
62453W        W66414  13.624  19.678  11.165
62454W        W66415  12.832  20.822  13.305
62455W        W66416  12.638  19.152  12.504
62456W        W66417  13.238  21.239  13.498
62457W        W66418  14.109  20.030  11.920
62458W        W66419  13.011  18.688  11.936
62459W        W66420  11.668  21.382  11.619
62460W        W66421  11.039  18.881  12.218
62461W        W66422  13.825  19.488  12.692
62462W        W66423  11.283  21.105  12.607
62463W        W66424  12.624  21.455  11.477
62464W        W66425  14.016  19.481  10.941
62465W        W66426  11.039  21.239  13.105
62466W        W66427  11.830  20.811  13.585
62467W        W66428  12.203  20.171  12.204
62468W        W66429  12.225  18.576  13.297
62469W        W66430  14.454  18.338  12.594
62470W        W66431  11.673  20.210  11.062
62471W        W66432  11.328  19.243  11.241
62472W        W66433  11.390  21.199  12.035
62473W        W66434  12.521  20.682  12.283
62474W        W66435  13.853  21.541  13.997
62475W        W66436  12.779  19.183  11.681
62476W        W66437  14.162  21.581  12.453
62477W        W66438  13.839  19.434  14.051
62478W        W66439  14.552  21.090  12.185
62479W        W66440  13.179  20.382  13.669
62480W        W66441  10.945  19.933  11.875
62481W        W66442  12.056  20.348  13.448
62482W        W66443  13.260  19.612  11.826
62483W        W66444  13.137  20.102  11.930
62484W        W66445  11.480  19.522  13.404
62485W        W66446  11.465  19.398  14.326
62486W        W66447  11.355  18.315  12.485
62487W        W66448  13.123  18.662  13.046
62488W        W66449  12.771  18.847  14.209
62489W        W66450  13.126  18.996  11.387
62490W        W66451  14.309  21.389  14.141
62491W        W66452  13.276  18.470  14.180
62492W        W66453  14.295  20.771  14.302
62493W        W66454  13.725  18.938  13.898
62494W        W66455  13.525  18.876  12.168
62495W        W66456  13.918  20.010  14.572
62496W        W66457  11.658  21.586  12.558
62497W        W66458  12.316  19.303  11.544
62498W        W66459  11.885  18.587  14.208
62499W        W66460  13.937  19.071  11.889
62500W        W66461  14.304  19.553  11.834
62501W        W66462  12.047  21.770  14.305
62502W        W66463  11.973  18.306  11.540
62503W        W66464  14.294  18.840  12.575
62504W        W66465  14.444  21.089  11.020
62505W        W66466  11.351  20.292  12.722
62506W        W66467  13.268  18.879  10.952
62507W        W66468  14.402  21.211  12.672
62508W        W66469  14.441  18.405  13.422
62509W        W66470  12.886  19.617  13.976
62510W        W66471  12.979  20.956  11.679
62511W        W66472  13.379  20.250  14.419
62512W        W66473  13.053  18.227  12.728
62513W        W66474  11.665  19.130  12.791
62514W        W66475  11.219  20.330  13.565
62515W        W66476  13.078  21.523  12.271
62516W        W66477  14.272  19.120  13.143
62517W        W66478  12.909  21.467  13.910
62518W        W66479  14.252  20.526  11.115
62519W        W66480  12.687  20.009  12.176
62520W        W66481  14.539  18.520  13.917
62521W        W66482  12.688  20.355  13.511
62522W        W66483  12.905  19.241  12.956
62523W        W66484  13.757  19.539  11.794
62524W        W66485  14.044  19.272  11.436
62525W        W66486  13.853  21.312  11.825
62526W        W66487  13.687  20.915  12.621
62527W        W66488  13.583  19.994  11.599
62528W        W66489  13.016  20.204  12.585
62529W        W66490  13.897  19.992  12.652
62530W        W66491  11.272  19.007  13.076
62531W        W66492  14.050  20.059  13.903
62532W        W66493  14.401  21.677  13.049
62533W        W66494  12.331  21.121  12.451
62534W        W66495  13.338  21.654  13.775
62535W        W66496  13.332  18.984  13.539
62536W        W66497  12.539  21.692  13.600
62537W        W66498  14.236  18.646  12.066
62538W        W66499  14.027  19.965  13.367
62539W        W66500  11.010  19.286  13.405
62540W        W66501  13.870  19.081  12.423
62541W        W66502  14.281  19.232  14.200
62542W        W66503  13.166  20.931  12.418
62543W        W66504  12.422  21.522  12.031
62544W        W66505  11.537  18.702  11.289
62545W        W66506  12.641  18.356  13.099
62546W        W66507  11.669  21.476  10.947
62547W        W66508  12.043  19.942  11.698
62548W        W66509  12.697  20.571  14.011
62549W        W66510  12.527  18.929  12.001
62550W        W66511  13.883  18.526  12.429
62551W        W66512  13.603  21.808  12.757
62552W        W66513  13.015  21.456  13.097
62553W        W66514  12.411  20.493  13.058
62554W        W66515  14.181  21.216  13.184
62555W        W66516  11.875  18.719  11.953
62556W        W66517  12.397  21.016  12.913
62557W        W66518  11.880  18.947  10.978
62558W        W66519  12.681  19.556  13.372
62559W        W66520  13.529  18.422  13.242
62560W        W66521  10.949  20.265  13.127
62561W        W66522  12.653  20.083  11.285
62562W        W66523  11.921  18.398  11.055
62563W        W66524  12.659  19.479  12.106
62564W        W66525  13.629  18.455  13.805
62565W        W66526  12.217  20.467  13.914
62566W        W66527  13.021  20.249  14.131
62567W        W66528  13.638  20.279  14.024
62568W        W66529  12.922  18.419  14.529
62569W        W66530  12.144  19.035  12.922
62570W        W66531  11.570  18.991  12.320
62571W        W66532  11.356  21.703  11.996
62572W        W66533  12.688  21.033  14.121
62573W        W66534  11.723  20.518  11.480
62574W        W66535  13.403  19.903  12.701
62575W        W66536  13.683  19.702  13.100
62576W        W66537  12.888  20.376  13.034
62577W        W66538  13.358  20.750  11.166
62578W        W66539  13.030  18.771  12.494
62579W        W66540  14.509  19.049  11.762
62580W        W66541  11.003  21.638  13.793
62581W        W66542  11.420  20.864  13.325
62582W        W66543  10.987  21.710  11.557
62583W        W66544  12.886  18.980  13.363
62584W        W66545  12.249  21.003  11.212
62585W        W66546  14.154  21.385  11.398
62586W        W66547  13.129  20.038  11.412
62587W        W66548  11.972  19.229  11.929
62588W        W66549  12.804  19.139  10.981
62589W        W66550  13.388  20.704  14.159
62590W        W66551  13.741  18.610  11.776
62591W        W66552  11.071  18.458  11.224
62592W        W66553  12.357  20.777  13.514
62593W        W66554  12.156  20.693  12.606
62594W        W66555  11.898  20.645  11.004
62595W        W66556  11.139  20.886  11.772
62596W        W66557  11.643  19.956  14.214
62597W        W66558  12.347  18.516  14.400
62598W        W66559  13.056  18.658  13.756
62599W        W66560  12.251  18.426  12.037
62600W        W66561  13.310  18.503  11.542
62601W        W66562  11.255  18.435  13.119
62602W        W66563  11.303  19.398  12.489
62603W        W66564  13.992  18.506  12.895
62604W        W66565  11.414  19.004  11.709
62605W        W66566  13.985  18.692  13.325
62606W        W66567  14.381  19.895  11.010
62607W        W66568  11.673  18.653  12.829
62608W        W66569  12.787  19.225  13.769
62609W        W66570  10.935  18.915  11.247
62610W        W66571  11.721  20.304  13.808
62611W        W66572  13.079  19.702  12.987
62612W        W66573  12.946  21.781  11.283
62613W        W66574  11.092  20.288  10.980
62614W        W66575  11.827  20.699  14.106
62615W        W66576  11.348  19.866  13.737
62616W        W66577  12.339  19.971  13.531
62617W        W66578  14.107  18.330  13.793
62618W        W66579  14.505  19.940  13.784
62619W        W66580  14.493  20.140  11.470
62620W        W66581  13.356  20.472  11.569
62621W        W66582  13.830  21.772  11.264
62622W        W66583  13.007  19.762  14.406
62623W        W66584  11.337  20.729  14.446
62624W        W66585  14.543  18.651  14.398
62625W        W66586  14.261  19.579  13.019
62626W        W66587  12.569  21.709  14.496
62627W        W66588  12.424  18.338  11.223
62628W        W66589  13.963  20.937  11.166
62629W        W66590  11.732  19.030  14.052
62630W        W66591  12.166  21.024  13.914
62631W        W66592  14.292  19.015  13.712
62632W        W66593  13.503  21.674  11.680
62633W        W66594  13.742  20.293  13.047
62634W        W66595  11.992  18.709  13.714
62635W        W66596  12.461  19.778  14.471
62636W        W66597  11.964  20.957  11.665
62637W        W66598  13.719  20.455  11.929
62638W        W66599  11.487  19.081  13.653
62639W        W66600  12.816  21.143  12.117
62640W        W66601  14.566  19.703  12.298
62641W        W66602  12.788  18.336  14.017
62642W        W66603  13.568  21.041  13.096
62643W        W66604  13.871  21.385  12.804
62644W        W66605  13.090  21.187  11.232
62645W        W66606  11.100  21.079  14.074
62646W        W66607  11.843  19.071  13.312
62647W        W66608  11.813  18.419  12.422
62648W        W66609  13.434  19.261  13.114
62649W        W66610  12.232  20.432  11.314
62650W        W66611  14.230  20.374  12.813
62651W        W66612  11.557  21.132  14.236
62652W        W66613  13.944  21.814  12.033
62653W        W66614  12.043  18.834  12.478
62654W        W66615  11.812  20.327  12.568
62655W        W66616  12.125  21.738  13.318
62656W        W66617  14.192  21.834  14.350
62657W        W66618  13.351  20.022  13.283
62658W        W66619  11.200  19.820  11.198
62659W        W66620  14.334  21.478  11.895
62660W        W66621  14.171  18.802  11.514
62661W        W66622  12.310  18.321  13.917
62662W        W66623  14.016  21.123  12.375
62663W        W66624  14.045  19.679  12.280
62664W        W66625  12.162  19.352  12.496
62665W        W66626  12.407  19.614  13.820
62666W        W66627  13.518  20.767  13.683
62667W        W66628  12.168  19.221  13.795
62668W        W66629  12.147  21.687  12.411
62669W        W66630  11.464  21.646  14.045
62670W        W66631  11.576  21.007  11.175
62671W        W66632  14.093  20.765  11.985
62672W        W66633  11.697  19.557  13.871
62673W        W66634  14.470  19.487  11.352
62674W        W66635  12.215  20.544  11.823
62675W        W66636  13.314  19.926  13.904
62676W        W66637  13.205  19.554  13.448
62677W        W66638  11.765  19.926  13.477
62678W        W66639  13.975  21.814  13.306
62679W        W66640  13.766  18.448  14.300
62680W        W66641  11.430  18.598  13.887
62681W        W66642  11.769  19.621  12.940
62682W        W66643  12.138  19.435  11.062
62683W        W66644  10.941  21.194  13.607
62684W        W66645  12.526  19.903  13.050
62685W        W66646  12.349  18.928  11.155
62686W        W66647  11.484  19.744  11.936
62687W        W66648  11.255  21.596  13.373
62688W        W66649  14.050  19.822  11.481
62689W        W66650  14.145  18.738  14.167
62690W        W66651  13.581  20.947  12.130
62691W        W66652  11.179  19.871  14.307
62692W        W66653  14.145  18.335  11.603
62693W        W66654  13.665  20.810  11.614
62694W        W66655  12.567  19.868  11.699
62695W        W66656  13.754  18.672  11.222
62696W        W66657  13.819  19.279  13.408
62697W        W66658  11.528  19.872  12.615
62698W        W66659  11.822  20.811  12.264
62699W        W66660  13.585  19.431  12.229
62700W        W66661  12.608  18.810  12.925
62701W        W66662  14.570  20.721  13.436
62702W        W66663  14.488  18.708  12.997
62703W        W66664  11.027  21.538  12.373
62704W        W66665  11.536  20.725  11.909
62705W        W66666  11.451  18.342  14.462
62706W        W66667  12.570  21.195  14.564
62707W        W66668  14.325  20.163  12.354
62708W        W66669  13.679  20.340  11.234
62709W        W66670  12.974  21.861  13.446
62710W        W66671  13.831  20.583  14.483
62711W        W66672  12.646  18.293  11.763
62712W        W66673  13.359  19.162  12.622
62713W        W66674  11.045  20.749  12.954
62714W        W66675  12.298  18.711  11.595
62715W        W66676  12.102  20.195  14.444
62716W        W66677  13.096  19.176  12.158
62717W        W66678  13.301  20.586  13.280
62718W        W66679  11.455  21.191  13.715
62719W        W66680  12.046  21.174  14.438
62720W        W66681  11.897  18.971  11.452
62721W        W66682  13.414  19.113  11.777
62722W        W66683  13.372  21.221  14.014
62723W        W66684  12.057  19.813  12.613
62724W        W66685  11.712  21.511  13.478
62725W        W66686  14.457  21.628  11.079
62726W        W66687  11.320  20.300  14.075
62727W        W66688  13.315  20.562  12.763
62728W        W66689  11.751  20.211  12.005
62729W        W66690  12.122  21.218  13.400
62730W        W66691  12.500  18.637  12.441
62731W        W66692  11.111  20.621  11.371
62732W        W66693  12.630  19.572  11.241
62733W        W66694  11.276  20.121  12.260
62734W        W66695  12.566  18.763  13.724
62735W        W66696  14.238  18.472  11.151
62736W        W66697  14.331  20.218  14.250
62737W        W66698  12.985  21.475  14.402
62738W        W66699  14.543  20.569  13.924
62739W        W66700  13.951  21.367  14.535
62740W        W66701  11.690  21.823  13.013
62741W        W66702  14.549  20.445  11.887
62742W        W66703  13.079  19.712  12.400
62743W        W66704  12.846  18.324  12.290
62744W        W66705  11.905  21.308  12.127
62745W        W66706  12.404  19.049  13.352
62746W        W66707  12.104  18.418  12.821
62747W        W66708  11.167  21.240  11.369
62748W        W66709  12.983  20.604  12.087
62749W        W66710  11.858  21.399  13.966
62750W        W66711  11.335  20.222  11.662
62751W        W66712  11.220  18.765  12.661
62752W        W66713  12.768  20.730  12.718
62753W        W66714  11.020  18.584  11.738
62754W        W66715  13.684  19.790  13.665
62755W        W66716  13.561  19.176  11.237
62756W        W66717  14.078  20.848  12.885
62757W        W66718  12.739  21.332  12.716
62758W        W66719  12.151  21.436  11.627
62759W        W66720  13.433  18.339  11.057
62760W        W66721  11.233  21.599  12.798
62761W        W66722  13.430  19.357  14.433
62762W        W66723  11.413  18.887  14.432
62763W        W66724  11.144  19.487  11.765
62764W        W66725  11.835  19.476  11.490
62765W        W66726  13.598  19.803  14.307
62766W        W66727  11.941  20.084  13.016
62767W        W66728  13.415  18.370  12.136
62768W        W66729  12.546  21.801  12.639
62769W        W66730  13.760  21.263  13.576
62770W        W66731  13.344  21.412  12.687
62771W        W66732  13.363  20.392  12.281
62772W        W66733  12.825  18.617  11.352
62773W        W66734  14.506  18.245  12.074
62774W        W66735  12.194  19.880  11.237
62775W        W66736  14.360  19.217  12.227
62776W        W66737  13.052  20.387  11.104
62777W        W66738  13.988  20.587  13.852
62778W        W66739  13.642  21.288  11.319
62779W        W66740  12.257  18.963  14.225
62780W        W66741  12.077  19.547  13.466
62781W        W66742  14.169  21.042  13.743
62782W        W66743  13.269  18.992  14.120
62783W        W66744  11.113  19.463  13.897
62784W        W66745  12.873  19.940  13.623
62785W        W66746  11.230  20.698  12.280
62786W        W66747  11.377  19.995  13.170
62787W        W66748  13.694  20.281  13.520
62788W        W66749  13.466  21.661  14.331
62789W        W66750  13.362  19.400  13.884
62790W        W66751  13.639  21.454  12.289
62791W        W66752  12.641  21.174  13.612
62792W        W66753  12.126  21.529  12.881
62793W        W66754  13.931  20.700  13.300
62794W        W66755  12.981  20.772  14.437
62795W        W66756  11.586  20.725  12.776
62796W        W66757  13.932  20.484  12.421
62797W        W66758  13.573  21.550  13.172
62798W        W66759  11.551  21.279  13.042
62799W        W66760  12.572  19.331  14.252
62800W        W66761  13.023  21.497  11.763
62801W        W66762  12.331  20.752  14.401
62802W        W66763  12.457  20.990  11.778
62803W        W66764  11.678  19.730  11.037
62804W        W66765  11.017  21.816  17.936
62805W        W66766  11.393  20.709  17.459
62806W        W66767  14.098  20.439  15.229
62807W        W66768  14.228  21.524  17.256
62808W        W66769  12.146  21.515  14.782
62809W        W66770  12.229  19.667  15.765
62810W        W66771  11.744  19.515  15.929
62811W        W66772  12.735  20.330  15.363
62812W        W66773  12.410  21.422  17.718
62813W        W66774  11.059  18.983  17.681
62814W        W66775  11.821  18.263  17.483
62815W        W66776  13.515  18.651  16.370
62816W        W66777  13.164  19.522  14.940
62817W        W66778  13.734  18.956  18.031
62818W        W66779  11.100  18.748  17.156
62819W        W66780  11.199  21.367  18.177
62820W        W66781  12.721  20.757  14.909
62821W        W66782  11.153  19.540  16.602
62822W        W66783  12.046  19.431  17.839
62823W        W66784  14.505  19.290  16.338
62824W        W66785  14.269  20.333  17.197
62825W        W66786  12.577  19.666  16.224
62826W        W66787  13.123  21.005  16.593
62827W        W66788  11.623  20.439  16.825
62828W        W66789  10.982  19.967  16.396
62829W        W66790  12.018  19.939  17.588
62830W        W66791  14.289  19.722  17.842
62831W        W66792  11.905  21.166  16.287
62832W        W66793  13.026  20.855  17.421
62833W        W66794  12.246  19.495  16.646
62834W        W66795  12.538  20.279  16.289
62835W        W66796  13.535  21.052  18.137
62836W        W66797  12.614  20.372  18.147
62837W        W66798  12.595  20.088  17.625
62838W        W66799  11.004  19.479  18.147
62839W        W66800  13.836  21.014  17.746
62840W        W66801  11.417  18.596  15.744
62841W        W66802  11.944  20.854  16.743
62842W        W66803  14.407  20.637  16.033
62843W        W66804  13.820  19.037  16.600
62844W        W66805  14.105  18.990  14.695
62845W        W66806  14.570  19.791  17.001
62846W        W66807  12.537  21.498  16.754
62847W        W66808  14.311  20.964  15.192
62848W        W66809  11.440  21.750  14.946
62849W        W66810  11.833  21.796  15.622
62850W        W66811  11.630  18.550  17.048
62851W        W66812  14.253  19.568  17.323
62852W        W66813  13.658  19.990  15.782
62853W        W66814  13.624  19.678  14.809
62854W        W66815  12.832  20.822  16.949
62855W        W66816  12.638  19.152  16.148
62856W        W66817  13.238  21.239  17.142
62857W        W66818  14.109  20.030  15.564
62858W        W66819  13.011  18.688  15.580
62859W        W66820  11.668  21.382  15.263
62860W        W66821  11.039  18.881  15.862
62861W        W66822  13.825  19.488  16.336
62862W        W66823  11.283  21.105  16.251
62863W        W66824  12.624  21.455  15.121
62864W        W66825  14.016  19.481  14.585
62865W        W66826  11.039  21.239  16.749
62866W        W66827  11.830  20.811  17.229
62867W        W66828  12.203  20.171  15.848
62868W        W66829  12.225  18.576  16.941
62869W        W66830  14.454  18.338  16.238
62870W        W66831  11.673  20.210  14.706
62871W        W66832  11.328  19.243  14.885
62872W        W66833  11.390  21.199  15.679
62873W        W66834  12.521  20.682  15.927
62874W        W66835  13.853  21.541  17.641
62875W        W66836  12.779  19.183  15.325
62876W        W66837  14.162  21.581  16.097
62877W        W66838  13.839  19.434  17.695
62878W        W66839  14.552  21.090  15.829
62879W        W66840  13.179  20.382  17.313
62880W        W66841  10.945  19.933  15.519
62881W        W66842  12.056  20.348  17.092
62882W        W66843  13.260  19.612  15.470
62883W        W66844  13.137  20.102  15.574
62884W        W66845  11.480  19.522  17.048
62885W        W66846  11.465  19.398  17.970
62886W        W66847  11.355  18.315  16.129
62887W        W66848  13.123  18.662  16.690
62888W        W66849  12.771  18.847  17.853
62889W        W66850  13.126  18.996  15.031
62890W        W66851  14.309  21.389  17.785
62891W        W66852  13.276  18.470  17.824
62892W        W66853  14.295  20.771  17.946
62893W        W66854  13.725  18.938  17.542
62894W        W66855  13.525  18.876  15.812
62895W        W66856  13.918  20.010  18.216
62896W        W66857  11.658  21.586  16.202
62897W        W66858  12.316  19.303  15.188
62898W        W66859  11.885  18.587  17.852
62899W        W66860  13.937  19.071  15.533
62900W        W66861  14.304  19.553  15.478
62901W        W66862  12.047  21.770  17.949
62902W        W66863  11.973  18.306  15.184
62903W        W66864  14.294  18.840  16.219
62904W        W66865  14.444  21.089  14.664
62905W        W66866  11.351  20.292  16.366
62906W        W66867  13.268  18.879  14.596
62907W        W66868  14.402  21.211  16.316
62908W        W66869  14.441  18.405  17.066
62909W        W66870  12.886  19.617  17.620
62910W        W66871  12.979  20.956  15.323
62911W        W66872  13.379  20.250  18.063
62912W        W66873  13.053  18.227  16.372
62913W        W66874  11.665  19.130  16.435
62914W        W66875  11.219  20.330  17.209
62915W        W66876  13.078  21.523  15.915
62916W        W66877  14.272  19.120  16.787
62917W        W66878  12.909  21.467  17.554
62918W        W66879  14.252  20.526  14.759
62919W        W66880  12.687  20.009  15.820
62920W        W66881  14.539  18.520  17.561
62921W        W66882  12.688  20.355  17.155
62922W        W66883  12.905  19.241  16.600
62923W        W66884  13.757  19.539  15.438
62924W        W66885  14.044  19.272  15.080
62925W        W66886  13.853  21.312  15.469
62926W        W66887  13.687  20.915  16.265
62927W        W66888  13.583  19.994  15.243
62928W        W66889  13.016  20.204  16.229
62929W        W66890  13.897  19.992  16.296
62930W        W66891  11.272  19.007  16.720
62931W        W66892  14.050  20.059  17.547
62932W        W66893  14.401  21.677  16.693
62933W        W66894  12.331  21.121  16.095
62934W        W66895  13.338  21.654  17.419
62935W        W66896  13.332  18.984  17.183
62936W        W66897  12.539  21.692  17.244
62937W        W66898  14.236  18.646  15.710
62938W        W66899  14.027  19.965  17.011
62939W        W66900  11.010  19.286  17.049
62940W        W66901  13.870  19.081  16.067
62941W        W66902  14.281  19.232  17.844
62942W        W66903  13.166  20.931  16.062
62943W        W66904  12.422  21.522  15.675
62944W        W66905  11.537  18.702  14.933
62945W        W66906  12.641  18.356  16.743
62946W        W66907  11.669  21.476  14.591
62947W        W66908  12.043  19.942  15.342
62948W        W66909  12.697  20.571  17.655
62949W        W66910  12.527  18.929  15.645
62950W        W66911  13.883  18.526  16.073
62951W        W66912  13.603  21.808  16.401
62952W        W66913  13.015  21.456  16.741
62953W        W66914  12.411  20.493  16.702
62954W        W66915  14.181  21.216  16.828
62955W        W66916  11.875  18.719  15.597
62956W        W66917  12.397  21.016  16.557
62957W        W66918  11.880  18.947  14.622
62958W        W66919  12.681  19.556  17.016
62959W        W66920  13.529  18.422  16.886
62960W        W66921  10.949  20.265  16.771
62961W        W66922  12.653  20.083  14.929
62962W        W66923  11.921  18.398  14.699
62963W        W66924  12.659  19.479  15.750
62964W        W66925  13.629  18.455  17.449
62965W        W66926  12.217  20.467  17.558
62966W        W66927  13.021  20.249  17.775
62967W        W66928  13.638  20.279  17.668
62968W        W66929  12.922  18.419  18.173
62969W        W66930  12.144  19.035  16.566
62970W        W66931  11.570  18.991  15.964
62971W        W66932  11.356  21.703  15.640
62972W        W66933  12.688  21.033  17.765
62973W        W66934  11.723  20.518  15.124
62974W        W66935  13.403  19.903  16.345
62975W        W66936  13.683  19.702  16.744
62976W        W66937  12.888  20.376  16.678
62977W        W66938  13.358  20.750  14.810
62978W        W66939  13.030  18.771  16.138
62979W        W66940  14.509  19.049  15.406
62980W        W66941  11.003  21.638  17.437
62981W        W66942  11.420  20.864  16.969
62982W        W66943  10.987  21.710  15.201
62983W        W66944  12.886  18.980  17.007
62984W        W66945  12.249  21.003  14.856
62985W        W66946  14.154  21.385  15.042
62986W        W66947  13.129  20.038  15.056
62987W        W66948  11.972  19.229  15.573
62988W        W66949  12.804  19.139  14.625
62989W        W66950  13.388  20.704  17.803
62990W        W66951  13.741  18.610  15.420
62991W        W66952  11.071  18.458  14.868
62992W        W66953  12.357  20.777  17.158
62993W        W66954  12.156  20.693  16.250
62994W        W66955  11.898  20.645  14.648
62995W        W66956  11.139  20.886  15.416
62996W        W66957  11.643  19.956  17.858
62997W        W66958  12.347  18.516  18.044
62998W        W66959  13.056  18.658  17.400
62999W        W66960  12.251  18.426  15.681
63000W        W66961  13.310  18.503  15.186
63001W        W66962  11.255  18.435  16.763
63002W        W66963  11.303  19.398  16.133
63003W        W66964  13.992  18.506  16.539
63004W        W66965  11.414  19.004  15.353
63005W        W66966  13.985  18.692  16.969
63006W        W66967  14.381  19.895  14.654
63007W        W66968  11.673  18.653  16.473
63008W        W66969  12.787  19.225  17.413
63009W        W66970  10.935  18.915  14.891
63010W        W66971  11.721  20.304  17.452
63011W        W66972  13.079  19.702  16.631
63012W        W66973  12.946  21.781  14.927
63013W        W66974  11.092  20.288  14.624
63014W        W66975  11.827  20.699  17.750
63015W        W66976  11.348  19.866  17.381
63016W        W66977  12.339  19.971  17.175
63017W        W66978  14.107  18.330  17.437
63018W        W66979  14.505  19.940  17.428
63019W        W66980  14.493  20.140  15.114
63020W        W66981  13.356  20.472  15.213
63021W        W66982  13.830  21.772  14.908
63022W        W66983  13.007  19.762  18.050
63023W        W66984  11.337  20.729  18.090
63024W        W66985  14.543  18.651  18.042
63025W        W66986  14.261  19.579  16.663
63026W        W66987  12.569  21.709  18.140
63027W        W66988  12.424  18.338  14.867
63028W        W66989  13.963  20.937  14.810
63029W        W66990  11.732  19.030  17.696
63030W        W66991  12.166  21.024  17.558
63031W        W66992  14.292  19.015  17.356
63032W        W66993  13.503  21.674  15.324
63033W        W66994  13.742  20.293  16.691
63034W        W66995  11.992  18.709  17.358
63035W        W66996  12.461  19.778  18.115
63036W        W66997  11.964  20.957  15.309
63037W        W66998  13.719  20.455  15.573
63038W        W66999  11.487  19.081  17.297
63039W        W67000  12.816  21.143  15.761
63040W        W67001  14.566  19.703  15.942
63041W        W67002  12.788  18.336  17.661
63042W        W67003  13.568  21.041  16.740
63043W        W67004  13.871  21.385  16.448
63044W        W67005  13.090  21.187  14.876
63045W        W67006  11.100  21.079  17.718
63046W        W67007  11.843  19.071  16.956
63047W        W67008  11.813  18.419  16.066
63048W        W67009  13.434  19.261  16.758
63049W        W67010  12.232  20.432  14.958
63050W        W67011  14.230  20.374  16.457
63051W        W67012  11.557  21.132  17.880
63052W        W67013  13.944  21.814  15.677
63053W        W67014  12.043  18.834  16.122
63054W        W67015  11.812  20.327  16.212
63055W        W67016  12.125  21.738  16.962
63056W        W67017  14.192  21.834  17.994
63057W        W67018  13.351  20.022  16.927
63058W        W67019  11.200  19.820  14.842
63059W        W67020  14.334  21.478  15.539
63060W        W67021  14.171  18.802  15.158
63061W        W67022  12.310  18.321  17.561
63062W        W67023  14.016  21.123  16.019
63063W        W67024  14.045  19.679  15.924
63064W        W67025  12.162  19.352  16.140
63065W        W67026  12.407  19.614  17.464
63066W        W67027  13.518  20.767  17.327
63067W        W67028  12.168  19.221  17.439
63068W        W67029  12.147  21.687  16.055
63069W        W67030  11.464  21.646  17.689
63070W        W67031  11.576  21.007  14.819
63071W        W67032  14.093  20.765  15.629
63072W        W67033  11.697  19.557  17.515
63073W        W67034  14.470  19.487  14.996
63074W        W67035  12.215  20.544  15.467
63075W        W67036  13.314  19.926  17.548
63076W        W67037  13.205  19.554  17.092
63077W        W67038  11.765  19.926  17.121
63078W        W67039  13.975  21.814  16.950
63079W        W67040  13.766  18.448  17.944
63080W        W67041  11.430  18.598  17.531
63081W        W67042  11.769  19.621  16.584
63082W        W67043  12.138  19.435  14.706
63083W        W67044  10.941  21.194  17.251
63084W        W67045  12.526  19.903  16.694
63085W        W67046  12.349  18.928  14.799
63086W        W67047  11.484  19.744  15.580
63087W        W67048  11.255  21.596  17.017
63088W        W67049  14.050  19.822  15.125
63089W        W67050  14.145  18.738  17.811
63090W        W67051  13.581  20.947  15.774
63091W        W67052  11.179  19.871  17.951
63092W        W67053  14.145  18.335  15.247
63093W        W67054  13.665  20.810  15.258
63094W        W67055  12.567  19.868  15.343
63095W        W67056  13.754  18.672  14.866
63096W        W67057  13.819  19.279  17.052
63097W        W67058  11.528  19.872  16.259
63098W        W67059  11.822  20.811  15.908
63099W        W67060  13.585  19.431  15.873
63100W        W67061  12.608  18.810  16.569
63101W        W67062  14.570  20.721  17.080
63102W        W67063  14.488  18.708  16.641
63103W        W67064  11.027  21.538  16.017
63104W        W67065  11.536  20.725  15.553
63105W        W67066  11.451  18.342  18.106
63106W        W67067  12.570  21.195  18.208
63107W        W67068  14.325  20.163  15.998
63108W        W67069  13.679  20.340  14.878
63109W        W67070  12.974  21.861  17.090
63110W        W67071  13.831  20.583  18.127
63111W        W67072  12.646  18.293  15.407
63112W        W67073  13.359  19.162  16.266
63113W        W67074  11.045  20.749  16.598
63114W        W67075  12.298  18.711  15.239
63115W        W67076  12.102  20.195  18.088
63116W        W67077  13.096  19.176  15.802
63117W        W67078  13.301  20.586  16.924
63118W        W67079  11.455  21.191  17.359
63119W        W67080  12.046  21.174  18.082
63120W        W67081  11.897  18.971  15.096
63121W        W67082  13.414  19.113  15.421
63122W        W67083  13.372  21.221  17.658
63123W        W67084  12.057  19.813  16.257
63124W        W67085  11.712  21.511  17.122
63125W        W67086  14.457  21.628  14.723
63126W        W67087  11.320  20.300  17.719
63127W        W67088  13.315  20.562  16.407
63128W        W67089  11.751  20.211  15.649
63129W        W67090  12.122  21.218  17.044
63130W        W67091  12.500  18.637  16.085
63131W        W67092  11.111  20.621  15.015
63132W        W67093  12.630  19.572  14.885
63133W        W67094  11.276  20.121  15.904
63134W        W67095  12.566  18.763  17.368
63135W        W67096  14.238  18.472  14.795
63136W        W67097  14.331  20.218  17.894
63137W        W67098  14.543  20.569  17.568
63138W        W67099  13.951  21.367  18.179
63139W        W67100  11.690  21.823  16.657
63140W        W67101  14.549  20.445  15.531
63141W        W67102  13.079  19.712  16.044
63142W        W67103  12.846  18.324  15.934
63143W        W67104  11.905  21.308  15.771
63144W        W67105  12.404  19.049  16.996
63145W        W67106  12.104  18.418  16.465
63146W        W67107  11.167  21.240  15.013
63147W        W67108  12.983  20.604  15.731
63148W        W67109  11.858  21.399  17.610
63149W        W67110  11.335  20.222  15.306
63150W        W67111  11.220  18.765  16.305
63151W        W67112  12.768  20.730  16.362
63152W        W67113  11.020  18.584  15.382
63153W        W67114  13.684  19.790  17.309
63154W        W67115  13.561  19.176  14.881
63155W        W67116  14.078  20.848  16.529
63156W        W67117  12.739  21.332  16.360
63157W        W67118  12.151  21.436  15.271
63158W        W67119  13.433  18.339  14.701
63159W        W67120  11.233  21.599  16.442
63160W        W67121  13.430  19.357  18.077
63161W        W67122  11.413  18.887  18.076
63162W        W67123  11.144  19.487  15.409
63163W        W67124  11.835  19.476  15.134
63164W        W67125  13.598  19.803  17.951
63165W        W67126  11.941  20.084  16.660
63166W        W67127  13.415  18.370  15.780
63167W        W67128  12.546  21.801  16.283
63168W        W67129  13.760  21.263  17.220
63169W        W67130  13.344  21.412  16.331
63170W        W67131  13.363  20.392  15.925
63171W        W67132  12.825  18.617  14.996
63172W        W67133  14.506  18.245  15.718
63173W        W67134  12.194  19.880  14.881
63174W        W67135  14.360  19.217  15.871
63175W        W67136  13.052  20.387  14.748
63176W        W67137  13.988  20.587  17.496
63177W        W67138  13.642  21.288  14.963
63178W        W67139  12.257  18.963  17.869
63179W        W67140  12.077  19.547  17.110
63180W        W67141  14.169  21.042  17.387
63181W        W67142  13.269  18.992  17.764
63182W        W67143  11.113  19.463  17.541
63183W        W67144  12.873  19.940  17.267
63184W        W67145  11.230  20.698  15.924
63185W        W67146  11.377  19.995  16.814
63186W        W67147  13.694  20.281  17.164
63187W        W67148  13.466  21.661  17.975
63188W        W67149  13.362  19.400  17.528
63189W        W67150  13.639  21.454  15.933
63190W        W67151  12.641  21.174  17.256
63191W        W67152  12.126  21.529  16.525
63192W        W67153  13.931  20.700  16.944
63193W        W67154  12.981  20.772  18.081
63194W        W67155  11.586  20.725  16.420
63195W        W67156  13.932  20.484  16.065
63196W        W67157  13.573  21.550  16.816
63197W        W67158  11.551  21.279  16.686
63198W        W67159  12.572  19.331  17.896
63199W        W67160  13.023  21.497  15.407
63200W        W67161  12.331  20.752  18.045
63201W        W67162  12.457  20.990  15.422
63202W        W67163  11.678  19.730  14.681
63203W        W67164  11.017  21.816  21.580
63204W        W67165  11.393  20.709  21.103
63205W        W67166  14.098  20.439  18.873
63206W        W67167  14.228  21.524  20.900
63207W        W67168  12.146  21.515  18.426
63208W        W67169  12.229  19.667  19.409
63209W        W67170  11.744  19.515  19.573
63210W        W67171  12.735  20.330  19.007
63211W        W67172  12.410  21.422  21.362
63212W        W67173  11.059  18.983  21.325
63213W        W67174  11.821  18.263  21.127
63214W        W67175  13.515  18.651  20.014
63215W        W67176  13.164  19.522  18.584
63216W        W67177  13.734  18.956  21.675
63217W        W67178  11.100  18.748  20.800
63218W        W67179  11.199  21.367  21.821
63219W        W67180  12.721  20.757  18.553
63220W        W67181  11.153  19.540  20.246
63221W        W67182  12.046  19.431  21.483
63222W        W67183  14.505  19.290  19.982
63223W        W67184  14.269  20.333  20.841
63224W        W67185  12.577  19.666  19.868
63225W        W67186  13.123  21.005  20.237
63226W        W67187  11.623  20.439  20.469
63227W        W67188  10.982  19.967  20.040
63228W        W67189  12.018  19.939  21.232
63229W        W67190  14.289  19.722  21.486
63230W        W67191  11.905  21.166  19.931
63231W        W67192  13.026  20.855  21.065
63232W        W67193  12.246  19.495  20.290
63233W        W67194  12.538  20.279  19.933
63234W        W67195  13.535  21.052  21.781
63235W        W67196  12.614  20.372  21.791
63236W        W67197  12.595  20.088  21.269
63237W        W67198  11.004  19.479  21.791
63238W        W67199  13.836  21.014  21.390
63239W        W67200  11.417  18.596  19.388
63240W        W67201  11.944  20.854  20.387
63241W        W67202  14.407  20.637  19.677
63242W        W67203  13.820  19.037  20.244
63243W        W67204  14.105  18.990  18.339
63244W        W67205  14.570  19.791  20.645
63245W        W67206  12.537  21.498  20.398
63246W        W67207  14.311  20.964  18.836
63247W        W67208  11.440  21.750  18.590
63248W        W67209  11.833  21.796  19.266
63249W        W67210  11.630  18.550  20.692
63250W        W67211  14.253  19.568  20.967
63251W        W67212  13.658  19.990  19.426
63252W        W67213  13.624  19.678  18.453
63253W        W67214  12.832  20.822  20.593
63254W        W67215  12.638  19.152  19.792
63255W        W67216  13.238  21.239  20.786
63256W        W67217  14.109  20.030  19.208
63257W        W67218  13.011  18.688  19.224
63258W        W67219  11.668  21.382  18.907
63259W        W67220  11.039  18.881  19.506
63260W        W67221  13.825  19.488  19.980
63261W        W67222  11.283  21.105  19.895
63262W        W67223  12.624  21.455  18.765
63263W        W67224  14.016  19.481  18.229
63264W        W67225  11.039  21.239  20.393
63265W        W67226  11.830  20.811  20.873
63266W        W67227  12.203  20.171  19.492
63267W        W67228  12.225  18.576  20.585
63268W        W67229  14.454  18.338  19.882
63269W        W67230  11.673  20.210  18.350
63270W        W67231  11.328  19.243  18.529
63271W        W67232  11.390  21.199  19.323
63272W        W67233  12.521  20.682  19.571
63273W        W67234  13.853  21.541  21.285
63274W        W67235  12.779  19.183  18.969
63275W        W67236  14.162  21.581  19.741
63276W        W67237  14.552  21.090  19.473
63277W        W67238  13.179  20.382  20.957
63278W        W67239  10.945  19.933  19.163
63279W        W67240  12.056  20.348  20.736
63280W        W67241  13.260  19.612  19.114
63281W        W67242  13.137  20.102  19.218
63282W        W67243  11.480  19.522  20.692
63283W        W67244  11.465  19.398  21.614
63284W        W67245  11.355  18.315  19.773
63285W        W67246  13.123  18.662  20.334
63286W        W67247  12.771  18.847  21.497
63287W        W67248  13.126  18.996  18.675
63288W        W67249  14.309  21.389  21.429
63289W        W67250  13.276  18.470  21.468
63290W        W67251  14.295  20.771  21.590
63291W        W67252  13.725  18.938  21.186
63292W        W67253  13.525  18.876  19.456
63293W        W67254  13.918  20.010  21.860
63294W        W67255  11.658  21.586  19.846
63295W        W67256  12.316  19.303  18.832
63296W        W67257  11.885  18.587  21.496
63297W        W67258  13.937  19.071  19.177
63298W        W67259  14.304  19.553  19.122
63299W        W67260  12.047  21.770  21.593
63300W        W67261  11.973  18.306  18.828
63301W        W67262  14.294  18.840  19.863
63302W        W67263  14.444  21.089  18.308
63303W        W67264  11.351  20.292  20.010
63304W        W67265  13.268  18.879  18.240
63305W        W67266  14.402  21.211  19.960
63306W        W67267  14.441  18.405  20.710
63307W        W67268  12.886  19.617  21.264
63308W        W67269  12.979  20.956  18.967
63309W        W67270  13.379  20.250  21.707
63310W        W67271  13.053  18.227  20.016
63311W        W67272  11.665  19.130  20.079
63312W        W67273  11.219  20.330  20.853
63313W        W67274  13.078  21.523  19.559
63314W        W67275  14.272  19.120  20.431
63315W        W67276  12.909  21.467  21.198
63316W        W67277  14.252  20.526  18.403
63317W        W67278  12.687  20.009  19.464
63318W        W67279  14.539  18.520  21.205
63319W        W67280  12.688  20.355  20.799
63320W        W67281  12.905  19.241  20.244
63321W        W67282  13.757  19.539  19.082
63322W        W67283  14.044  19.272  18.724
63323W        W67284  13.853  21.312  19.113
63324W        W67285  13.687  20.915  19.909
63325W        W67286  13.583  19.994  18.887
63326W        W67287  13.016  20.204  19.873
63327W        W67288  13.897  19.992  19.940
63328W        W67289  11.272  19.007  20.364
63329W        W67290  14.050  20.059  21.191
63330W        W67291  14.401  21.677  20.337
63331W        W67292  12.331  21.121  19.739
63332W        W67293  13.338  21.654  21.063
63333W        W67294  13.332  18.984  20.827
63334W        W67295  12.539  21.692  20.888
63335W        W67296  14.236  18.646  19.354
63336W        W67297  14.027  19.965  20.655
63337W        W67298  11.010  19.286  20.693
63338W        W67299  13.870  19.081  19.711
63339W        W67300  13.166  20.931  19.706
63340W        W67301  12.422  21.522  19.319
63341W        W67302  11.537  18.702  18.577
63342W        W67303  12.641  18.356  20.387
63343W        W67304  11.669  21.476  18.235
63344W        W67305  12.043  19.942  18.986
63345W        W67306  12.697  20.571  21.299
63346W        W67307  12.527  18.929  19.289
63347W        W67308  13.883  18.526  19.717
63348W        W67309  13.603  21.808  20.045
63349W        W67310  13.015  21.456  20.385
63350W        W67311  12.411  20.493  20.346
63351W        W67312  14.181  21.216  20.472
63352W        W67313  11.875  18.719  19.241
63353W        W67314  12.397  21.016  20.201
63354W        W67315  11.880  18.947  18.266
63355W        W67316  12.681  19.556  20.660
63356W        W67317  13.529  18.422  20.530
63357W        W67318  10.949  20.265  20.415
63358W        W67319  12.653  20.083  18.573
63359W        W67320  11.921  18.398  18.343
63360W        W67321  12.659  19.479  19.394
63361W        W67322  13.629  18.455  21.093
63362W        W67323  12.217  20.467  21.202
63363W        W67324  13.021  20.249  21.419
63364W        W67325  13.638  20.279  21.312
63365W        W67326  12.922  18.419  21.817
63366W        W67327  12.144  19.035  20.210
63367W        W67328  11.570  18.991  19.608
63368W        W67329  11.356  21.703  19.284
63369W        W67330  12.688  21.033  21.409
63370W        W67331  11.723  20.518  18.768
63371W        W67332  13.403  19.903  19.989
63372W        W67333  13.683  19.702  20.388
63373W        W67334  12.888  20.376  20.322
63374W        W67335  13.358  20.750  18.454
63375W        W67336  13.030  18.771  19.782
63376W        W67337  14.509  19.049  19.050
63377W        W67338  11.003  21.638  21.081
63378W        W67339  11.420  20.864  20.613
63379W        W67340  10.987  21.710  18.845
63380W        W67341  12.886  18.980  20.651
63381W        W67342  12.249  21.003  18.500
63382W        W67343  14.154  21.385  18.686
63383W        W67344  13.129  20.038  18.700
63384W        W67345  11.972  19.229  19.217
63385W        W67346  12.804  19.139  18.269
63386W        W67347  13.388  20.704  21.447
63387W        W67348  13.741  18.610  19.064
63388W        W67349  11.071  18.458  18.512
63389W        W67350  12.357  20.777  20.802
63390W        W67351  12.156  20.693  19.894
63391W        W67352  11.898  20.645  18.292
63392W        W67353  11.139  20.886  19.060
63393W        W67354  11.643  19.956  21.502
63394W        W67355  12.347  18.516  21.688
63395W        W67356  13.056  18.658  21.044
63396W        W67357  12.251  18.426  19.325
63397W        W67358  13.310  18.503  18.830
63398W        W67359  11.255  18.435  20.407
63399W        W67360  11.303  19.398  19.777
63400W        W67361  13.992  18.506  20.183
63401W        W67362  11.414  19.004  18.997
63402W        W67363  13.985  18.692  20.613
63403W        W67364  14.381  19.895  18.298
63404W        W67365  11.673  18.653  20.117
63405W        W67366  12.787  19.225  21.057
63406W        W67367  10.935  18.915  18.535
63407W        W67368  11.721  20.304  21.096
63408W        W67369  13.079  19.702  20.275
63409W        W67370  12.946  21.781  18.571
63410W        W67371  11.092  20.288  18.268
63411W        W67372  11.827  20.699  21.394
63412W        W67373  11.348  19.866  21.025
63413W        W67374  12.339  19.971  20.819
63414W        W67375  14.107  18.330  21.081
63415W        W67376  14.505  19.940  21.072
63416W        W67377  14.493  20.140  18.758
63417W        W67378  13.356  20.472  18.857
63418W        W67379  13.830  21.772  18.552
63419W        W67380  13.007  19.762  21.694
63420W        W67381  11.337  20.729  21.734
63421W        W67382  14.543  18.651  21.686
63422W        W67383  14.261  19.579  20.307
63423W        W67384  12.569  21.709  21.784
63424W        W67385  12.424  18.338  18.511
63425W        W67386  13.963  20.937  18.454
63426W        W67387  11.732  19.030  21.340
63427W        W67388  12.166  21.024  21.202
63428W        W67389  14.292  19.015  21.000
63429W        W67390  13.503  21.674  18.968
63430W        W67391  13.742  20.293  20.335
63431W        W67392  11.992  18.709  21.002
63432W        W67393  12.461  19.778  21.759
63433W        W67394  11.964  20.957  18.953
63434W        W67395  13.719  20.455  19.217
63435W        W67396  11.487  19.081  20.941
63436W        W67397  12.816  21.143  19.405
63437W        W67398  14.566  19.703  19.586
63438W        W67399  12.788  18.336  21.305
63439W        W67400  13.568  21.041  20.384
63440W        W67401  13.871  21.385  20.092
63441W        W67402  13.090  21.187  18.520
63442W        W67403  11.100  21.079  21.362
63443W        W67404  11.843  19.071  20.600
63444W        W67405  11.813  18.419  19.710
63445W        W67406  13.434  19.261  20.402
63446W        W67407  12.232  20.432  18.602
63447W        W67408  14.230  20.374  20.101
63448W        W67409  11.557  21.132  21.524
63449W        W67410  13.944  21.814  19.321
63450W        W67411  12.043  18.834  19.766
63451W        W67412  11.812  20.327  19.856
63452W        W67413  12.125  21.738  20.606
63453W        W67414  14.192  21.834  21.638
63454W        W67415  13.351  20.022  20.571
63455W        W67416  11.200  19.820  18.486
63456W        W67417  14.334  21.478  19.183
63457W        W67418  14.171  18.802  18.802
63458W        W67419  12.310  18.321  21.205
63459W        W67420  14.016  21.123  19.663
63460W        W67421  14.045  19.679  19.568
63461W        W67422  12.162  19.352  19.784
63462W        W67423  12.407  19.614  21.108
63463W        W67424  13.518  20.767  20.971
63464W        W67425  12.168  19.221  21.083
63465W        W67426  12.147  21.687  19.699
63466W        W67427  11.464  21.646  21.333
63467W        W67428  11.576  21.007  18.463
63468W        W67429  14.093  20.765  19.273
63469W        W67430  11.697  19.557  21.159
63470W        W67431  14.470  19.487  18.640
63471W        W67432  12.215  20.544  19.111
63472W        W67433  13.314  19.926  21.192
63473W        W67434  13.205  19.554  20.736
63474W        W67435  11.765  19.926  20.765
63475W        W67436  13.975  21.814  20.594
63476W        W67437  13.766  18.448  21.588
63477W        W67438  11.430  18.598  21.175
63478W        W67439  11.769  19.621  20.228
63479W        W67440  12.138  19.435  18.350
63480W        W67441  10.941  21.194  20.895
63481W        W67442  12.526  19.903  20.338
63482W        W67443  12.349  18.928  18.443
63483W        W67444  11.484  19.744  19.224
63484W        W67445  11.255  21.596  20.661
63485W        W67446  14.050  19.822  18.769
63486W        W67447  14.145  18.738  21.455
63487W        W67448  13.581  20.947  19.418
63488W        W67449  11.179  19.871  21.595
63489W        W67450  14.145  18.335  18.891
63490W        W67451  13.665  20.810  18.902
63491W        W67452  12.567  19.868  18.987
63492W        W67453  13.754  18.672  18.510
63493W        W67454  13.819  19.279  20.696
63494W        W67455  11.528  19.872  19.903
63495W        W67456  11.822  20.811  19.552
63496W        W67457  13.585  19.431  19.517
63497W        W67458  12.608  18.810  20.213
63498W        W67459  14.570  20.721  20.724
63499W        W67460  14.488  18.708  20.285
63500W        W67461  11.027  21.538  19.661
63501W        W67462  11.536  20.725  19.197
63502W        W67463  11.451  18.342  21.750
63503W        W67464  12.570  21.195  21.852
63504W        W67465  14.325  20.163  19.642
63505W        W67466  13.679  20.340  18.522
63506W        W67467  12.974  21.861  20.734
63507W        W67468  13.831  20.583  21.771
63508W        W67469  12.646  18.293  19.051
63509W        W67470  13.359  19.162  19.910
63510W        W67471  11.045  20.749  20.242
63511W        W67472  12.298  18.711  18.883
63512W        W67473  12.102  20.195  21.732
63513W        W67474  13.096  19.176  19.446
63514W        W67475  13.301  20.586  20.568
63515W        W67476  11.455  21.191  21.003
63516W        W67477  12.046  21.174  21.726
63517W        W67478  11.897  18.971  18.740
63518W        W67479  13.414  19.113  19.065
63519W        W67480  13.372  21.221  21.302
63520W        W67481  12.057  19.813  19.901
63521W        W67482  11.712  21.511  20.766
63522W        W67483  14.457  21.628  18.367
63523W        W67484  11.320  20.300  21.363
63524W        W67485  13.315  20.562  20.051
63525W        W67486  11.751  20.211  19.293
63526W        W67487  12.122  21.218  20.688
63527W        W67488  12.500  18.637  19.729
63528W        W67489  11.111  20.621  18.659
63529W        W67490  12.630  19.572  18.529
63530W        W67491  11.276  20.121  19.548
63531W        W67492  12.566  18.763  21.012
63532W        W67493  14.238  18.472  18.439
63533W        W67494  14.331  20.218  21.538
63534W        W67495  12.985  21.475  21.690
63535W        W67496  14.543  20.569  21.212
63536W        W67497  13.951  21.367  21.823
63537W        W67498  11.690  21.823  20.301
63538W        W67499  14.549  20.445  19.175
63539W        W67500  13.079  19.712  19.688
63540W        W67501  12.846  18.324  19.578
63541W        W67502  11.905  21.308  19.415
63542W        W67503  12.404  19.049  20.640
63543W        W67504  12.104  18.418  20.109
63544W        W67505  11.167  21.240  18.657
63545W        W67506  12.983  20.604  19.375
63546W        W67507  11.858  21.399  21.254
63547W        W67508  11.335  20.222  18.950
63548W        W67509  11.220  18.765  19.949
63549W        W67510  12.768  20.730  20.006
63550W        W67511  11.020  18.584  19.026
63551W        W67512  13.684  19.790  20.953
63552W        W67513  13.561  19.176  18.525
63553W        W67514  14.078  20.848  20.173
63554W        W67515  12.739  21.332  20.004
63555W        W67516  12.151  21.436  18.915
63556W        W67517  13.433  18.339  18.345
63557W        W67518  11.233  21.599  20.086
63558W        W67519  13.430  19.357  21.721
63559W        W67520  11.413  18.887  21.720
63560W        W67521  11.144  19.487  19.053
63561W        W67522  11.835  19.476  18.778
63562W        W67523  13.598  19.803  21.595
63563W        W67524  11.941  20.084  20.304
63564W        W67525  13.415  18.370  19.424
63565W        W67526  12.546  21.801  19.927
63566W        W67527  13.760  21.263  20.864
63567W        W67528  13.344  21.412  19.975
63568W        W67529  13.363  20.392  19.569
63569W        W67530  12.825  18.617  18.640
63570W        W67531  14.506  18.245  19.362
63571W        W67532  12.194  19.880  18.525
63572W        W67533  14.360  19.217  19.515
63573W        W67534  13.052  20.387  18.392
63574W        W67535  13.988  20.587  21.140
63575W        W67536  13.642  21.288  18.607
63576W        W67537  12.257  18.963  21.513
63577W        W67538  12.077  19.547  20.754
63578W        W67539  14.169  21.042  21.031
63579W        W67540  13.269  18.992  21.408
63580W        W67541  11.113  19.463  21.185
63581W        W67542  12.873  19.940  20.911
63582W        W67543  11.230  20.698  19.568
63583W        W67544  11.377  19.995  20.458
63584W        W67545  13.694  20.281  20.808
63585W        W67546  13.466  21.661  21.619
63586W        W67547  13.362  19.400  21.172
63587W        W67548  13.639  21.454  19.577
63588W        W67549  12.641  21.174  20.900
63589W        W67550  12.126  21.529  20.169
63590W        W67551  13.931  20.700  20.588
63591W        W67552  12.981  20.772  21.725
63592W        W67553  11.586  20.725  20.064
63593W        W67554  13.932  20.484  19.709
63594W        W67555  13.573  21.550  20.460
63595W        W67556  11.551  21.279  20.330
63596W        W67557  12.572  19.331  21.540
63597W        W67558  13.023  21.497  19.051
63598W        W67559  12.331  20.752  21.689
63599W        W67560  12.457  20.990  19.066
63600W        W67561  11.678  19.730  18.325
63601W        W67562  14.098  20.439  22.518
63602W        W67563  12.146  21.515  22.071
63603W        W67564  12.229  19.667  23.054
63604W        W67565  11.744  19.515  23.218
63605W        W67566  12.735  20.330  22.652
63606W        W67567  13.164  19.522  22.229
63607W        W67568  12.721  20.757  22.198
63608W        W67569  11.417  18.596  23.033
63609W        W67570  14.105  18.990  21.984
63610W        W67571  14.311  20.964  22.481
63611W        W67572  11.440  21.750  22.235
63612W        W67573  11.833  21.796  22.911
63613W        W67574  13.658  19.990  23.071
63614W        W67575  13.624  19.678  22.098
63615W        W67576  14.109  20.030  22.853
63616W        W67577  13.011  18.688  22.869
63617W        W67578  11.668  21.382  22.552
63618W        W67579  12.624  21.455  22.410
63619W        W67580  14.016  19.481  21.874
63620W        W67581  11.673  20.210  21.995
63621W        W67582  11.328  19.243  22.174
63622W        W67583  11.390  21.199  22.968
63623W        W67584  12.521  20.682  23.216
63624W        W67585  12.779  19.183  22.614
63625W        W67586  10.945  19.933  22.808
63626W        W67587  13.260  19.612  22.759
63627W        W67588  13.126  18.996  22.320
63628W        W67589  13.525  18.876  23.101
63629W        W67590  12.316  19.303  22.477
63630W        W67591  13.937  19.071  22.822
63631W        W67592  14.304  19.553  22.767
63632W        W67593  11.973  18.306  22.473
63633W        W67594  14.444  21.089  21.953
63634W        W67595  13.268  18.879  21.885
63635W        W67596  12.979  20.956  22.612
63636W        W67597  13.078  21.523  23.204
63637W        W67598  14.252  20.526  22.048
63638W        W67599  13.757  19.539  22.727
63639W        W67600  14.044  19.272  22.369
63640W        W67601  13.853  21.312  22.758
63641W        W67602  13.583  19.994  22.532
63642W        W67603  14.236  18.646  22.999
63643W        W67604  12.422  21.522  22.964
63644W        W67605  11.537  18.702  22.222
63645W        W67606  11.669  21.476  21.880
63646W        W67607  12.043  19.942  22.631
63647W        W67608  12.527  18.929  22.934
63648W        W67609  11.875  18.719  22.886
63649W        W67610  11.880  18.947  21.911
63650W        W67611  12.653  20.083  22.218
63651W        W67612  11.921  18.398  21.988
63652W        W67613  12.659  19.479  23.039
63653W        W67614  11.570  18.991  23.253
63654W        W67615  11.356  21.703  22.929
63655W        W67616  11.723  20.518  22.413
63656W        W67617  13.358  20.750  22.099
63657W        W67618  14.509  19.049  22.695
63658W        W67619  10.987  21.710  22.490
63659W        W67620  12.249  21.003  22.145
63660W        W67621  14.154  21.385  22.331
63661W        W67622  11.972  19.229  22.862
63662W        W67623  12.804  19.139  21.914
63663W        W67624  13.741  18.610  22.709
63664W        W67625  11.071  18.458  22.157
63665W        W67626  11.898  20.645  21.937
63666W        W67627  11.139  20.886  22.705
63667W        W67628  12.251  18.426  22.970
63668W        W67629  13.310  18.503  22.475
63669W        W67630  11.414  19.004  22.642
63670W        W67631  14.381  19.895  21.943
63671W        W67632  10.935  18.915  22.180
63672W        W67633  12.946  21.781  22.216
63673W        W67634  11.092  20.288  21.913
63674W        W67635  14.493  20.140  22.403
63675W        W67636  13.356  20.472  22.502
63676W        W67637  13.830  21.772  22.197
63677W        W67638  12.424  18.338  22.156
63678W        W67639  13.963  20.937  22.099
63679W        W67640  13.503  21.674  22.613
63680W        W67641  11.964  20.957  22.598
63681W        W67642  13.719  20.455  22.862
63682W        W67643  12.816  21.143  23.050
63683W        W67644  14.566  19.703  23.231
63684W        W67645  13.090  21.187  22.165
63685W        W67646  12.232  20.432  22.247
63686W        W67647  13.944  21.814  22.966
63687W        W67648  11.200  19.820  22.131
63688W        W67649  14.334  21.478  22.828
63689W        W67650  14.171  18.802  22.447
63690W        W67651  14.045  19.679  23.213
63691W        W67652  11.576  21.007  22.108
63692W        W67653  14.093  20.765  22.918
63693W        W67654  14.470  19.487  22.285
63694W        W67655  12.215  20.544  22.756
63695W        W67656  12.138  19.435  21.995
63696W        W67657  12.349  18.928  22.088
63697W        W67658  11.484  19.744  22.869
63698W        W67659  14.050  19.822  22.414
63699W        W67660  13.581  20.947  23.063
63700W        W67661  14.145  18.335  22.536
63701W        W67662  13.665  20.810  22.547
63702W        W67663  12.567  19.868  22.632
63703W        W67664  13.754  18.672  22.155
63704W        W67665  11.822  20.811  23.197
63705W        W67666  13.585  19.431  23.162
63706W        W67667  11.027  21.538  23.306
63707W        W67668  11.536  20.725  22.842
63708W        W67669  14.325  20.163  23.287
63709W        W67670  13.679  20.340  22.167
63710W        W67671  12.646  18.293  22.696
63711W        W67672  12.298  18.711  22.528
63712W        W67673  13.096  19.176  23.091
63713W        W67674  11.897  18.971  22.385
63714W        W67675  13.414  19.113  22.710
63715W        W67676  14.457  21.628  22.012
63716W        W67677  11.111  20.621  22.304
63717W        W67678  12.630  19.572  22.174
63718W        W67679  11.276  20.121  23.193
63719W        W67680  14.238  18.472  22.084
63720W        W67681  14.549  20.445  22.820
63721W        W67682  12.846  18.324  23.223
63722W        W67683  11.905  21.308  23.060
63723W        W67684  11.167  21.240  22.302
63724W        W67685  12.983  20.604  23.020
63725W        W67686  11.335  20.222  22.595
63726W        W67687  11.020  18.584  22.671
63727W        W67688  13.561  19.176  22.170
63728W        W67689  12.151  21.436  22.560
63729W        W67690  13.433  18.339  21.990
63730W        W67691  11.144  19.487  22.698
63731W        W67692  11.835  19.476  22.423
63732W        W67693  12.825  18.617  22.285
63733W        W67694  14.506  18.245  23.007
63734W        W67695  12.194  19.880  22.170
63735W        W67696  14.360  19.217  23.160
63736W        W67697  13.052  20.387  22.037
63737W        W67698  13.642  21.288  22.252
63738W        W67699  11.230  20.698  23.213
63739W        W67700  13.639  21.454  23.222
63740W        W67701  13.023  21.497  22.696
63741W        W67702  12.457  20.990  22.711
63742W        W67703  11.678  19.730  21.970
63743W        W67704  11.059  22.628   3.104
63744W        W67705  11.821  21.908   2.906
63745W        W67706  13.515  22.296   1.793
63746W        W67707  13.164  23.167   0.363
63747W        W67708  13.734  22.601   3.454
63748W        W67709  11.100  22.393   2.579
63749W        W67710  12.046  23.076   3.262
63750W        W67711  14.505  22.935   1.761
63751W        W67712  12.246  23.140   2.069
63752W        W67713  11.004  23.124   3.570
63753W        W67714  11.417  22.241   1.167
63754W        W67715  13.820  22.682   2.023
63755W        W67716  14.105  22.635   0.118
63756W        W67717  11.630  22.195   2.471
63757W        W67718  14.253  23.213   2.746
63758W        W67719  12.638  22.797   1.571
63759W        W67720  13.011  22.333   1.003
63760W        W67721  11.039  22.526   1.285
63761W        W67722  13.825  23.133   1.759
63762W        W67723  14.016  23.126   0.008
63763W        W67724  12.225  22.221   2.364
63764W        W67725  14.454  21.983   1.661
63765W        W67726  11.328  22.888   0.308
63766W        W67727  12.779  22.828   0.748
63767W        W67728  13.839  23.079   3.118
63768W        W67729  13.260  23.257   0.893
63769W        W67730  11.480  23.167   2.471
63770W        W67731  11.355  21.960   1.552
63771W        W67732  13.123  22.307   2.113
63772W        W67733  12.771  22.492   3.276
63773W        W67734  13.126  22.641   0.454
63774W        W67735  13.276  22.115   3.247
63775W        W67736  13.725  22.583   2.965
63776W        W67737  13.525  22.521   1.235
63777W        W67738  12.316  22.948   0.611
63778W        W67739  11.885  22.232   3.275
63779W        W67740  13.937  22.716   0.956
63780W        W67741  14.304  23.198   0.901
63781W        W67742  11.973  21.951   0.607
63782W        W67743  14.294  22.485   1.642
63783W        W67744  13.268  22.524   0.019
63784W        W67745  14.441  22.050   2.489
63785W        W67746  13.053  21.872   1.795
63786W        W67747  11.665  22.775   1.858
63787W        W67748  14.272  22.765   2.210
63788W        W67749  14.539  22.165   2.984
63789W        W67750  12.905  22.886   2.023
63790W        W67751  14.044  22.917   0.503
63791W        W67752  11.272  22.652   2.143
63792W        W67753  13.332  22.629   2.606
63793W        W67754  14.236  22.291   1.133
63794W        W67755  11.010  22.931   2.472
63795W        W67756  13.870  22.726   1.490
63796W        W67757  14.281  22.877   3.267
63797W        W67758  11.537  22.347   0.356
63798W        W67759  12.641  22.001   2.166
63799W        W67760  12.527  22.574   1.068
63800W        W67761  13.883  22.171   1.496
63801W        W67762  11.875  22.364   1.020
63802W        W67763  11.880  22.592   0.045
63803W        W67764  12.681  23.201   2.439
63804W        W67765  13.529  22.067   2.309
63805W        W67766  11.921  22.043   0.122
63806W        W67767  12.659  23.124   1.173
63807W        W67768  13.629  22.100   2.872
63808W        W67769  12.922  22.064   3.596
63809W        W67770  12.144  22.680   1.989
63810W        W67771  11.570  22.636   1.387
63811W        W67772  13.030  22.416   1.561
63812W        W67773  14.509  22.694   0.829
63813W        W67774  12.886  22.625   2.430
63814W        W67775  11.972  22.874   0.996
63815W        W67776  12.804  22.784   0.048
63816W        W67777  13.741  22.255   0.843
63817W        W67778  11.071  22.103   0.291
63818W        W67779  12.347  22.161   3.467
63819W        W67780  13.056  22.303   2.823
63820W        W67781  12.251  22.071   1.104
63821W        W67782  13.310  22.148   0.609
63822W        W67783  11.255  22.080   2.186
63823W        W67784  13.992  22.151   1.962
63824W        W67785  11.414  22.649   0.776
63825W        W67786  13.985  22.337   2.392
63826W        W67787  11.673  22.298   1.896
63827W        W67788  12.787  22.870   2.836
63828W        W67789  10.935  22.560   0.314
63829W        W67790  14.107  21.975   2.860
63830W        W67791  14.543  22.296   3.465
63831W        W67792  14.261  23.224   2.086
63832W        W67793  12.424  21.983   0.290
63833W        W67794  11.732  22.675   3.119
63834W        W67795  14.292  22.660   2.779
63835W        W67796  11.992  22.354   2.781
63836W        W67797  11.487  22.726   2.720
63837W        W67798  12.788  21.981   3.084
63838W        W67799  11.843  22.716   2.379
63839W        W67800  11.813  22.064   1.489
63840W        W67801  13.434  22.906   2.181
63841W        W67802  12.043  22.479   1.545
63842W        W67803  14.171  22.447   0.581
63843W        W67804  12.310  21.966   2.984
63844W        W67805  12.162  22.997   1.563
63845W        W67806  12.168  22.866   2.862
63846W        W67807  14.470  23.132   0.419
63847W        W67808  13.205  23.199   2.515
63848W        W67809  13.766  22.093   3.367
63849W        W67810  11.430  22.243   2.954
63850W        W67811  11.769  23.266   2.007
63851W        W67812  12.138  23.080   0.129
63852W        W67813  12.349  22.573   0.222
63853W        W67814  14.145  22.383   3.234
63854W        W67815  14.145  21.980   0.670
63855W        W67816  13.754  22.317   0.289
63856W        W67817  13.819  22.924   2.475
63857W        W67818  12.608  22.455   1.992
63858W        W67819  14.488  22.353   2.064
63859W        W67820  11.451  21.987   3.529
63860W        W67821  12.646  21.938   0.830
63861W        W67822  13.359  22.807   1.689
63862W        W67823  12.298  22.356   0.662
63863W        W67824  13.096  22.821   1.225
63864W        W67825  11.897  22.616   0.519
63865W        W67826  13.414  22.758   0.844
63866W        W67827  12.500  22.282   1.508
63867W        W67828  12.630  23.217   0.308
63868W        W67829  12.566  22.408   2.791
63869W        W67830  14.238  22.117   0.218
63870W        W67831  12.846  21.969   1.357
63871W        W67832  12.404  22.694   2.419
63872W        W67833  12.104  22.063   1.888
63873W        W67834  11.220  22.410   1.728
63874W        W67835  11.020  22.229   0.805
63875W        W67836  13.561  22.821   0.304
63876W        W67837  13.433  21.984   0.124
63877W        W67838  13.430  23.002   3.500
63878W        W67839  11.413  22.532   3.499
63879W        W67840  11.144  23.132   0.832
63880W        W67841  13.415  22.015   1.203
63881W        W67842  12.825  22.262   0.419
63882W        W67843  14.506  21.890   1.141
63883W        W67844  14.360  22.862   1.294
63884W        W67845  12.257  22.608   3.292
63885W        W67846  12.077  23.192   2.533
63886W        W67847  13.269  22.637   3.187
63887W        W67848  11.113  23.108   2.964
63888W        W67849  13.362  23.045   2.951
63889W        W67850  12.572  22.976   3.319
63890W        W67851  11.059  22.628   6.748
63891W        W67852  11.821  21.908   6.550
63892W        W67853  13.515  22.296   5.437
63893W        W67854  13.164  23.167   4.007
63894W        W67855  13.734  22.601   7.098
63895W        W67856  11.100  22.393   6.223
63896W        W67857  12.046  23.076   6.906
63897W        W67858  14.505  22.935   5.405
63898W        W67859  12.246  23.140   5.713
63899W        W67860  11.004  23.124   7.214
63900W        W67861  11.417  22.241   4.811
63901W        W67862  13.820  22.682   5.667
63902W        W67863  14.105  22.635   3.762
63903W        W67864  11.630  22.195   6.115
63904W        W67865  14.253  23.213   6.390
63905W        W67866  12.638  22.797   5.215
63906W        W67867  13.011  22.333   4.647
63907W        W67868  11.039  22.526   4.929
63908W        W67869  13.825  23.133   5.403
63909W        W67870  14.016  23.126   3.652
63910W        W67871  12.225  22.221   6.008
63911W        W67872  14.454  21.983   5.305
63912W        W67873  11.328  22.888   3.952
63913W        W67874  12.779  22.828   4.392
63914W        W67875  13.839  23.079   6.762
63915W        W67876  13.260  23.257   4.537
63916W        W67877  11.480  23.167   6.115
63917W        W67878  11.355  21.960   5.196
63918W        W67879  13.123  22.307   5.757
63919W        W67880  12.771  22.492   6.920
63920W        W67881  13.126  22.641   4.098
63921W        W67882  13.276  22.115   6.891
63922W        W67883  13.725  22.583   6.609
63923W        W67884  13.525  22.521   4.879
63924W        W67885  12.316  22.948   4.255
63925W        W67886  11.885  22.232   6.919
63926W        W67887  13.937  22.716   4.600
63927W        W67888  14.304  23.198   4.545
63928W        W67889  11.973  21.951   4.251
63929W        W67890  14.294  22.485   5.286
63930W        W67891  13.268  22.524   3.663
63931W        W67892  14.441  22.050   6.133
63932W        W67893  13.053  21.872   5.439
63933W        W67894  11.665  22.775   5.502
63934W        W67895  14.272  22.765   5.854
63935W        W67896  14.539  22.165   6.628
63936W        W67897  12.905  22.886   5.667
63937W        W67898  14.044  22.917   4.147
63938W        W67899  11.272  22.652   5.787
63939W        W67900  13.332  22.629   6.250
63940W        W67901  14.236  22.291   4.777
63941W        W67902  11.010  22.931   6.116
63942W        W67903  13.870  22.726   5.134
63943W        W67904  14.281  22.877   6.911
63944W        W67905  11.537  22.347   4.000
63945W        W67906  12.641  22.001   5.810
63946W        W67907  12.527  22.574   4.712
63947W        W67908  13.883  22.171   5.140
63948W        W67909  11.875  22.364   4.664
63949W        W67910  11.880  22.592   3.689
63950W        W67911  12.681  23.201   6.083
63951W        W67912  13.529  22.067   5.953
63952W        W67913  11.921  22.043   3.766
63953W        W67914  12.659  23.124   4.817
63954W        W67915  13.629  22.100   6.516
63955W        W67916  12.922  22.064   7.240
63956W        W67917  12.144  22.680   5.633
63957W        W67918  11.570  22.636   5.031
63958W        W67919  13.030  22.416   5.205
63959W        W67920  14.509  22.694   4.473
63960W        W67921  12.886  22.625   6.074
63961W        W67922  11.972  22.874   4.640
63962W        W67923  12.804  22.784   3.692
63963W        W67924  13.741  22.255   4.487
63964W        W67925  11.071  22.103   3.935
63965W        W67926  12.347  22.161   7.111
63966W        W67927  13.056  22.303   6.467
63967W        W67928  12.251  22.071   4.748
63968W        W67929  13.310  22.148   4.253
63969W        W67930  11.255  22.080   5.830
63970W        W67931  13.992  22.151   5.606
63971W        W67932  11.414  22.649   4.420
63972W        W67933  13.985  22.337   6.036
63973W        W67934  11.673  22.298   5.540
63974W        W67935  12.787  22.870   6.480
63975W        W67936  10.935  22.560   3.958
63976W        W67937  14.107  21.975   6.504
63977W        W67938  14.543  22.296   7.109
63978W        W67939  14.261  23.224   5.730
63979W        W67940  12.424  21.983   3.934
63980W        W67941  11.732  22.675   6.763
63981W        W67942  14.292  22.660   6.423
63982W        W67943  11.992  22.354   6.425
63983W        W67944  11.487  22.726   6.364
63984W        W67945  12.788  21.981   6.728
63985W        W67946  11.843  22.716   6.023
63986W        W67947  11.813  22.064   5.133
63987W        W67948  13.434  22.906   5.825
63988W        W67949  12.043  22.479   5.189
63989W        W67950  14.171  22.447   4.225
63990W        W67951  12.310  21.966   6.628
63991W        W67952  12.162  22.997   5.207
63992W        W67953  12.168  22.866   6.506
63993W        W67954  14.470  23.132   4.063
63994W        W67955  13.205  23.199   6.159
63995W        W67956  13.766  22.093   7.011
63996W        W67957  11.430  22.243   6.598
63997W        W67958  11.769  23.266   5.651
63998W        W67959  12.138  23.080   3.773
63999W        W67960  12.349  22.573   3.866
64000W        W67961  14.145  22.383   6.878
64001W        W67962  14.145  21.980   4.314
64002W        W67963  13.754  22.317   3.933
64003W        W67964  13.819  22.924   6.119
64004W        W67965  12.608  22.455   5.636
64005W        W67966  14.488  22.353   5.708
64006W        W67967  11.451  21.987   7.173
64007W        W67968  12.646  21.938   4.474
64008W        W67969  13.359  22.807   5.333
64009W        W67970  12.298  22.356   4.306
64010W        W67971  13.096  22.821   4.869
64011W        W67972  11.897  22.616   4.163
64012W        W67973  13.414  22.758   4.488
64013W        W67974  12.500  22.282   5.152
64014W        W67975  12.630  23.217   3.952
64015W        W67976  12.566  22.408   6.435
64016W        W67977  14.238  22.117   3.862
64017W        W67978  12.846  21.969   5.001
64018W        W67979  12.404  22.694   6.063
64019W        W67980  12.104  22.063   5.532
64020W        W67981  11.220  22.410   5.372
64021W        W67982  11.020  22.229   4.449
64022W        W67983  13.561  22.821   3.948
64023W        W67984  13.433  21.984   3.768
64024W        W67985  13.430  23.002   7.144
64025W        W67986  11.413  22.532   7.143
64026W        W67987  11.144  23.132   4.476
64027W        W67988  13.415  22.015   4.847
64028W        W67989  12.825  22.262   4.063
64029W        W67990  14.506  21.890   4.785
64030W        W67991  14.360  22.862   4.938
64031W        W67992  12.257  22.608   6.936
64032W        W67993  12.077  23.192   6.177
64033W        W67994  13.269  22.637   6.831
64034W        W67995  11.113  23.108   6.608
64035W        W67996  13.362  23.045   6.595
64036W        W67997  12.572  22.976   6.963
64037W        W67998  11.059  22.628  10.393
64038W        W67999  11.821  21.908  10.195
64039W        W68000  13.515  22.296   9.082
64040W        W68001  13.164  23.167   7.652
64041W        W68002  13.734  22.601  10.743
64042W        W68003  11.100  22.393   9.868
64043W        W68004  12.046  23.076  10.551
64044W        W68005  14.505  22.935   9.050
64045W        W68006  12.246  23.140   9.358
64046W        W68007  11.004  23.124  10.859
64047W        W68008  11.417  22.241   8.456
64048W        W68009  13.820  22.682   9.312
64049W        W68010  14.105  22.635   7.407
64050W        W68011  11.630  22.195   9.760
64051W        W68012  14.253  23.213  10.035
64052W        W68013  12.638  22.797   8.860
64053W        W68014  13.011  22.333   8.292
64054W        W68015  11.039  22.526   8.574
64055W        W68016  13.825  23.133   9.048
64056W        W68017  14.016  23.126   7.297
64057W        W68018  12.225  22.221   9.653
64058W        W68019  14.454  21.983   8.950
64059W        W68020  11.328  22.888   7.597
64060W        W68021  12.779  22.828   8.037
64061W        W68022  13.839  23.079  10.407
64062W        W68023  13.260  23.257   8.182
64063W        W68024  11.480  23.167   9.760
64064W        W68025  11.355  21.960   8.841
64065W        W68026  13.123  22.307   9.402
64066W        W68027  12.771  22.492  10.565
64067W        W68028  13.126  22.641   7.743
64068W        W68029  13.276  22.115  10.536
64069W        W68030  13.725  22.583  10.254
64070W        W68031  13.525  22.521   8.524
64071W        W68032  12.316  22.948   7.900
64072W        W68033  11.885  22.232  10.564
64073W        W68034  13.937  22.716   8.245
64074W        W68035  14.304  23.198   8.190
64075W        W68036  11.973  21.951   7.896
64076W        W68037  14.294  22.485   8.931
64077W        W68038  13.268  22.524   7.308
64078W        W68039  14.441  22.050   9.778
64079W        W68040  13.053  21.872   9.084
64080W        W68041  11.665  22.775   9.147
64081W        W68042  14.272  22.765   9.499
64082W        W68043  14.539  22.165  10.273
64083W        W68044  12.905  22.886   9.312
64084W        W68045  14.044  22.917   7.792
64085W        W68046  11.272  22.652   9.432
64086W        W68047  13.332  22.629   9.895
64087W        W68048  14.236  22.291   8.422
64088W        W68049  11.010  22.931   9.761
64089W        W68050  13.870  22.726   8.779
64090W        W68051  14.281  22.877  10.556
64091W        W68052  11.537  22.347   7.645
64092W        W68053  12.641  22.001   9.455
64093W        W68054  12.527  22.574   8.357
64094W        W68055  13.883  22.171   8.785
64095W        W68056  11.875  22.364   8.309
64096W        W68057  11.880  22.592   7.334
64097W        W68058  12.681  23.201   9.728
64098W        W68059  13.529  22.067   9.598
64099W        W68060  11.921  22.043   7.411
64100W        W68061  12.659  23.124   8.462
64101W        W68062  13.629  22.100  10.161
64102W        W68063  12.922  22.064  10.885
64103W        W68064  12.144  22.680   9.278
64104W        W68065  11.570  22.636   8.676
64105W        W68066  13.030  22.416   8.850
64106W        W68067  14.509  22.694   8.118
64107W        W68068  12.886  22.625   9.719
64108W        W68069  11.972  22.874   8.285
64109W        W68070  12.804  22.784   7.337
64110W        W68071  13.741  22.255   8.132
64111W        W68072  11.071  22.103   7.580
64112W        W68073  12.347  22.161  10.756
64113W        W68074  13.056  22.303  10.112
64114W        W68075  12.251  22.071   8.393
64115W        W68076  13.310  22.148   7.898
64116W        W68077  11.255  22.080   9.475
64117W        W68078  13.992  22.151   9.251
64118W        W68079  11.414  22.649   8.065
64119W        W68080  13.985  22.337   9.681
64120W        W68081  11.673  22.298   9.185
64121W        W68082  12.787  22.870  10.125
64122W        W68083  10.935  22.560   7.603
64123W        W68084  14.107  21.975  10.149
64124W        W68085  14.543  22.296  10.754
64125W        W68086  14.261  23.224   9.375
64126W        W68087  12.424  21.983   7.579
64127W        W68088  11.732  22.675  10.408
64128W        W68089  14.292  22.660  10.068
64129W        W68090  11.992  22.354  10.070
64130W        W68091  11.487  22.726  10.009
64131W        W68092  12.788  21.981  10.373
64132W        W68093  11.843  22.716   9.668
64133W        W68094  11.813  22.064   8.778
64134W        W68095  13.434  22.906   9.470
64135W        W68096  12.043  22.479   8.834
64136W        W68097  14.171  22.447   7.870
64137W        W68098  12.310  21.966  10.273
64138W        W68099  12.162  22.997   8.852
64139W        W68100  12.168  22.866  10.151
64140W        W68101  14.470  23.132   7.708
64141W        W68102  13.205  23.199   9.804
64142W        W68103  13.766  22.093  10.656
64143W        W68104  11.430  22.243  10.243
64144W        W68105  11.769  23.266   9.296
64145W        W68106  12.138  23.080   7.418
64146W        W68107  12.349  22.573   7.511
64147W        W68108  14.145  22.383  10.523
64148W        W68109  14.145  21.980   7.959
64149W        W68110  13.754  22.317   7.578
64150W        W68111  13.819  22.924   9.764
64151W        W68112  12.608  22.455   9.281
64152W        W68113  14.488  22.353   9.353
64153W        W68114  11.451  21.987  10.818
64154W        W68115  12.646  21.938   8.119
64155W        W68116  13.359  22.807   8.978
64156W        W68117  12.298  22.356   7.951
64157W        W68118  13.096  22.821   8.514
64158W        W68119  11.897  22.616   7.808
64159W        W68120  13.414  22.758   8.133
64160W        W68121  12.500  22.282   8.797
64161W        W68122  12.630  23.217   7.597
64162W        W68123  12.566  22.408  10.080
64163W        W68124  14.238  22.117   7.507
64164W        W68125  12.846  21.969   8.646
64165W        W68126  12.404  22.694   9.708
64166W        W68127  12.104  22.063   9.177
64167W        W68128  11.220  22.410   9.017
64168W        W68129  11.020  22.229   8.094
64169W        W68130  13.561  22.821   7.593
64170W        W68131  13.433  21.984   7.413
64171W        W68132  13.430  23.002  10.789
64172W        W68133  11.413  22.532  10.788
64173W        W68134  11.144  23.132   8.121
64174W        W68135  13.415  22.015   8.492
64175W        W68136  12.825  22.262   7.708
64176W        W68137  14.506  21.890   8.430
64177W        W68138  14.360  22.862   8.583
64178W        W68139  12.257  22.608  10.581
64179W        W68140  12.077  23.192   9.822
64180W        W68141  13.269  22.637  10.476
64181W        W68142  11.113  23.108  10.253
64182W        W68143  13.362  23.045  10.240
64183W        W68144  12.572  22.976  10.608
64184W        W68145  11.059  22.628  14.037
64185W        W68146  11.821  21.908  13.839
64186W        W68147  13.515  22.296  12.726
64187W        W68148  13.164  23.167  11.296
64188W        W68149  13.734  22.601  14.387
64189W        W68150  11.100  22.393  13.512
64190W        W68151  12.046  23.076  14.195
64191W        W68152  14.505  22.935  12.694
64192W        W68153  12.246  23.140  13.002
64193W        W68154  11.004  23.124  14.503
64194W        W68155  11.417  22.241  12.100
64195W        W68156  13.820  22.682  12.956
64196W        W68157  14.105  22.635  11.051
64197W        W68158  11.630  22.195  13.404
64198W        W68159  14.253  23.213  13.679
64199W        W68160  12.638  22.797  12.504
64200W        W68161  13.011  22.333  11.936
64201W        W68162  11.039  22.526  12.218
64202W        W68163  13.825  23.133  12.692
64203W        W68164  14.016  23.126  10.941
64204W        W68165  12.225  22.221  13.297
64205W        W68166  14.454  21.983  12.594
64206W        W68167  11.328  22.888  11.241
64207W        W68168  12.779  22.828  11.681
64208W        W68169  13.839  23.079  14.051
64209W        W68170  13.260  23.257  11.826
64210W        W68171  11.480  23.167  13.404
64211W        W68172  11.355  21.960  12.485
64212W        W68173  13.123  22.307  13.046
64213W        W68174  12.771  22.492  14.209
64214W        W68175  13.126  22.641  11.387
64215W        W68176  13.276  22.115  14.180
64216W        W68177  13.725  22.583  13.898
64217W        W68178  13.525  22.521  12.168
64218W        W68179  12.316  22.948  11.544
64219W        W68180  11.885  22.232  14.208
64220W        W68181  13.937  22.716  11.889
64221W        W68182  14.304  23.198  11.834
64222W        W68183  11.973  21.951  11.540
64223W        W68184  14.294  22.485  12.575
64224W        W68185  13.268  22.524  10.952
64225W        W68186  14.441  22.050  13.422
64226W        W68187  13.053  21.872  12.728
64227W        W68188  11.665  22.775  12.791
64228W        W68189  14.272  22.765  13.143
64229W        W68190  14.539  22.165  13.917
64230W        W68191  12.905  22.886  12.956
64231W        W68192  14.044  22.917  11.436
64232W        W68193  11.272  22.652  13.076
64233W        W68194  13.332  22.629  13.539
64234W        W68195  14.236  22.291  12.066
64235W        W68196  11.010  22.931  13.405
64236W        W68197  13.870  22.726  12.423
64237W        W68198  14.281  22.877  14.200
64238W        W68199  11.537  22.347  11.289
64239W        W68200  12.641  22.001  13.099
64240W        W68201  12.527  22.574  12.001
64241W        W68202  13.883  22.171  12.429
64242W        W68203  11.875  22.364  11.953
64243W        W68204  11.880  22.592  10.978
64244W        W68205  12.681  23.201  13.372
64245W        W68206  13.529  22.067  13.242
64246W        W68207  11.921  22.043  11.055
64247W        W68208  12.659  23.124  12.106
64248W        W68209  13.629  22.100  13.805
64249W        W68210  12.922  22.064  14.529
64250W        W68211  12.144  22.680  12.922
64251W        W68212  11.570  22.636  12.320
64252W        W68213  13.030  22.416  12.494
64253W        W68214  14.509  22.694  11.762
64254W        W68215  12.886  22.625  13.363
64255W        W68216  11.972  22.874  11.929
64256W        W68217  12.804  22.784  10.981
64257W        W68218  13.741  22.255  11.776
64258W        W68219  11.071  22.103  11.224
64259W        W68220  12.347  22.161  14.400
64260W        W68221  13.056  22.303  13.756
64261W        W68222  12.251  22.071  12.037
64262W        W68223  13.310  22.148  11.542
64263W        W68224  11.255  22.080  13.119
64264W        W68225  13.992  22.151  12.895
64265W        W68226  11.414  22.649  11.709
64266W        W68227  13.985  22.337  13.325
64267W        W68228  11.673  22.298  12.829
64268W        W68229  12.787  22.870  13.769
64269W        W68230  10.935  22.560  11.247
64270W        W68231  14.107  21.975  13.793
64271W        W68232  14.543  22.296  14.398
64272W        W68233  14.261  23.224  13.019
64273W        W68234  12.424  21.983  11.223
64274W        W68235  11.732  22.675  14.052
64275W        W68236  14.292  22.660  13.712
64276W        W68237  11.992  22.354  13.714
64277W        W68238  11.487  22.726  13.653
64278W        W68239  12.788  21.981  14.017
64279W        W68240  11.843  22.716  13.312
64280W        W68241  11.813  22.064  12.422
64281W        W68242  13.434  22.906  13.114
64282W        W68243  12.043  22.479  12.478
64283W        W68244  14.171  22.447  11.514
64284W        W68245  12.310  21.966  13.917
64285W        W68246  12.162  22.997  12.496
64286W        W68247  12.168  22.866  13.795
64287W        W68248  14.470  23.132  11.352
64288W        W68249  13.205  23.199  13.448
64289W        W68250  13.766  22.093  14.300
64290W        W68251  11.430  22.243  13.887
64291W        W68252  11.769  23.266  12.940
64292W        W68253  12.138  23.080  11.062
64293W        W68254  12.349  22.573  11.155
64294W        W68255  14.145  22.383  14.167
64295W        W68256  14.145  21.980  11.603
64296W        W68257  13.754  22.317  11.222
64297W        W68258  13.819  22.924  13.408
64298W        W68259  12.608  22.455  12.925
64299W        W68260  14.488  22.353  12.997
64300W        W68261  11.451  21.987  14.462
64301W        W68262  12.646  21.938  11.763
64302W        W68263  13.359  22.807  12.622
64303W        W68264  12.298  22.356  11.595
64304W        W68265  13.096  22.821  12.158
64305W        W68266  11.897  22.616  11.452
64306W        W68267  13.414  22.758  11.777
64307W        W68268  12.500  22.282  12.441
64308W        W68269  12.630  23.217  11.241
64309W        W68270  12.566  22.408  13.724
64310W        W68271  14.238  22.117  11.151
64311W        W68272  12.846  21.969  12.290
64312W        W68273  12.404  22.694  13.352
64313W        W68274  12.104  22.063  12.821
64314W        W68275  11.220  22.410  12.661
64315W        W68276  11.020  22.229  11.738
64316W        W68277  13.561  22.821  11.237
64317W        W68278  13.433  21.984  11.057
64318W        W68279  13.430  23.002  14.433
64319W        W68280  11.413  22.532  14.432
64320W        W68281  11.144  23.132  11.765
64321W        W68282  13.415  22.015  12.136
64322W        W68283  12.825  22.262  11.352
64323W        W68284  14.506  21.890  12.074
64324W        W68285  14.360  22.862  12.227
64325W        W68286  12.257  22.608  14.225
64326W        W68287  12.077  23.192  13.466
64327W        W68288  13.269  22.637  14.120
64328W        W68289  11.113  23.108  13.897
64329W        W68290  13.362  23.045  13.884
64330W        W68291  12.572  22.976  14.252
64331W        W68292  11.059  22.628  17.681
64332W        W68293  11.821  21.908  17.483
64333W        W68294  13.515  22.296  16.370
64334W        W68295  13.164  23.167  14.940
64335W        W68296  13.734  22.601  18.031
64336W        W68297  11.100  22.393  17.156
64337W        W68298  12.046  23.076  17.839
64338W        W68299  14.505  22.935  16.338
64339W        W68300  12.246  23.140  16.646
64340W        W68301  11.004  23.124  18.147
64341W        W68302  11.417  22.241  15.744
64342W        W68303  13.820  22.682  16.600
64343W        W68304  14.105  22.635  14.695
64344W        W68305  11.630  22.195  17.048
64345W        W68306  14.253  23.213  17.323
64346W        W68307  12.638  22.797  16.148
64347W        W68308  13.011  22.333  15.580
64348W        W68309  11.039  22.526  15.862
64349W        W68310  13.825  23.133  16.336
64350W        W68311  14.016  23.126  14.585
64351W        W68312  12.225  22.221  16.941
64352W        W68313  14.454  21.983  16.238
64353W        W68314  11.328  22.888  14.885
64354W        W68315  12.779  22.828  15.325
64355W        W68316  13.839  23.079  17.695
64356W        W68317  13.260  23.257  15.470
64357W        W68318  11.480  23.167  17.048
64358W        W68319  11.355  21.960  16.129
64359W        W68320  13.123  22.307  16.690
64360W        W68321  12.771  22.492  17.853
64361W        W68322  13.126  22.641  15.031
64362W        W68323  13.725  22.583  17.542
64363W        W68324  13.525  22.521  15.812
64364W        W68325  12.316  22.948  15.188
64365W        W68326  11.885  22.232  17.852
64366W        W68327  13.937  22.716  15.533
64367W        W68328  11.973  21.951  15.184
64368W        W68329  14.294  22.485  16.219
64369W        W68330  13.268  22.524  14.596
64370W        W68331  14.441  22.050  17.066
64371W        W68332  13.053  21.872  16.372
64372W        W68333  11.665  22.775  16.435
64373W        W68334  14.272  22.765  16.787
64374W        W68335  14.539  22.165  17.561
64375W        W68336  12.905  22.886  16.600
64376W        W68337  11.272  22.652  16.720
64377W        W68338  13.332  22.629  17.183
64378W        W68339  11.010  22.931  17.049
64379W        W68340  13.870  22.726  16.067
64380W        W68341  14.281  22.877  17.844
64381W        W68342  11.537  22.347  14.933
64382W        W68343  12.641  22.001  16.743
64383W        W68344  12.527  22.574  15.645
64384W        W68345  13.883  22.171  16.073
64385W        W68346  11.875  22.364  15.597
64386W        W68347  11.880  22.592  14.622
64387W        W68348  12.681  23.201  17.016
64388W        W68349  13.529  22.067  16.886
64389W        W68350  11.921  22.043  14.699
64390W        W68351  12.659  23.124  15.750
64391W        W68352  12.922  22.064  18.173
64392W        W68353  12.144  22.680  16.566
64393W        W68354  11.570  22.636  15.964
64394W        W68355  13.030  22.416  16.138
64395W        W68356  14.509  22.694  15.406
64396W        W68357  12.886  22.625  17.007
64397W        W68358  11.972  22.874  15.573
64398W        W68359  12.804  22.784  14.625
64399W        W68360  13.741  22.255  15.420
64400W        W68361  11.071  22.103  14.868
64401W        W68362  12.347  22.161  18.044
64402W        W68363  13.056  22.303  17.400
64403W        W68364  12.251  22.071  15.681
64404W        W68365  13.310  22.148  15.186
64405W        W68366  11.255  22.080  16.763
64406W        W68367  13.992  22.151  16.539
64407W        W68368  11.414  22.649  15.353
64408W        W68369  13.985  22.337  16.969
64409W        W68370  11.673  22.298  16.473
64410W        W68371  12.787  22.870  17.413
64411W        W68372  10.935  22.560  14.891
64412W        W68373  14.107  21.975  17.437
64413W        W68374  14.543  22.296  18.042
64414W        W68375  14.261  23.224  16.663
64415W        W68376  12.424  21.983  14.867
64416W        W68377  11.732  22.675  17.696
64417W        W68378  14.292  22.660  17.356
64418W        W68379  11.992  22.354  17.358
64419W        W68380  11.487  22.726  17.297
64420W        W68381  12.788  21.981  17.661
64421W        W68382  11.843  22.716  16.956
64422W        W68383  11.813  22.064  16.066
64423W        W68384  13.434  22.906  16.758
64424W        W68385  12.043  22.479  16.122
64425W        W68386  14.171  22.447  15.158
64426W        W68387  12.310  21.966  17.561
64427W        W68388  12.162  22.997  16.140
64428W        W68389  12.168  22.866  17.439
64429W        W68390  14.470  23.132  14.996
64430W        W68391  13.205  23.199  17.092
64431W        W68392  13.766  22.093  17.944
64432W        W68393  11.430  22.243  17.531
64433W        W68394  11.769  23.266  16.584
64434W        W68395  12.138  23.080  14.706
64435W        W68396  12.349  22.573  14.799
64436W        W68397  14.145  22.383  17.811
64437W        W68398  14.145  21.980  15.247
64438W        W68399  13.754  22.317  14.866
64439W        W68400  13.819  22.924  17.052
64440W        W68401  12.608  22.455  16.569
64441W        W68402  14.488  22.353  16.641
64442W        W68403  11.451  21.987  18.106
64443W        W68404  12.646  21.938  15.407
64444W        W68405  13.359  22.807  16.266
64445W        W68406  12.298  22.356  15.239
64446W        W68407  13.096  22.821  15.802
64447W        W68408  11.897  22.616  15.096
64448W        W68409  13.414  22.758  15.421
64449W        W68410  12.500  22.282  16.085
64450W        W68411  12.630  23.217  14.885
64451W        W68412  12.566  22.408  17.368
64452W        W68413  14.238  22.117  14.795
64453W        W68414  12.846  21.969  15.934
64454W        W68415  12.404  22.694  16.996
64455W        W68416  12.104  22.063  16.465
64456W        W68417  11.220  22.410  16.305
64457W        W68418  11.020  22.229  15.382
64458W        W68419  13.561  22.821  14.881
64459W        W68420  13.433  21.984  14.701
64460W        W68421  13.430  23.002  18.077
64461W        W68422  11.413  22.532  18.076
64462W        W68423  11.144  23.132  15.409
64463W        W68424  13.415  22.015  15.780
64464W        W68425  12.825  22.262  14.996
64465W        W68426  14.506  21.890  15.718
64466W        W68427  14.360  22.862  15.871
64467W        W68428  12.257  22.608  17.869
64468W        W68429  12.077  23.192  17.110
64469W        W68430  13.269  22.637  17.764
64470W        W68431  11.113  23.108  17.541
64471W        W68432  13.362  23.045  17.528
64472W        W68433  12.572  22.976  17.896
64473W        W68434  11.059  22.628  21.325
64474W        W68435  11.821  21.908  21.127
64475W        W68436  13.515  22.296  20.014
64476W        W68437  13.164  23.167  18.584
64477W        W68438  13.734  22.601  21.675
64478W        W68439  11.100  22.393  20.800
64479W        W68440  12.046  23.076  21.483
64480W        W68441  14.505  22.935  19.982
64481W        W68442  12.246  23.140  20.290
64482W        W68443  11.004  23.124  21.791
64483W        W68444  11.417  22.241  19.388
64484W        W68445  13.820  22.682  20.244
64485W        W68446  14.105  22.635  18.339
64486W        W68447  11.630  22.195  20.692
64487W        W68448  14.253  23.213  20.967
64488W        W68449  12.638  22.797  19.792
64489W        W68450  13.011  22.333  19.224
64490W        W68451  11.039  22.526  19.506
64491W        W68452  13.825  23.133  19.980
64492W        W68453  14.016  23.126  18.229
64493W        W68454  12.225  22.221  20.585
64494W        W68455  14.454  21.983  19.882
64495W        W68456  11.328  22.888  18.529
64496W        W68457  12.779  22.828  18.969
64497W        W68458  13.839  23.079  21.339
64498W        W68459  13.260  23.257  19.114
64499W        W68460  11.480  23.167  20.692
64500W        W68461  11.355  21.960  19.773
64501W        W68462  13.123  22.307  20.334
64502W        W68463  12.771  22.492  21.497
64503W        W68464  13.126  22.641  18.675
64504W        W68465  13.276  22.115  21.468
64505W        W68466  13.725  22.583  21.186
64506W        W68467  13.525  22.521  19.456
64507W        W68468  12.316  22.948  18.832
64508W        W68469  11.885  22.232  21.496
64509W        W68470  13.937  22.716  19.177
64510W        W68471  14.304  23.198  19.122
64511W        W68472  11.973  21.951  18.828
64512W        W68473  14.294  22.485  19.863
64513W        W68474  14.441  22.050  20.710
64514W        W68475  13.053  21.872  20.016
64515W        W68476  11.665  22.775  20.079
64516W        W68477  14.272  22.765  20.431
64517W        W68478  14.539  22.165  21.205
64518W        W68479  12.905  22.886  20.244
64519W        W68480  14.044  22.917  18.724
64520W        W68481  11.272  22.652  20.364
64521W        W68482  13.332  22.629  20.827
64522W        W68483  14.236  22.291  19.354
64523W        W68484  11.010  22.931  20.693
64524W        W68485  13.870  22.726  19.711
64525W        W68486  14.281  22.877  21.488
64526W        W68487  11.537  22.347  18.577
64527W        W68488  12.641  22.001  20.387
64528W        W68489  12.527  22.574  19.289
64529W        W68490  13.883  22.171  19.717
64530W        W68491  11.875  22.364  19.241
64531W        W68492  11.880  22.592  18.266
64532W        W68493  12.681  23.201  20.660
64533W        W68494  13.529  22.067  20.530
64534W        W68495  11.921  22.043  18.343
64535W        W68496  12.659  23.124  19.394
64536W        W68497  13.629  22.100  21.093
64537W        W68498  12.922  22.064  21.817
64538W        W68499  12.144  22.680  20.210
64539W        W68500  11.570  22.636  19.608
64540W        W68501  13.030  22.416  19.782
64541W        W68502  14.509  22.694  19.050
64542W        W68503  12.886  22.625  20.651
64543W        W68504  11.972  22.874  19.217
64544W        W68505  12.804  22.784  18.269
64545W        W68506  13.741  22.255  19.064
64546W        W68507  11.071  22.103  18.512
64547W        W68508  12.347  22.161  21.688
64548W        W68509  13.056  22.303  21.044
64549W        W68510  12.251  22.071  19.325
64550W        W68511  13.310  22.148  18.830
64551W        W68512  11.255  22.080  20.407
64552W        W68513  13.992  22.151  20.183
64553W        W68514  11.414  22.649  18.997
64554W        W68515  13.985  22.337  20.613
64555W        W68516  11.673  22.298  20.117
64556W        W68517  12.787  22.870  21.057
64557W        W68518  10.935  22.560  18.535
64558W        W68519  14.107  21.975  21.081
64559W        W68520  14.543  22.296  21.686
64560W        W68521  14.261  23.224  20.307
64561W        W68522  12.424  21.983  18.511
64562W        W68523  11.732  22.675  21.340
64563W        W68524  14.292  22.660  21.000
64564W        W68525  11.992  22.354  21.002
64565W        W68526  11.487  22.726  20.941
64566W        W68527  12.788  21.981  21.305
64567W        W68528  11.843  22.716  20.600
64568W        W68529  11.813  22.064  19.710
64569W        W68530  13.434  22.906  20.402
64570W        W68531  12.043  22.479  19.766
64571W        W68532  14.171  22.447  18.802
64572W        W68533  12.310  21.966  21.205
64573W        W68534  12.162  22.997  19.784
64574W        W68535  12.168  22.866  21.083
64575W        W68536  14.470  23.132  18.640
64576W        W68537  13.205  23.199  20.736
64577W        W68538  13.766  22.093  21.588
64578W        W68539  11.430  22.243  21.175
64579W        W68540  11.769  23.266  20.228
64580W        W68541  12.138  23.080  18.350
64581W        W68542  12.349  22.573  18.443
64582W        W68543  14.145  22.383  21.455
64583W        W68544  14.145  21.980  18.891
64584W        W68545  13.819  22.924  20.696
64585W        W68546  12.608  22.455  20.213
64586W        W68547  14.488  22.353  20.285
64587W        W68548  11.451  21.987  21.750
64588W        W68549  12.646  21.938  19.051
64589W        W68550  13.359  22.807  19.910
64590W        W68551  12.298  22.356  18.883
64591W        W68552  13.096  22.821  19.446
64592W        W68553  11.897  22.616  18.740
64593W        W68554  13.414  22.758  19.065
64594W        W68555  12.500  22.282  19.729
64595W        W68556  12.630  23.217  18.529
64596W        W68557  12.566  22.408  21.012
64597W        W68558  14.238  22.117  18.439
64598W        W68559  12.846  21.969  19.578
64599W        W68560  12.404  22.694  20.640
64600W        W68561  12.104  22.063  20.109
64601W        W68562  11.220  22.410  19.949
64602W        W68563  11.020  22.229  19.026
64603W        W68564  13.561  22.821  18.525
64604W        W68565  13.430  23.002  21.721
64605W        W68566  11.413  22.532  21.720
64606W        W68567  11.144  23.132  19.053
64607W        W68568  13.415  22.015  19.424
64608W        W68569  12.825  22.262  18.640
64609W        W68570  14.506  21.890  19.362
64610W        W68571  14.360  22.862  19.515
64611W        W68572  12.257  22.608  21.513
64612W        W68573  12.077  23.192  20.754
64613W        W68574  13.269  22.637  21.408
64614W        W68575  11.113  23.108  21.185
64615W        W68576  13.362  23.045  21.172
64616W        W68577  12.572  22.976  21.540
64617W        W68578  13.164  23.167  22.229
64618W        W68579  11.417  22.241  23.033
64619W        W68580  14.105  22.635  21.984
64620W        W68581  13.011  22.333  22.869
64621W        W68582  14.016  23.126  21.874
64622W        W68583  11.328  22.888  22.174
64623W        W68584  12.779  22.828  22.614
64624W        W68585  13.260  23.257  22.759
64625W        W68586  13.126  22.641  22.320
64626W        W68587  13.525  22.521  23.101
64627W        W68588  12.316  22.948  22.477
64628W        W68589  13.937  22.716  22.822
64629W        W68590  14.304  23.198  22.767
64630W        W68591  11.973  21.951  22.473
64631W        W68592  13.268  22.524  21.885
64632W        W68593  14.044  22.917  22.369
64633W        W68594  14.236  22.291  22.999
64634W        W68595  11.537  22.347  22.222
64635W        W68596  12.527  22.574  22.934
64636W        W68597  11.875  22.364  22.886
64637W        W68598  11.880  22.592  21.911
64638W        W68599  11.921  22.043  21.988
64639W        W68600  12.659  23.124  23.039
64640W        W68601  11.570  22.636  23.253
64641W        W68602  14.509  22.694  22.695
64642W        W68603  11.972  22.874  22.862
64643W        W68604  12.804  22.784  21.914
64644W        W68605  13.741  22.255  22.709
64645W        W68606  11.071  22.103  22.157
64646W        W68607  12.251  22.071  22.970
64647W        W68608  13.310  22.148  22.475
64648W        W68609  11.414  22.649  22.642
64649W        W68610  10.935  22.560  22.180
64650W        W68611  12.424  21.983  22.156
64651W        W68612  14.171  22.447  22.447
64652W        W68613  14.470  23.132  22.285
64653W        W68614  12.138  23.080  21.995
64654W        W68615  12.349  22.573  22.088
64655W        W68616  14.145  21.980  22.536
64656W        W68617  13.754  22.317  22.155
64657W        W68618  12.646  21.938  22.696
64658W        W68619  12.298  22.356  22.528
64659W        W68620  13.096  22.821  23.091
64660W        W68621  11.897  22.616  22.385
64661W        W68622  13.414  22.758  22.710
64662W        W68623  12.630  23.217  22.174
64663W        W68624  14.238  22.117  22.084
64664W        W68625  12.846  21.969  23.223
64665W        W68626  11.020  22.229  22.671
64666W        W68627  13.561  22.821  22.170
64667W        W68628  13.433  21.984  21.990
64668W        W68629  11.144  23.132  22.698
64669W        W68630  12.825  22.262  22.285
64670W        W68631  14.506  21.890  23.007
64671W        W68632  14.360  22.862  23.160
64672W        W68633  14.661   3.595   3.359
64673W        W68634  15.037   2.488   2.882
64674W        W68635  17.742   2.218   0.652
64675W        W68636  17.872   3.303   2.679
64676W        W68637  15.790   3.294   0.205
64677W        W68638  15.873   1.446   1.188
64678W        W68639  15.388   1.294   1.352
64679W        W68640  16.379   2.109   0.786
64680W        W68641  16.054   3.201   3.141
64681W        W68642  14.703   0.762   3.104
64682W        W68643  15.465   0.042   2.906
64683W        W68644  17.159   0.430   1.793
64684W        W68645  16.808   1.301   0.363
64685W        W68646  17.378   0.735   3.454
64686W        W68647  14.744   0.527   2.579
64687W        W68648  14.843   3.146   3.600
64688W        W68649  16.365   2.536   0.332
64689W        W68650  14.797   1.319   2.025
64690W        W68651  15.690   1.210   3.262
64691W        W68652  18.149   1.069   1.761
64692W        W68653  17.913   2.112   2.620
64693W        W68654  16.221   1.445   1.647
64694W        W68655  16.767   2.784   2.016
64695W        W68656  15.267   2.218   2.248
64696W        W68657  14.626   1.746   1.819
64697W        W68658  15.662   1.718   3.011
64698W        W68659  17.933   1.501   3.265
64699W        W68660  15.549   2.945   1.710
64700W        W68661  16.670   2.634   2.844
64701W        W68662  15.890   1.274   2.069
64702W        W68663  16.182   2.058   1.712
64703W        W68664  17.179   2.831   3.560
64704W        W68665  16.258   2.151   3.570
64705W        W68666  16.239   1.867   3.048
64706W        W68667  14.648   1.258   3.570
64707W        W68668  17.480   2.793   3.169
64708W        W68669  15.061   0.375   1.167
64709W        W68670  15.588   2.633   2.166
64710W        W68671  18.051   2.416   1.456
64711W        W68672  17.464   0.816   2.023
64712W        W68673  17.749   0.769   0.118
64713W        W68674  18.214   1.570   2.424
64714W        W68675  16.181   3.277   2.177
64715W        W68676  17.955   2.743   0.615
64716W        W68677  15.084   3.529   0.369
64717W        W68678  15.477   3.575   1.045
64718W        W68679  15.274   0.329   2.471
64719W        W68680  17.897   1.347   2.746
64720W        W68681  17.302   1.769   1.205
64721W        W68682  17.268   1.457   0.232
64722W        W68683  16.476   2.601   2.372
64723W        W68684  16.282   0.931   1.571
64724W        W68685  16.882   3.018   2.565
64725W        W68686  17.753   1.809   0.987
64726W        W68687  16.655   0.467   1.003
64727W        W68688  15.312   3.161   0.686
64728W        W68689  14.683   0.660   1.285
64729W        W68690  17.469   1.267   1.759
64730W        W68691  14.927   2.884   1.674
64731W        W68692  16.268   3.234   0.544
64732W        W68693  17.660   1.260   0.008
64733W        W68694  14.683   3.018   2.172
64734W        W68695  15.474   2.590   2.652
64735W        W68696  15.847   1.950   1.271
64736W        W68697  15.869   0.355   2.364
64737W        W68698  18.098   0.117   1.661
64738W        W68699  15.317   1.989   0.129
64739W        W68700  14.972   1.022   0.308
64740W        W68701  15.034   2.978   1.102
64741W        W68702  16.165   2.461   1.350
64742W        W68703  17.497   3.320   3.064
64743W        W68704  16.423   0.962   0.748
64744W        W68705  17.806   3.360   1.520
64745W        W68706  17.483   1.213   3.118
64746W        W68707  18.196   2.869   1.252
64747W        W68708  16.823   2.161   2.736
64748W        W68709  14.589   1.712   0.942
64749W        W68710  15.700   2.127   2.515
64750W        W68711  16.904   1.391   0.893
64751W        W68712  16.781   1.881   0.997
64752W        W68713  15.124   1.301   2.471
64753W        W68714  15.109   1.177   3.393
64754W        W68715  14.999   0.094   1.552
64755W        W68716  16.767   0.441   2.113
64756W        W68717  16.415   0.626   3.276
64757W        W68718  16.770   0.775   0.454
64758W        W68719  17.953   3.168   3.208
64759W        W68720  16.920   0.249   3.247
64760W        W68721  17.939   2.550   3.369
64761W        W68722  17.369   0.717   2.965
64762W        W68723  17.169   0.655   1.235
64763W        W68724  17.562   1.789   3.639
64764W        W68725  15.302   3.365   1.625
64765W        W68726  15.960   1.082   0.611
64766W        W68727  15.529   0.366   3.275
64767W        W68728  17.581   0.850   0.956
64768W        W68729  17.948   1.332   0.901
64769W        W68730  15.691   3.549   3.372
64770W        W68731  15.617   0.085   0.607
64771W        W68732  17.938   0.619   1.642
64772W        W68733  18.088   2.868   0.087
64773W        W68734  14.995   2.071   1.789
64774W        W68735  16.912   0.658   0.019
64775W        W68736  18.046   2.990   1.739
64776W        W68737  18.085   0.184   2.489
64777W        W68738  16.530   1.396   3.043
64778W        W68739  16.623   2.735   0.746
64779W        W68740  17.023   2.029   3.486
64780W        W68741  16.697   0.006   1.795
64781W        W68742  15.309   0.909   1.858
64782W        W68743  14.863   2.109   2.632
64783W        W68744  16.722   3.302   1.338
64784W        W68745  17.916   0.899   2.210
64785W        W68746  16.553   3.246   2.977
64786W        W68747  17.896   2.305   0.182
64787W        W68748  16.331   1.788   1.243
64788W        W68749  18.183   0.299   2.984
64789W        W68750  16.332   2.134   2.578
64790W        W68751  16.549   1.020   2.023
64791W        W68752  17.401   1.318   0.861
64792W        W68753  17.688   1.051   0.503
64793W        W68754  17.497   3.091   0.892
64794W        W68755  17.331   2.694   1.688
64795W        W68756  17.227   1.773   0.666
64796W        W68757  16.660   1.983   1.652
64797W        W68758  17.541   1.771   1.719
64798W        W68759  14.916   0.786   2.143
64799W        W68760  17.694   1.838   2.970
64800W        W68761  18.045   3.456   2.116
64801W        W68762  15.975   2.900   1.518
64802W        W68763  16.982   3.433   2.842
64803W        W68764  16.976   0.763   2.606
64804W        W68765  16.183   3.471   2.667
64805W        W68766  17.880   0.425   1.133
64806W        W68767  17.671   1.744   2.434
64807W        W68768  14.654   1.065   2.472
64808W        W68769  17.514   0.860   1.490
64809W        W68770  17.925   1.011   3.267
64810W        W68771  16.810   2.710   1.485
64811W        W68772  16.066   3.301   1.098
64812W        W68773  15.181   0.481   0.356
64813W        W68774  16.285   0.135   2.166
64814W        W68775  15.313   3.255   0.014
64815W        W68776  15.687   1.721   0.765
64816W        W68777  16.341   2.350   3.078
64817W        W68778  16.171   0.708   1.068
64818W        W68779  17.527   0.305   1.496
64819W        W68780  17.247   3.587   1.824
64820W        W68781  16.659   3.235   2.164
64821W        W68782  16.055   2.272   2.125
64822W        W68783  17.825   2.995   2.251
64823W        W68784  15.519   0.498   1.020
64824W        W68785  16.041   2.795   1.980
64825W        W68786  15.524   0.726   0.045
64826W        W68787  16.325   1.335   2.439
64827W        W68788  17.173   0.201   2.309
64828W        W68789  14.593   2.044   2.194
64829W        W68790  16.297   1.862   0.352
64830W        W68791  15.565   0.177   0.122
64831W        W68792  16.303   1.258   1.173
64832W        W68793  17.273   0.234   2.872
64833W        W68794  15.861   2.246   2.981
64834W        W68795  16.665   2.028   3.198
64835W        W68796  17.282   2.058   3.091
64836W        W68797  16.566   0.198   3.596
64837W        W68798  15.788   0.814   1.989
64838W        W68799  15.214   0.770   1.387
64839W        W68800  15.000   3.482   1.063
64840W        W68801  16.332   2.812   3.188
64841W        W68802  15.367   2.297   0.547
64842W        W68803  17.047   1.682   1.768
64843W        W68804  17.327   1.481   2.167
64844W        W68805  16.532   2.155   2.101
64845W        W68806  17.002   2.529   0.233
64846W        W68807  16.674   0.550   1.561
64847W        W68808  18.153   0.828   0.829
64848W        W68809  14.647   3.417   2.860
64849W        W68810  15.064   2.643   2.392
64850W        W68811  14.631   3.489   0.624
64851W        W68812  16.530   0.759   2.430
64852W        W68813  15.893   2.782   0.279
64853W        W68814  17.798   3.164   0.465
64854W        W68815  16.773   1.817   0.479
64855W        W68816  15.616   1.008   0.996
64856W        W68817  16.448   0.918   0.048
64857W        W68818  17.032   2.483   3.226
64858W        W68819  17.385   0.389   0.843
64859W        W68820  14.715   0.237   0.291
64860W        W68821  16.001   2.556   2.581
64861W        W68822  15.800   2.472   1.673
64862W        W68823  15.542   2.424   0.071
64863W        W68824  14.783   2.665   0.839
64864W        W68825  15.287   1.735   3.281
64865W        W68826  15.991   0.295   3.467
64866W        W68827  16.700   0.437   2.823
64867W        W68828  15.895   0.205   1.104
64868W        W68829  16.954   0.282   0.609
64869W        W68830  14.899   0.214   2.186
64870W        W68831  14.947   1.177   1.556
64871W        W68832  17.636   0.285   1.962
64872W        W68833  15.058   0.783   0.776
64873W        W68834  17.629   0.471   2.392
64874W        W68835  18.025   1.674   0.077
64875W        W68836  15.317   0.432   1.896
64876W        W68837  16.431   1.004   2.836
64877W        W68838  14.579   0.694   0.314
64878W        W68839  15.365   2.083   2.875
64879W        W68840  16.723   1.481   2.054
64880W        W68841  16.590   3.560   0.350
64881W        W68842  14.736   2.067   0.047
64882W        W68843  15.471   2.478   3.173
64883W        W68844  14.992   1.645   2.804
64884W        W68845  15.983   1.750   2.598
64885W        W68846  17.751   0.109   2.860
64886W        W68847  18.149   1.719   2.851
64887W        W68848  18.137   1.919   0.537
64888W        W68849  17.000   2.251   0.636
64889W        W68850  17.474   3.551   0.331
64890W        W68851  16.651   1.541   3.473
64891W        W68852  14.981   2.508   3.513
64892W        W68853  18.187   0.430   3.465
64893W        W68854  17.905   1.358   2.086
64894W        W68855  16.213   3.488   3.563
64895W        W68856  16.068   0.117   0.290
64896W        W68857  17.607   2.716   0.233
64897W        W68858  15.376   0.809   3.119
64898W        W68859  15.810   2.803   2.981
64899W        W68860  17.936   0.794   2.779
64900W        W68861  17.147   3.453   0.747
64901W        W68862  17.386   2.072   2.114
64902W        W68863  15.636   0.488   2.781
64903W        W68864  16.105   1.557   3.538
64904W        W68865  15.608   2.736   0.732
64905W        W68866  17.363   2.234   0.996
64906W        W68867  15.131   0.860   2.720
64907W        W68868  16.460   2.922   1.184
64908W        W68869  18.210   1.482   1.365
64909W        W68870  16.432   0.115   3.084
64910W        W68871  17.212   2.820   2.163
64911W        W68872  17.515   3.164   1.871
64912W        W68873  16.734   2.966   0.299
64913W        W68874  14.744   2.858   3.141
64914W        W68875  15.487   0.850   2.379
64915W        W68876  15.457   0.198   1.489
64916W        W68877  17.078   1.040   2.181
64917W        W68878  15.876   2.211   0.381
64918W        W68879  17.874   2.153   1.880
64919W        W68880  15.201   2.911   3.303
64920W        W68881  17.588   3.593   1.100
64921W        W68882  15.687   0.613   1.545
64922W        W68883  15.456   2.106   1.635
64923W        W68884  15.769   3.517   2.385
64924W        W68885  17.836   3.613   3.417
64925W        W68886  16.995   1.801   2.350
64926W        W68887  14.844   1.599   0.265
64927W        W68888  17.978   3.257   0.962
64928W        W68889  17.815   0.581   0.581
64929W        W68890  15.954   0.100   2.984
64930W        W68891  17.660   2.902   1.442
64931W        W68892  17.689   1.458   1.347
64932W        W68893  15.806   1.131   1.563
64933W        W68894  16.051   1.393   2.887
64934W        W68895  17.162   2.546   2.750
64935W        W68896  15.812   1.000   2.862
64936W        W68897  15.791   3.466   1.478
64937W        W68898  15.108   3.425   3.112
64938W        W68899  15.220   2.786   0.242
64939W        W68900  17.737   2.544   1.052
64940W        W68901  15.341   1.336   2.938
64941W        W68902  18.114   1.266   0.419
64942W        W68903  15.859   2.323   0.890
64943W        W68904  16.958   1.705   2.971
64944W        W68905  16.849   1.333   2.515
64945W        W68906  15.409   1.705   2.544
64946W        W68907  17.619   3.593   2.373
64947W        W68908  17.410   0.227   3.367
64948W        W68909  15.074   0.377   2.954
64949W        W68910  15.413   1.400   2.007
64950W        W68911  15.782   1.214   0.129
64951W        W68912  14.585   2.973   2.674
64952W        W68913  16.170   1.682   2.117
64953W        W68914  15.993   0.707   0.222
64954W        W68915  15.128   1.523   1.003
64955W        W68916  14.899   3.375   2.440
64956W        W68917  17.694   1.601   0.548
64957W        W68918  17.789   0.517   3.234
64958W        W68919  17.225   2.726   1.197
64959W        W68920  14.823   1.650   3.374
64960W        W68921  17.789   0.114   0.670
64961W        W68922  17.309   2.589   0.681
64962W        W68923  16.211   1.647   0.766
64963W        W68924  17.398   0.451   0.289
64964W        W68925  17.463   1.058   2.475
64965W        W68926  15.172   1.651   1.682
64966W        W68927  15.466   2.590   1.331
64967W        W68928  17.229   1.210   1.296
64968W        W68929  16.252   0.589   1.992
64969W        W68930  18.214   2.500   2.503
64970W        W68931  18.132   0.487   2.064
64971W        W68932  14.671   3.317   1.440
64972W        W68933  15.180   2.504   0.976
64973W        W68934  15.095   0.121   3.529
64974W        W68935  16.214   2.974   3.631
64975W        W68936  17.969   1.942   1.421
64976W        W68937  17.323   2.119   0.301
64977W        W68938  16.618   3.640   2.513
64978W        W68939  17.475   2.362   3.550
64979W        W68940  16.290   0.072   0.830
64980W        W68941  17.003   0.941   1.689
64981W        W68942  14.689   2.528   2.021
64982W        W68943  15.942   0.490   0.662
64983W        W68944  15.746   1.974   3.511
64984W        W68945  16.740   0.955   1.225
64985W        W68946  16.945   2.365   2.347
64986W        W68947  15.099   2.970   2.782
64987W        W68948  15.690   2.953   3.505
64988W        W68949  15.541   0.750   0.519
64989W        W68950  17.058   0.892   0.844
64990W        W68951  17.016   3.000   3.081
64991W        W68952  15.701   1.592   1.680
64992W        W68953  15.356   3.290   2.545
64993W        W68954  18.101   3.407   0.146
64994W        W68955  14.964   2.079   3.142
64995W        W68956  16.959   2.341   1.830
64996W        W68957  15.395   1.990   1.072
64997W        W68958  15.766   2.997   2.467
64998W        W68959  16.144   0.416   1.508
64999W        W68960  14.755   2.400   0.438
65000W        W68961  16.274   1.351   0.308
65001W        W68962  14.920   1.900   1.327
65002W        W68963  16.210   0.542   2.791
65003W        W68964  17.882   0.251   0.218
65004W        W68965  17.975   1.997   3.317
65005W        W68966  16.629   3.254   3.469
65006W        W68967  18.187   2.348   2.991
65007W        W68968  17.595   3.146   3.602
65008W        W68969  15.334   3.602   2.080
65009W        W68970  18.193   2.224   0.954
65010W        W68971  16.723   1.491   1.467
65011W        W68972  16.490   0.103   1.357
65012W        W68973  15.549   3.087   1.194
65013W        W68974  16.048   0.828   2.419
65014W        W68975  15.748   0.197   1.888
65015W        W68976  14.811   3.019   0.436
65016W        W68977  16.627   2.383   1.154
65017W        W68978  15.502   3.178   3.033
65018W        W68979  14.979   2.001   0.729
65019W        W68980  14.864   0.544   1.728
65020W        W68981  16.412   2.509   1.785
65021W        W68982  14.664   0.363   0.805
65022W        W68983  17.328   1.569   2.732
65023W        W68984  17.205   0.955   0.304
65024W        W68985  17.722   2.627   1.952
65025W        W68986  16.383   3.111   1.783
65026W        W68987  15.795   3.215   0.694
65027W        W68988  17.077   0.118   0.124
65028W        W68989  14.877   3.378   1.865
65029W        W68990  17.074   1.136   3.500
65030W        W68991  15.057   0.666   3.499
65031W        W68992  14.788   1.266   0.832
65032W        W68993  15.479   1.255   0.557
65033W        W68994  17.242   1.582   3.374
65034W        W68995  15.585   1.863   2.083
65035W        W68996  17.059   0.149   1.203
65036W        W68997  16.190   3.580   1.706
65037W        W68998  17.404   3.042   2.643
65038W        W68999  16.988   3.191   1.754
65039W        W69000  17.007   2.171   1.348
65040W        W69001  16.469   0.396   0.419
65041W        W69002  18.150   0.024   1.141
65042W        W69003  15.838   1.659   0.304
65043W        W69004  18.004   0.996   1.294
65044W        W69005  16.696   2.166   0.171
65045W        W69006  17.632   2.366   2.919
65046W        W69007  17.286   3.067   0.386
65047W        W69008  15.901   0.742   3.292
65048W        W69009  15.721   1.326   2.533
65049W        W69010  17.813   2.821   2.810
65050W        W69011  16.913   0.771   3.187
65051W        W69012  14.757   1.242   2.964
65052W        W69013  16.517   1.719   2.690
65053W        W69014  14.874   2.477   1.347
65054W        W69015  15.021   1.774   2.237
65055W        W69016  17.338   2.060   2.587
65056W        W69017  17.110   3.440   3.398
65057W        W69018  17.006   1.179   2.951
65058W        W69019  17.283   3.233   1.356
65059W        W69020  16.285   2.953   2.679
65060W        W69021  15.770   3.308   1.948
65061W        W69022  17.575   2.479   2.367
65062W        W69023  16.625   2.551   3.504
65063W        W69024  15.230   2.504   1.843
65064W        W69025  17.576   2.263   1.488
65065W        W69026  17.217   3.329   2.239
65066W        W69027  15.195   3.058   2.109
65067W        W69028  16.216   1.110   3.319
65068W        W69029  16.667   3.276   0.830
65069W        W69030  15.975   2.531   3.468
65070W        W69031  16.101   2.769   0.845
65071W        W69032  15.322   1.509   0.104
65072W        W69033  14.661   3.595   7.003
65073W        W69034  15.037   2.488   6.526
65074W        W69035  17.742   2.218   4.296
65075W        W69036  17.872   3.303   6.323
65076W        W69037  15.790   3.294   3.849
65077W        W69038  15.388   1.294   4.996
65078W        W69039  16.379   2.109   4.430
65079W        W69040  16.054   3.201   6.785
65080W        W69041  14.703   0.762   6.748
65081W        W69042  15.465   0.042   6.550
65082W        W69043  17.159   0.430   5.437
65083W        W69044  16.808   1.301   4.007
65084W        W69045  17.378   0.735   7.098
65085W        W69046  14.744   0.527   6.223
65086W        W69047  14.843   3.146   7.244
65087W        W69048  16.365   2.536   3.976
65088W        W69049  14.797   1.319   5.669
65089W        W69050  15.690   1.210   6.906
65090W        W69051  18.149   1.069   5.405
65091W        W69052  17.913   2.112   6.264
65092W        W69053  16.221   1.445   5.291
65093W        W69054  16.767   2.784   5.660
65094W        W69055  15.267   2.218   5.892
65095W        W69056  14.626   1.746   5.463
65096W        W69057  15.662   1.718   6.655
65097W        W69058  17.933   1.501   6.909
65098W        W69059  15.549   2.945   5.354
65099W        W69060  16.670   2.634   6.488
65100W        W69061  15.890   1.274   5.713
65101W        W69062  16.182   2.058   5.356
65102W        W69063  17.179   2.831   7.204
65103W        W69064  16.258   2.151   7.214
65104W        W69065  16.239   1.867   6.692
65105W        W69066  14.648   1.258   7.214
65106W        W69067  17.480   2.793   6.813
65107W        W69068  15.061   0.375   4.811
65108W        W69069  15.588   2.633   5.810
65109W        W69070  18.051   2.416   5.100
65110W        W69071  17.464   0.816   5.667
65111W        W69072  17.749   0.769   3.762
65112W        W69073  18.214   1.570   6.068
65113W        W69074  16.181   3.277   5.821
65114W        W69075  17.955   2.743   4.259
65115W        W69076  15.084   3.529   4.013
65116W        W69077  15.477   3.575   4.689
65117W        W69078  15.274   0.329   6.115
65118W        W69079  17.897   1.347   6.390
65119W        W69080  17.302   1.769   4.849
65120W        W69081  17.268   1.457   3.876
65121W        W69082  16.476   2.601   6.016
65122W        W69083  16.282   0.931   5.215
65123W        W69084  16.882   3.018   6.209
65124W        W69085  17.753   1.809   4.631
65125W        W69086  16.655   0.467   4.647
65126W        W69087  15.312   3.161   4.330
65127W        W69088  14.683   0.660   4.929
65128W        W69089  17.469   1.267   5.403
65129W        W69090  14.927   2.884   5.318
65130W        W69091  16.268   3.234   4.188
65131W        W69092  17.660   1.260   3.652
65132W        W69093  14.683   3.018   5.816
65133W        W69094  15.474   2.590   6.296
65134W        W69095  15.869   0.355   6.008
65135W        W69096  18.098   0.117   5.305
65136W        W69097  15.317   1.989   3.773
65137W        W69098  14.972   1.022   3.952
65138W        W69099  15.034   2.978   4.746
65139W        W69100  16.165   2.461   4.994
65140W        W69101  17.497   3.320   6.708
65141W        W69102  16.423   0.962   4.392
65142W        W69103  17.806   3.360   5.164
65143W        W69104  17.483   1.213   6.762
65144W        W69105  18.196   2.869   4.896
65145W        W69106  16.823   2.161   6.380
65146W        W69107  14.589   1.712   4.586
65147W        W69108  15.700   2.127   6.159
65148W        W69109  16.904   1.391   4.537
65149W        W69110  16.781   1.881   4.641
65150W        W69111  15.124   1.301   6.115
65151W        W69112  15.109   1.177   7.037
65152W        W69113  14.999   0.094   5.196
65153W        W69114  16.767   0.441   5.757
65154W        W69115  16.415   0.626   6.920
65155W        W69116  16.770   0.775   4.098
65156W        W69117  17.953   3.168   6.852
65157W        W69118  16.920   0.249   6.891
65158W        W69119  17.939   2.550   7.013
65159W        W69120  17.369   0.717   6.609
65160W        W69121  17.169   0.655   4.879
65161W        W69122  17.562   1.789   7.283
65162W        W69123  15.302   3.365   5.269
65163W        W69124  15.960   1.082   4.255
65164W        W69125  15.529   0.366   6.919
65165W        W69126  17.581   0.850   4.600
65166W        W69127  17.948   1.332   4.545
65167W        W69128  15.691   3.549   7.016
65168W        W69129  15.617   0.085   4.251
65169W        W69130  17.938   0.619   5.286
65170W        W69131  18.088   2.868   3.731
65171W        W69132  14.995   2.071   5.433
65172W        W69133  16.912   0.658   3.663
65173W        W69134  18.046   2.990   5.383
65174W        W69135  18.085   0.184   6.133
65175W        W69136  16.530   1.396   6.687
65176W        W69137  16.623   2.735   4.390
65177W        W69138  17.023   2.029   7.130
65178W        W69139  16.697   0.006   5.439
65179W        W69140  15.309   0.909   5.502
65180W        W69141  14.863   2.109   6.276
65181W        W69142  16.722   3.302   4.982
65182W        W69143  17.916   0.899   5.854
65183W        W69144  16.553   3.246   6.621
65184W        W69145  17.896   2.305   3.826
65185W        W69146  16.331   1.788   4.887
65186W        W69147  18.183   0.299   6.628
65187W        W69148  16.332   2.134   6.222
65188W        W69149  16.549   1.020   5.667
65189W        W69150  17.401   1.318   4.505
65190W        W69151  17.688   1.051   4.147
65191W        W69152  17.497   3.091   4.536
65192W        W69153  17.331   2.694   5.332
65193W        W69154  17.227   1.773   4.310
65194W        W69155  16.660   1.983   5.296
65195W        W69156  17.541   1.771   5.363
65196W        W69157  14.916   0.786   5.787
65197W        W69158  17.694   1.838   6.614
65198W        W69159  18.045   3.456   5.760
65199W        W69160  15.975   2.900   5.162
65200W        W69161  16.982   3.433   6.486
65201W        W69162  16.976   0.763   6.250
65202W        W69163  16.183   3.471   6.311
65203W        W69164  17.880   0.425   4.777
65204W        W69165  17.671   1.744   6.078
65205W        W69166  14.654   1.065   6.116
65206W        W69167  17.514   0.860   5.134
65207W        W69168  17.925   1.011   6.911
65208W        W69169  16.810   2.710   5.129
65209W        W69170  16.066   3.301   4.742
65210W        W69171  15.181   0.481   4.000
65211W        W69172  16.285   0.135   5.810
65212W        W69173  15.313   3.255   3.658
65213W        W69174  16.341   2.350   6.722
65214W        W69175  16.171   0.708   4.712
65215W        W69176  17.527   0.305   5.140
65216W        W69177  17.247   3.587   5.468
65217W        W69178  16.659   3.235   5.808
65218W        W69179  16.055   2.272   5.769
65219W        W69180  17.825   2.995   5.895
65220W        W69181  15.519   0.498   4.664
65221W        W69182  16.041   2.795   5.624
65222W        W69183  15.524   0.726   3.689
65223W        W69184  16.325   1.335   6.083
65224W        W69185  17.173   0.201   5.953
65225W        W69186  14.593   2.044   5.838
65226W        W69187  16.297   1.862   3.996
65227W        W69188  15.565   0.177   3.766
65228W        W69189  16.303   1.258   4.817
65229W        W69190  17.273   0.234   6.516
65230W        W69191  15.861   2.246   6.625
65231W        W69192  16.665   2.028   6.842
65232W        W69193  17.282   2.058   6.735
65233W        W69194  16.566   0.198   7.240
65234W        W69195  15.788   0.814   5.633
65235W        W69196  15.214   0.770   5.031
65236W        W69197  15.000   3.482   4.707
65237W        W69198  16.332   2.812   6.832
65238W        W69199  15.367   2.297   4.191
65239W        W69200  17.047   1.682   5.412
65240W        W69201  17.327   1.481   5.811
65241W        W69202  16.532   2.155   5.745
65242W        W69203  17.002   2.529   3.877
65243W        W69204  16.674   0.550   5.205
65244W        W69205  18.153   0.828   4.473
65245W        W69206  14.647   3.417   6.504
65246W        W69207  15.064   2.643   6.036
65247W        W69208  14.631   3.489   4.268
65248W        W69209  16.530   0.759   6.074
65249W        W69210  15.893   2.782   3.923
65250W        W69211  17.798   3.164   4.109
65251W        W69212  16.773   1.817   4.123
65252W        W69213  15.616   1.008   4.640
65253W        W69214  16.448   0.918   3.692
65254W        W69215  17.032   2.483   6.870
65255W        W69216  17.385   0.389   4.487
65256W        W69217  14.715   0.237   3.935
65257W        W69218  16.001   2.556   6.225
65258W        W69219  15.800   2.472   5.317
65259W        W69220  15.542   2.424   3.715
65260W        W69221  14.783   2.665   4.483
65261W        W69222  15.287   1.735   6.925
65262W        W69223  15.991   0.295   7.111
65263W        W69224  16.700   0.437   6.467
65264W        W69225  15.895   0.205   4.748
65265W        W69226  16.954   0.282   4.253
65266W        W69227  14.899   0.214   5.830
65267W        W69228  14.947   1.177   5.200
65268W        W69229  17.636   0.285   5.606
65269W        W69230  15.058   0.783   4.420
65270W        W69231  17.629   0.471   6.036
65271W        W69232  18.025   1.674   3.721
65272W        W69233  15.317   0.432   5.540
65273W        W69234  16.431   1.004   6.480
65274W        W69235  14.579   0.694   3.958
65275W        W69236  15.365   2.083   6.519
65276W        W69237  16.723   1.481   5.698
65277W        W69238  16.590   3.560   3.994
65278W        W69239  14.736   2.067   3.691
65279W        W69240  15.471   2.478   6.817
65280W        W69241  14.992   1.645   6.448
65281W        W69242  15.983   1.750   6.242
65282W        W69243  17.751   0.109   6.504
65283W        W69244  18.149   1.719   6.495
65284W        W69245  18.137   1.919   4.181
65285W        W69246  17.000   2.251   4.280
65286W        W69247  17.474   3.551   3.975
65287W        W69248  16.651   1.541   7.117
65288W        W69249  14.981   2.508   7.157
65289W        W69250  18.187   0.430   7.109
65290W        W69251  17.905   1.358   5.730
65291W        W69252  16.213   3.488   7.207
65292W        W69253  16.068   0.117   3.934
65293W        W69254  17.607   2.716   3.877
65294W        W69255  15.376   0.809   6.763
65295W        W69256  15.810   2.803   6.625
65296W        W69257  17.936   0.794   6.423
65297W        W69258  17.147   3.453   4.391
65298W        W69259  17.386   2.072   5.758
65299W        W69260  15.636   0.488   6.425
65300W        W69261  16.105   1.557   7.182
65301W        W69262  15.608   2.736   4.376
65302W        W69263  17.363   2.234   4.640
65303W        W69264  15.131   0.860   6.364
65304W        W69265  16.460   2.922   4.828
65305W        W69266  18.210   1.482   5.009
65306W        W69267  16.432   0.115   6.728
65307W        W69268  17.212   2.820   5.807
65308W        W69269  17.515   3.164   5.515
65309W        W69270  16.734   2.966   3.943
65310W        W69271  14.744   2.858   6.785
65311W        W69272  15.487   0.850   6.023
65312W        W69273  15.457   0.198   5.133
65313W        W69274  17.078   1.040   5.825
65314W        W69275  15.876   2.211   4.025
65315W        W69276  17.874   2.153   5.524
65316W        W69277  15.201   2.911   6.947
65317W        W69278  17.588   3.593   4.744
65318W        W69279  15.687   0.613   5.189
65319W        W69280  15.456   2.106   5.279
65320W        W69281  15.769   3.517   6.029
65321W        W69282  17.836   3.613   7.061
65322W        W69283  16.995   1.801   5.994
65323W        W69284  14.844   1.599   3.909
65324W        W69285  17.978   3.257   4.606
65325W        W69286  17.815   0.581   4.225
65326W        W69287  15.954   0.100   6.628
65327W        W69288  17.660   2.902   5.086
65328W        W69289  17.689   1.458   4.991
65329W        W69290  15.806   1.131   5.207
65330W        W69291  16.051   1.393   6.531
65331W        W69292  17.162   2.546   6.394
65332W        W69293  15.812   1.000   6.506
65333W        W69294  15.791   3.466   5.122
65334W        W69295  15.108   3.425   6.756
65335W        W69296  15.220   2.786   3.886
65336W        W69297  17.737   2.544   4.696
65337W        W69298  15.341   1.336   6.582
65338W        W69299  18.114   1.266   4.063
65339W        W69300  15.859   2.323   4.534
65340W        W69301  16.958   1.705   6.615
65341W        W69302  16.849   1.333   6.159
65342W        W69303  15.409   1.705   6.188
65343W        W69304  17.619   3.593   6.017
65344W        W69305  17.410   0.227   7.011
65345W        W69306  15.074   0.377   6.598
65346W        W69307  15.413   1.400   5.651
65347W        W69308  15.782   1.214   3.773
65348W        W69309  14.585   2.973   6.318
65349W        W69310  16.170   1.682   5.761
65350W        W69311  15.993   0.707   3.866
65351W        W69312  15.128   1.523   4.647
65352W        W69313  14.899   3.375   6.084
65353W        W69314  17.694   1.601   4.192
65354W        W69315  17.789   0.517   6.878
65355W        W69316  17.225   2.726   4.841
65356W        W69317  14.823   1.650   7.018
65357W        W69318  17.789   0.114   4.314
65358W        W69319  17.309   2.589   4.325
65359W        W69320  16.211   1.647   4.410
65360W        W69321  17.398   0.451   3.933
65361W        W69322  17.463   1.058   6.119
65362W        W69323  15.172   1.651   5.326
65363W        W69324  15.466   2.590   4.975
65364W        W69325  17.229   1.210   4.940
65365W        W69326  16.252   0.589   5.636
65366W        W69327  18.214   2.500   6.147
65367W        W69328  18.132   0.487   5.708
65368W        W69329  14.671   3.317   5.084
65369W        W69330  15.180   2.504   4.620
65370W        W69331  15.095   0.121   7.173
65371W        W69332  16.214   2.974   7.275
65372W        W69333  17.969   1.942   5.065
65373W        W69334  17.323   2.119   3.945
65374W        W69335  16.618   3.640   6.157
65375W        W69336  17.475   2.362   7.194
65376W        W69337  16.290   0.072   4.474
65377W        W69338  17.003   0.941   5.333
65378W        W69339  14.689   2.528   5.665
65379W        W69340  15.942   0.490   4.306
65380W        W69341  15.746   1.974   7.155
65381W        W69342  16.740   0.955   4.869
65382W        W69343  16.945   2.365   5.991
65383W        W69344  15.099   2.970   6.426
65384W        W69345  15.690   2.953   7.149
65385W        W69346  15.541   0.750   4.163
65386W        W69347  17.058   0.892   4.488
65387W        W69348  17.016   3.000   6.725
65388W        W69349  15.701   1.592   5.324
65389W        W69350  15.356   3.290   6.189
65390W        W69351  18.101   3.407   3.790
65391W        W69352  14.964   2.079   6.786
65392W        W69353  16.959   2.341   5.474
65393W        W69354  15.395   1.990   4.716
65394W        W69355  15.766   2.997   6.111
65395W        W69356  16.144   0.416   5.152
65396W        W69357  14.755   2.400   4.082
65397W        W69358  16.274   1.351   3.952
65398W        W69359  14.920   1.900   4.971
65399W        W69360  16.210   0.542   6.435
65400W        W69361  17.882   0.251   3.862
65401W        W69362  17.975   1.997   6.961
65402W        W69363  16.629   3.254   7.113
65403W        W69364  18.187   2.348   6.635
65404W        W69365  17.595   3.146   7.246
65405W        W69366  15.334   3.602   5.724
65406W        W69367  18.193   2.224   4.598
65407W        W69368  16.723   1.491   5.111
65408W        W69369  16.490   0.103   5.001
65409W        W69370  15.549   3.087   4.838
65410W        W69371  16.048   0.828   6.063
65411W        W69372  15.748   0.197   5.532
65412W        W69373  14.811   3.019   4.080
65413W        W69374  16.627   2.383   4.798
65414W        W69375  15.502   3.178   6.677
65415W        W69376  14.864   0.544   5.372
65416W        W69377  16.412   2.509   5.429
65417W        W69378  14.664   0.363   4.449
65418W        W69379  17.328   1.569   6.376
65419W        W69380  17.205   0.955   3.948
65420W        W69381  17.722   2.627   5.596
65421W        W69382  16.383   3.111   5.427
65422W        W69383  15.795   3.215   4.338
65423W        W69384  17.077   0.118   3.768
65424W        W69385  14.877   3.378   5.509
65425W        W69386  17.074   1.136   7.144
65426W        W69387  15.057   0.666   7.143
65427W        W69388  14.788   1.266   4.476
65428W        W69389  15.479   1.255   4.201
65429W        W69390  17.242   1.582   7.018
65430W        W69391  15.585   1.863   5.727
65431W        W69392  17.059   0.149   4.847
65432W        W69393  16.190   3.580   5.350
65433W        W69394  17.404   3.042   6.287
65434W        W69395  16.988   3.191   5.398
65435W        W69396  17.007   2.171   4.992
65436W        W69397  16.469   0.396   4.063
65437W        W69398  18.150   0.024   4.785
65438W        W69399  18.004   0.996   4.938
65439W        W69400  16.696   2.166   3.815
65440W        W69401  17.632   2.366   6.563
65441W        W69402  17.286   3.067   4.030
65442W        W69403  15.901   0.742   6.936
65443W        W69404  15.721   1.326   6.177
65444W        W69405  17.813   2.821   6.454
65445W        W69406  16.913   0.771   6.831
65446W        W69407  14.757   1.242   6.608
65447W        W69408  16.517   1.719   6.334
65448W        W69409  14.874   2.477   4.991
65449W        W69410  15.021   1.774   5.881
65450W        W69411  17.338   2.060   6.231
65451W        W69412  17.110   3.440   7.042
65452W        W69413  17.006   1.179   6.595
65453W        W69414  17.283   3.233   5.000
65454W        W69415  16.285   2.953   6.323
65455W        W69416  15.770   3.308   5.592
65456W        W69417  17.575   2.479   6.011
65457W        W69418  16.625   2.551   7.148
65458W        W69419  15.230   2.504   5.487
65459W        W69420  17.576   2.263   5.132
65460W        W69421  17.217   3.329   5.883
65461W        W69422  15.195   3.058   5.753
65462W        W69423  16.216   1.110   6.963
65463W        W69424  16.667   3.276   4.474
65464W        W69425  15.975   2.531   7.112
65465W        W69426  16.101   2.769   4.489
65466W        W69427  15.322   1.509   3.748
65467W        W69428  14.661   3.595  10.648
65468W        W69429  15.037   2.488  10.171
65469W        W69430  17.742   2.218   7.941
65470W        W69431  17.872   3.303   9.968
65471W        W69432  15.790   3.294   7.494
65472W        W69433  15.873   1.446   8.477
65473W        W69434  15.388   1.294   8.641
65474W        W69435  16.379   2.109   8.075
65475W        W69436  16.054   3.201  10.430
65476W        W69437  14.703   0.762  10.393
65477W        W69438  15.465   0.042  10.195
65478W        W69439  17.159   0.430   9.082
65479W        W69440  16.808   1.301   7.652
65480W        W69441  17.378   0.735  10.743
65481W        W69442  14.744   0.527   9.868
65482W        W69443  14.843   3.146  10.889
65483W        W69444  16.365   2.536   7.621
65484W        W69445  14.797   1.319   9.314
65485W        W69446  15.690   1.210  10.551
65486W        W69447  18.149   1.069   9.050
65487W        W69448  17.913   2.112   9.909
65488W        W69449  16.221   1.445   8.936
65489W        W69450  16.767   2.784   9.305
65490W        W69451  15.267   2.218   9.537
65491W        W69452  14.626   1.746   9.108
65492W        W69453  15.662   1.718  10.300
65493W        W69454  17.933   1.501  10.554
65494W        W69455  15.549   2.945   8.999
65495W        W69456  16.670   2.634  10.133
65496W        W69457  15.890   1.274   9.358
65497W        W69458  16.182   2.058   9.001
65498W        W69459  17.179   2.831  10.849
65499W        W69460  16.258   2.151  10.859
65500W        W69461  16.239   1.867  10.337
65501W        W69462  14.648   1.258  10.859
65502W        W69463  17.480   2.793  10.458
65503W        W69464  15.061   0.375   8.456
65504W        W69465  15.588   2.633   9.455
65505W        W69466  18.051   2.416   8.745
65506W        W69467  17.464   0.816   9.312
65507W        W69468  17.749   0.769   7.407
65508W        W69469  18.214   1.570   9.713
65509W        W69470  16.181   3.277   9.466
65510W        W69471  17.955   2.743   7.904
65511W        W69472  15.084   3.529   7.658
65512W        W69473  15.477   3.575   8.334
65513W        W69474  15.274   0.329   9.760
65514W        W69475  17.897   1.347  10.035
65515W        W69476  17.302   1.769   8.494
65516W        W69477  17.268   1.457   7.521
65517W        W69478  16.476   2.601   9.661
65518W        W69479  16.282   0.931   8.860
65519W        W69480  16.882   3.018   9.854
65520W        W69481  17.753   1.809   8.276
65521W        W69482  16.655   0.467   8.292
65522W        W69483  15.312   3.161   7.975
65523W        W69484  14.683   0.660   8.574
65524W        W69485  17.469   1.267   9.048
65525W        W69486  14.927   2.884   8.963
65526W        W69487  16.268   3.234   7.833
65527W        W69488  17.660   1.260   7.297
65528W        W69489  14.683   3.018   9.461
65529W        W69490  15.474   2.590   9.941
65530W        W69491  15.847   1.950   8.560
65531W        W69492  15.869   0.355   9.653
65532W        W69493  18.098   0.117   8.950
65533W        W69494  15.317   1.989   7.418
65534W        W69495  14.972   1.022   7.597
65535W        W69496  15.034   2.978   8.391
65536W        W69497  16.165   2.461   8.639
65537W        W69498  17.497   3.320  10.353
65538W        W69499  16.423   0.962   8.037
65539W        W69500  17.806   3.360   8.809
65540W        W69501  17.483   1.213  10.407
65541W        W69502  18.196   2.869   8.541
65542W        W69503  16.823   2.161  10.025
65543W        W69504  14.589   1.712   8.231
65544W        W69505  15.700   2.127   9.804
65545W        W69506  16.904   1.391   8.182
65546W        W69507  16.781   1.881   8.286
65547W        W69508  15.124   1.301   9.760
65548W        W69509  15.109   1.177  10.682
65549W        W69510  14.999   0.094   8.841
65550W        W69511  16.767   0.441   9.402
65551W        W69512  16.415   0.626  10.565
65552W        W69513  16.770   0.775   7.743
65553W        W69514  17.953   3.168  10.497
65554W        W69515  16.920   0.249  10.536
65555W        W69516  17.939   2.550  10.658
65556W        W69517  17.369   0.717  10.254
65557W        W69518  17.169   0.655   8.524
65558W        W69519  17.562   1.789  10.928
65559W        W69520  15.302   3.365   8.914
65560W        W69521  15.960   1.082   7.900
65561W        W69522  15.529   0.366  10.564
65562W        W69523  17.581   0.850   8.245
65563W        W69524  17.948   1.332   8.190
65564W        W69525  15.691   3.549  10.661
65565W        W69526  15.617   0.085   7.896
65566W        W69527  17.938   0.619   8.931
65567W        W69528  18.088   2.868   7.376
65568W        W69529  14.995   2.071   9.078
65569W        W69530  16.912   0.658   7.308
65570W        W69531  18.046   2.990   9.028
65571W        W69532  18.085   0.184   9.778
65572W        W69533  16.530   1.396  10.332
65573W        W69534  16.623   2.735   8.035
65574W        W69535  17.023   2.029  10.775
65575W        W69536  16.697   0.006   9.084
65576W        W69537  15.309   0.909   9.147
65577W        W69538  14.863   2.109   9.921
65578W        W69539  16.722   3.302   8.627
65579W        W69540  17.916   0.899   9.499
65580W        W69541  17.896   2.305   7.471
65581W        W69542  16.331   1.788   8.532
65582W        W69543  18.183   0.299  10.273
65583W        W69544  16.332   2.134   9.867
65584W        W69545  16.549   1.020   9.312
65585W        W69546  17.401   1.318   8.150
65586W        W69547  17.688   1.051   7.792
65587W        W69548  17.497   3.091   8.181
65588W        W69549  17.331   2.694   8.977
65589W        W69550  17.227   1.773   7.955
65590W        W69551  16.660   1.983   8.941
65591W        W69552  17.541   1.771   9.008
65592W        W69553  14.916   0.786   9.432
65593W        W69554  17.694   1.838  10.259
65594W        W69555  18.045   3.456   9.405
65595W        W69556  15.975   2.900   8.807
65596W        W69557  16.982   3.433  10.131
65597W        W69558  16.976   0.763   9.895
65598W        W69559  16.183   3.471   9.956
65599W        W69560  17.880   0.425   8.422
65600W        W69561  17.671   1.744   9.723
65601W        W69562  14.654   1.065   9.761
65602W        W69563  17.514   0.860   8.779
65603W        W69564  17.925   1.011  10.556
65604W        W69565  16.810   2.710   8.774
65605W        W69566  16.066   3.301   8.387
65606W        W69567  15.181   0.481   7.645
65607W        W69568  16.285   0.135   9.455
65608W        W69569  15.313   3.255   7.303
65609W        W69570  15.687   1.721   8.054
65610W        W69571  16.341   2.350  10.367
65611W        W69572  16.171   0.708   8.357
65612W        W69573  17.527   0.305   8.785
65613W        W69574  17.247   3.587   9.113
65614W        W69575  16.659   3.235   9.453
65615W        W69576  16.055   2.272   9.414
65616W        W69577  17.825   2.995   9.540
65617W        W69578  15.519   0.498   8.309
65618W        W69579  16.041   2.795   9.269
65619W        W69580  15.524   0.726   7.334
65620W        W69581  16.325   1.335   9.728
65621W        W69582  17.173   0.201   9.598
65622W        W69583  14.593   2.044   9.483
65623W        W69584  16.297   1.862   7.641
65624W        W69585  15.565   0.177   7.411
65625W        W69586  16.303   1.258   8.462
65626W        W69587  17.273   0.234  10.161
65627W        W69588  15.861   2.246  10.270
65628W        W69589  16.665   2.028  10.487
65629W        W69590  17.282   2.058  10.380
65630W        W69591  16.566   0.198  10.885
65631W        W69592  15.788   0.814   9.278
65632W        W69593  15.214   0.770   8.676
65633W        W69594  15.000   3.482   8.352
65634W        W69595  16.332   2.812  10.477
65635W        W69596  15.367   2.297   7.836
65636W        W69597  17.047   1.682   9.057
65637W        W69598  17.327   1.481   9.456
65638W        W69599  16.532   2.155   9.390
65639W        W69600  17.002   2.529   7.522
65640W        W69601  16.674   0.550   8.850
65641W        W69602  18.153   0.828   8.118
65642W        W69603  14.647   3.417  10.149
65643W        W69604  15.064   2.643   9.681
65644W        W69605  14.631   3.489   7.913
65645W        W69606  16.530   0.759   9.719
65646W        W69607  15.893   2.782   7.568
65647W        W69608  17.798   3.164   7.754
65648W        W69609  16.773   1.817   7.768
65649W        W69610  15.616   1.008   8.285
65650W        W69611  16.448   0.918   7.337
65651W        W69612  17.032   2.483  10.515
65652W        W69613  17.385   0.389   8.132
65653W        W69614  14.715   0.237   7.580
65654W        W69615  16.001   2.556   9.870
65655W        W69616  15.800   2.472   8.962
65656W        W69617  15.542   2.424   7.360
65657W        W69618  14.783   2.665   8.128
65658W        W69619  15.287   1.735  10.570
65659W        W69620  15.991   0.295  10.756
65660W        W69621  16.700   0.437  10.112
65661W        W69622  15.895   0.205   8.393
65662W        W69623  16.954   0.282   7.898
65663W        W69624  14.899   0.214   9.475
65664W        W69625  14.947   1.177   8.845
65665W        W69626  17.636   0.285   9.251
65666W        W69627  15.058   0.783   8.065
65667W        W69628  17.629   0.471   9.681
65668W        W69629  18.025   1.674   7.366
65669W        W69630  15.317   0.432   9.185
65670W        W69631  16.431   1.004  10.125
65671W        W69632  14.579   0.694   7.603
65672W        W69633  15.365   2.083  10.164
65673W        W69634  16.723   1.481   9.343
65674W        W69635  16.590   3.560   7.639
65675W        W69636  14.736   2.067   7.336
65676W        W69637  15.471   2.478  10.462
65677W        W69638  14.992   1.645  10.093
65678W        W69639  15.983   1.750   9.887
65679W        W69640  17.751   0.109  10.149
65680W        W69641  18.149   1.719  10.140
65681W        W69642  18.137   1.919   7.826
65682W        W69643  17.000   2.251   7.925
65683W        W69644  17.474   3.551   7.620
65684W        W69645  16.651   1.541  10.762
65685W        W69646  14.981   2.508  10.802
65686W        W69647  18.187   0.430  10.754
65687W        W69648  17.905   1.358   9.375
65688W        W69649  16.213   3.488  10.852
65689W        W69650  16.068   0.117   7.579
65690W        W69651  17.607   2.716   7.522
65691W        W69652  15.376   0.809  10.408
65692W        W69653  15.810   2.803  10.270
65693W        W69654  17.936   0.794  10.068
65694W        W69655  17.386   2.072   9.403
65695W        W69656  15.636   0.488  10.070
65696W        W69657  16.105   1.557  10.827
65697W        W69658  15.608   2.736   8.021
65698W        W69659  17.363   2.234   8.285
65699W        W69660  15.131   0.860  10.009
65700W        W69661  16.460   2.922   8.473
65701W        W69662  18.210   1.482   8.654
65702W        W69663  16.432   0.115  10.373
65703W        W69664  17.212   2.820   9.452
65704W        W69665  17.515   3.164   9.160
65705W        W69666  16.734   2.966   7.588
65706W        W69667  14.744   2.858  10.430
65707W        W69668  15.487   0.850   9.668
65708W        W69669  15.457   0.198   8.778
65709W        W69670  17.078   1.040   9.470
65710W        W69671  15.876   2.211   7.670
65711W        W69672  17.874   2.153   9.169
65712W        W69673  15.201   2.911  10.592
65713W        W69674  15.687   0.613   8.834
65714W        W69675  15.456   2.106   8.924
65715W        W69676  15.769   3.517   9.674
65716W        W69677  17.836   3.613  10.706
65717W        W69678  16.995   1.801   9.639
65718W        W69679  14.844   1.599   7.554
65719W        W69680  17.978   3.257   8.251
65720W        W69681  17.815   0.581   7.870
65721W        W69682  15.954   0.100  10.273
65722W        W69683  17.660   2.902   8.731
65723W        W69684  17.689   1.458   8.636
65724W        W69685  15.806   1.131   8.852
65725W        W69686  16.051   1.393  10.176
65726W        W69687  17.162   2.546  10.039
65727W        W69688  15.812   1.000  10.151
65728W        W69689  15.791   3.466   8.767
65729W        W69690  15.108   3.425  10.401
65730W        W69691  15.220   2.786   7.531
65731W        W69692  17.737   2.544   8.341
65732W        W69693  15.341   1.336  10.227
65733W        W69694  18.114   1.266   7.708
65734W        W69695  15.859   2.323   8.179
65735W        W69696  16.958   1.705  10.260
65736W        W69697  16.849   1.333   9.804
65737W        W69698  15.409   1.705   9.833
65738W        W69699  17.619   3.593   9.662
65739W        W69700  17.410   0.227  10.656
65740W        W69701  15.074   0.377  10.243
65741W        W69702  15.413   1.400   9.296
65742W        W69703  15.782   1.214   7.418
65743W        W69704  14.585   2.973   9.963
65744W        W69705  16.170   1.682   9.406
65745W        W69706  15.993   0.707   7.511
65746W        W69707  15.128   1.523   8.292
65747W        W69708  14.899   3.375   9.729
65748W        W69709  17.694   1.601   7.837
65749W        W69710  17.789   0.517  10.523
65750W        W69711  17.225   2.726   8.486
65751W        W69712  14.823   1.650  10.663
65752W        W69713  17.789   0.114   7.959
65753W        W69714  17.309   2.589   7.970
65754W        W69715  16.211   1.647   8.055
65755W        W69716  17.398   0.451   7.578
65756W        W69717  17.463   1.058   9.764
65757W        W69718  15.172   1.651   8.971
65758W        W69719  15.466   2.590   8.620
65759W        W69720  17.229   1.210   8.585
65760W        W69721  16.252   0.589   9.281
65761W        W69722  18.214   2.500   9.792
65762W        W69723  18.132   0.487   9.353
65763W        W69724  14.671   3.317   8.729
65764W        W69725  15.180   2.504   8.265
65765W        W69726  15.095   0.121  10.818
65766W        W69727  16.214   2.974  10.920
65767W        W69728  17.969   1.942   8.710
65768W        W69729  17.323   2.119   7.590
65769W        W69730  17.475   2.362  10.839
65770W        W69731  16.290   0.072   8.119
65771W        W69732  17.003   0.941   8.978
65772W        W69733  14.689   2.528   9.310
65773W        W69734  15.942   0.490   7.951
65774W        W69735  15.746   1.974  10.800
65775W        W69736  16.740   0.955   8.514
65776W        W69737  16.945   2.365   9.636
65777W        W69738  15.099   2.970  10.071
65778W        W69739  15.690   2.953  10.794
65779W        W69740  15.541   0.750   7.808
65780W        W69741  17.058   0.892   8.133
65781W        W69742  17.016   3.000  10.370
65782W        W69743  15.701   1.592   8.969
65783W        W69744  15.356   3.290   9.834
65784W        W69745  18.101   3.407   7.435
65785W        W69746  14.964   2.079  10.431
65786W        W69747  16.959   2.341   9.119
65787W        W69748  15.395   1.990   8.361
65788W        W69749  15.766   2.997   9.756
65789W        W69750  16.144   0.416   8.797
65790W        W69751  14.755   2.400   7.727
65791W        W69752  16.274   1.351   7.597
65792W        W69753  14.920   1.900   8.616
65793W        W69754  16.210   0.542  10.080
65794W        W69755  17.882   0.251   7.507
65795W        W69756  17.975   1.997  10.606
65796W        W69757  16.629   3.254  10.758
65797W        W69758  18.187   2.348  10.280
65798W        W69759  17.595   3.146  10.891
65799W        W69760  15.334   3.602   9.369
65800W        W69761  18.193   2.224   8.243
65801W        W69762  16.723   1.491   8.756
65802W        W69763  16.490   0.103   8.646
65803W        W69764  15.549   3.087   8.483
65804W        W69765  16.048   0.828   9.708
65805W        W69766  15.748   0.197   9.177
65806W        W69767  14.811   3.019   7.725
65807W        W69768  16.627   2.383   8.443
65808W        W69769  15.502   3.178  10.322
65809W        W69770  14.979   2.001   8.018
65810W        W69771  14.864   0.544   9.017
65811W        W69772  16.412   2.509   9.074
65812W        W69773  14.664   0.363   8.094
65813W        W69774  17.328   1.569  10.021
65814W        W69775  17.205   0.955   7.593
65815W        W69776  17.722   2.627   9.241
65816W        W69777  16.383   3.111   9.072
65817W        W69778  15.795   3.215   7.983
65818W        W69779  17.077   0.118   7.413
65819W        W69780  14.877   3.378   9.154
65820W        W69781  17.074   1.136  10.789
65821W        W69782  15.057   0.666  10.788
65822W        W69783  14.788   1.266   8.121
65823W        W69784  15.479   1.255   7.846
65824W        W69785  17.242   1.582  10.663
65825W        W69786  15.585   1.863   9.372
65826W        W69787  17.059   0.149   8.492
65827W        W69788  16.190   3.580   8.995
65828W        W69789  17.404   3.042   9.932
65829W        W69790  16.988   3.191   9.043
65830W        W69791  17.007   2.171   8.637
65831W        W69792  16.469   0.396   7.708
65832W        W69793  18.150   0.024   8.430
65833W        W69794  15.838   1.659   7.593
65834W        W69795  18.004   0.996   8.583
65835W        W69796  16.696   2.166   7.460
65836W        W69797  17.632   2.366  10.208
65837W        W69798  17.286   3.067   7.675
65838W        W69799  15.901   0.742  10.581
65839W        W69800  15.721   1.326   9.822
65840W        W69801  17.813   2.821  10.099
65841W        W69802  16.913   0.771  10.476
65842W        W69803  14.757   1.242  10.253
65843W        W69804  16.517   1.719   9.979
65844W        W69805  14.874   2.477   8.636
65845W        W69806  15.021   1.774   9.526
65846W        W69807  17.338   2.060   9.876
65847W        W69808  17.110   3.440  10.687
65848W        W69809  17.006   1.179  10.240
65849W        W69810  17.283   3.233   8.645
65850W        W69811  16.285   2.953   9.968
65851W        W69812  15.770   3.308   9.237
65852W        W69813  17.575   2.479   9.656
65853W        W69814  16.625   2.551  10.793
65854W        W69815  15.230   2.504   9.132
65855W        W69816  17.576   2.263   8.777
65856W        W69817  17.217   3.329   9.528
65857W        W69818  15.195   3.058   9.398
65858W        W69819  16.216   1.110  10.608
65859W        W69820  16.667   3.276   8.119
65860W        W69821  15.975   2.531  10.757
65861W        W69822  16.101   2.769   8.134
65862W        W69823  15.322   1.509   7.393
65863W        W69824  14.661   3.595  14.292
65864W        W69825  15.037   2.488  13.815
65865W        W69826  17.742   2.218  11.585
65866W        W69827  17.872   3.303  13.612
65867W        W69828  15.790   3.294  11.138
65868W        W69829  15.873   1.446  12.121
65869W        W69830  15.388   1.294  12.285
65870W        W69831  16.379   2.109  11.719
65871W        W69832  16.054   3.201  14.074
65872W        W69833  14.703   0.762  14.037
65873W        W69834  15.465   0.042  13.839
65874W        W69835  17.159   0.430  12.726
65875W        W69836  16.808   1.301  11.296
65876W        W69837  17.378   0.735  14.387
65877W        W69838  14.744   0.527  13.512
65878W        W69839  14.843   3.146  14.533
65879W        W69840  16.365   2.536  11.265
65880W        W69841  14.797   1.319  12.958
65881W        W69842  15.690   1.210  14.195
65882W        W69843  18.149   1.069  12.694
65883W        W69844  17.913   2.112  13.553
65884W        W69845  16.221   1.445  12.580
65885W        W69846  16.767   2.784  12.949
65886W        W69847  15.267   2.218  13.181
65887W        W69848  14.626   1.746  12.752
65888W        W69849  15.662   1.718  13.944
65889W        W69850  17.933   1.501  14.198
65890W        W69851  15.549   2.945  12.643
65891W        W69852  16.670   2.634  13.777
65892W        W69853  15.890   1.274  13.002
65893W        W69854  16.182   2.058  12.645
65894W        W69855  17.179   2.831  14.493
65895W        W69856  16.258   2.151  14.503
65896W        W69857  16.239   1.867  13.981
65897W        W69858  14.648   1.258  14.503
65898W        W69859  17.480   2.793  14.102
65899W        W69860  15.061   0.375  12.100
65900W        W69861  15.588   2.633  13.099
65901W        W69862  18.051   2.416  12.389
65902W        W69863  17.464   0.816  12.956
65903W        W69864  17.749   0.769  11.051
65904W        W69865  18.214   1.570  13.357
65905W        W69866  16.181   3.277  13.110
65906W        W69867  17.955   2.743  11.548
65907W        W69868  15.084   3.529  11.302
65908W        W69869  15.477   3.575  11.978
65909W        W69870  15.274   0.329  13.404
65910W        W69871  17.897   1.347  13.679
65911W        W69872  17.302   1.769  12.138
65912W        W69873  17.268   1.457  11.165
65913W        W69874  16.476   2.601  13.305
65914W        W69875  16.282   0.931  12.504
65915W        W69876  16.882   3.018  13.498
65916W        W69877  17.753   1.809  11.920
65917W        W69878  16.655   0.467  11.936
65918W        W69879  15.312   3.161  11.619
65919W        W69880  14.683   0.660  12.218
65920W        W69881  17.469   1.267  12.692
65921W        W69882  14.927   2.884  12.607
65922W        W69883  16.268   3.234  11.477
65923W        W69884  17.660   1.260  10.941
65924W        W69885  14.683   3.018  13.105
65925W        W69886  15.474   2.590  13.585
65926W        W69887  15.847   1.950  12.204
65927W        W69888  15.869   0.355  13.297
65928W        W69889  18.098   0.117  12.594
65929W        W69890  15.317   1.989  11.062
65930W        W69891  14.972   1.022  11.241
65931W        W69892  15.034   2.978  12.035
65932W        W69893  16.165   2.461  12.283
65933W        W69894  17.497   3.320  13.997
65934W        W69895  16.423   0.962  11.681
65935W        W69896  17.806   3.360  12.453
65936W        W69897  17.483   1.213  14.051
65937W        W69898  18.196   2.869  12.185
65938W        W69899  16.823   2.161  13.669
65939W        W69900  14.589   1.712  11.875
65940W        W69901  15.700   2.127  13.448
65941W        W69902  16.904   1.391  11.826
65942W        W69903  16.781   1.881  11.930
65943W        W69904  15.124   1.301  13.404
65944W        W69905  15.109   1.177  14.326
65945W        W69906  14.999   0.094  12.485
65946W        W69907  16.767   0.441  13.046
65947W        W69908  16.415   0.626  14.209
65948W        W69909  16.770   0.775  11.387
65949W        W69910  17.953   3.168  14.141
65950W        W69911  16.920   0.249  14.180
65951W        W69912  17.939   2.550  14.302
65952W        W69913  17.369   0.717  13.898
65953W        W69914  17.169   0.655  12.168
65954W        W69915  17.562   1.789  14.572
65955W        W69916  15.302   3.365  12.558
65956W        W69917  15.960   1.082  11.544
65957W        W69918  15.529   0.366  14.208
65958W        W69919  17.581   0.850  11.889
65959W        W69920  17.948   1.332  11.834
65960W        W69921  15.691   3.549  14.305
65961W        W69922  15.617   0.085  11.540
65962W        W69923  17.938   0.619  12.575
65963W        W69924  18.088   2.868  11.020
65964W        W69925  14.995   2.071  12.722
65965W        W69926  16.912   0.658  10.952
65966W        W69927  18.046   2.990  12.672
65967W        W69928  18.085   0.184  13.422
65968W        W69929  16.530   1.396  13.976
65969W        W69930  16.623   2.735  11.679
65970W        W69931  17.023   2.029  14.419
65971W        W69932  16.697   0.006  12.728
65972W        W69933  15.309   0.909  12.791
65973W        W69934  14.863   2.109  13.565
65974W        W69935  16.722   3.302  12.271
65975W        W69936  17.916   0.899  13.143
65976W        W69937  16.553   3.246  13.910
65977W        W69938  17.896   2.305  11.115
65978W        W69939  16.331   1.788  12.176
65979W        W69940  18.183   0.299  13.917
65980W        W69941  16.332   2.134  13.511
65981W        W69942  16.549   1.020  12.956
65982W        W69943  17.401   1.318  11.794
65983W        W69944  17.688   1.051  11.436
65984W        W69945  17.497   3.091  11.825
65985W        W69946  17.331   2.694  12.621
65986W        W69947  17.227   1.773  11.599
65987W        W69948  16.660   1.983  12.585
65988W        W69949  17.541   1.771  12.652
65989W        W69950  14.916   0.786  13.076
65990W        W69951  17.694   1.838  13.903
65991W        W69952  18.045   3.456  13.049
65992W        W69953  15.975   2.900  12.451
65993W        W69954  16.982   3.433  13.775
65994W        W69955  16.976   0.763  13.539
65995W        W69956  16.183   3.471  13.600
65996W        W69957  17.880   0.425  12.066
65997W        W69958  17.671   1.744  13.367
65998W        W69959  14.654   1.065  13.405
65999W        W69960  17.514   0.860  12.423
66000W        W69961  17.925   1.011  14.200
66001W        W69962  16.810   2.710  12.418
66002W        W69963  16.066   3.301  12.031
66003W        W69964  15.181   0.481  11.289
66004W        W69965  16.285   0.135  13.099
66005W        W69966  15.313   3.255  10.947
66006W        W69967  15.687   1.721  11.698
66007W        W69968  16.341   2.350  14.011
66008W        W69969  16.171   0.708  12.001
66009W        W69970  17.527   0.305  12.429
66010W        W69971  17.247   3.587  12.757
66011W        W69972  16.659   3.235  13.097
66012W        W69973  16.055   2.272  13.058
66013W        W69974  17.825   2.995  13.184
66014W        W69975  15.519   0.498  11.953
66015W        W69976  16.041   2.795  12.913
66016W        W69977  15.524   0.726  10.978
66017W        W69978  16.325   1.335  13.372
66018W        W69979  17.173   0.201  13.242
66019W        W69980  14.593   2.044  13.127
66020W        W69981  16.297   1.862  11.285
66021W        W69982  15.565   0.177  11.055
66022W        W69983  16.303   1.258  12.106
66023W        W69984  17.273   0.234  13.805
66024W        W69985  15.861   2.246  13.914
66025W        W69986  16.665   2.028  14.131
66026W        W69987  17.282   2.058  14.024
66027W        W69988  16.566   0.198  14.529
66028W        W69989  15.788   0.814  12.922
66029W        W69990  15.214   0.770  12.320
66030W        W69991  15.000   3.482  11.996
66031W        W69992  16.332   2.812  14.121
66032W        W69993  15.367   2.297  11.480
66033W        W69994  17.047   1.682  12.701
66034W        W69995  17.327   1.481  13.100
66035W        W69996  16.532   2.155  13.034
66036W        W69997  17.002   2.529  11.166
66037W        W69998  16.674   0.550  12.494
66038W        W69999  18.153   0.828  11.762
66039W        W70000  14.647   3.417  13.793
66040W        W70001  15.064   2.643  13.325
66041W        W70002  14.631   3.489  11.557
66042W        W70003  16.530   0.759  13.363
66043W        W70004  15.893   2.782  11.212
66044W        W70005  17.798   3.164  11.398
66045W        W70006  16.773   1.817  11.412
66046W        W70007  15.616   1.008  11.929
66047W        W70008  16.448   0.918  10.981
66048W        W70009  17.032   2.483  14.159
66049W        W70010  17.385   0.389  11.776
66050W        W70011  14.715   0.237  11.224
66051W        W70012  16.001   2.556  13.514
66052W        W70013  15.800   2.472  12.606
66053W        W70014  15.542   2.424  11.004
66054W        W70015  14.783   2.665  11.772
66055W        W70016  15.287   1.735  14.214
66056W        W70017  15.991   0.295  14.400
66057W        W70018  16.700   0.437  13.756
66058W        W70019  15.895   0.205  12.037
66059W        W70020  16.954   0.282  11.542
66060W        W70021  14.899   0.214  13.119
66061W        W70022  14.947   1.177  12.489
66062W        W70023  17.636   0.285  12.895
66063W        W70024  15.058   0.783  11.709
66064W        W70025  17.629   0.471  13.325
66065W        W70026  18.025   1.674  11.010
66066W        W70027  15.317   0.432  12.829
66067W        W70028  16.431   1.004  13.769
66068W        W70029  14.579   0.694  11.247
66069W        W70030  15.365   2.083  13.808
66070W        W70031  16.723   1.481  12.987
66071W        W70032  16.590   3.560  11.283
66072W        W70033  14.736   2.067  10.980
66073W        W70034  15.471   2.478  14.106
66074W        W70035  14.992   1.645  13.737
66075W        W70036  15.983   1.750  13.531
66076W        W70037  17.751   0.109  13.793
66077W        W70038  18.149   1.719  13.784
66078W        W70039  18.137   1.919  11.470
66079W        W70040  17.000   2.251  11.569
66080W        W70041  17.474   3.551  11.264
66081W        W70042  16.651   1.541  14.406
66082W        W70043  14.981   2.508  14.446
66083W        W70044  18.187   0.430  14.398
66084W        W70045  17.905   1.358  13.019
66085W        W70046  16.213   3.488  14.496
66086W        W70047  16.068   0.117  11.223
66087W        W70048  17.607   2.716  11.166
66088W        W70049  15.376   0.809  14.052
66089W        W70050  15.810   2.803  13.914
66090W        W70051  17.936   0.794  13.712
66091W        W70052  17.147   3.453  11.680
66092W        W70053  17.386   2.072  13.047
66093W        W70054  15.636   0.488  13.714
66094W        W70055  16.105   1.557  14.471
66095W        W70056  15.608   2.736  11.665
66096W        W70057  17.363   2.234  11.929
66097W        W70058  15.131   0.860  13.653
66098W        W70059  16.460   2.922  12.117
66099W        W70060  18.210   1.482  12.298
66100W        W70061  16.432   0.115  14.017
66101W        W70062  17.212   2.820  13.096
66102W        W70063  17.515   3.164  12.804
66103W        W70064  16.734   2.966  11.232
66104W        W70065  14.744   2.858  14.074
66105W        W70066  15.487   0.850  13.312
66106W        W70067  15.457   0.198  12.422
66107W        W70068  17.078   1.040  13.114
66108W        W70069  15.876   2.211  11.314
66109W        W70070  17.874   2.153  12.813
66110W        W70071  15.201   2.911  14.236
66111W        W70072  17.588   3.593  12.033
66112W        W70073  15.687   0.613  12.478
66113W        W70074  15.456   2.106  12.568
66114W        W70075  15.769   3.517  13.318
66115W        W70076  17.836   3.613  14.350
66116W        W70077  16.995   1.801  13.283
66117W        W70078  14.844   1.599  11.198
66118W        W70079  17.978   3.257  11.895
66119W        W70080  17.815   0.581  11.514
66120W        W70081  15.954   0.100  13.917
66121W        W70082  17.660   2.902  12.375
66122W        W70083  17.689   1.458  12.280
66123W        W70084  15.806   1.131  12.496
66124W        W70085  16.051   1.393  13.820
66125W        W70086  17.162   2.546  13.683
66126W        W70087  15.812   1.000  13.795
66127W        W70088  15.791   3.466  12.411
66128W        W70089  15.108   3.425  14.045
66129W        W70090  15.220   2.786  11.175
66130W        W70091  17.737   2.544  11.985
66131W        W70092  15.341   1.336  13.871
66132W        W70093  18.114   1.266  11.352
66133W        W70094  15.859   2.323  11.823
66134W        W70095  16.958   1.705  13.904
66135W        W70096  16.849   1.333  13.448
66136W        W70097  15.409   1.705  13.477
66137W        W70098  17.619   3.593  13.306
66138W        W70099  17.410   0.227  14.300
66139W        W70100  15.074   0.377  13.887
66140W        W70101  15.413   1.400  12.940
66141W        W70102  15.782   1.214  11.062
66142W        W70103  14.585   2.973  13.607
66143W        W70104  16.170   1.682  13.050
66144W        W70105  15.993   0.707  11.155
66145W        W70106  15.128   1.523  11.936
66146W        W70107  14.899   3.375  13.373
66147W        W70108  17.694   1.601  11.481
66148W        W70109  17.789   0.517  14.167
66149W        W70110  17.225   2.726  12.130
66150W        W70111  14.823   1.650  14.307
66151W        W70112  17.789   0.114  11.603
66152W        W70113  17.309   2.589  11.614
66153W        W70114  16.211   1.647  11.699
66154W        W70115  17.398   0.451  11.222
66155W        W70116  17.463   1.058  13.408
66156W        W70117  15.172   1.651  12.615
66157W        W70118  15.466   2.590  12.264
66158W        W70119  17.229   1.210  12.229
66159W        W70120  16.252   0.589  12.925
66160W        W70121  18.214   2.500  13.436
66161W        W70122  18.132   0.487  12.997
66162W        W70123  14.671   3.317  12.373
66163W        W70124  15.180   2.504  11.909
66164W        W70125  15.095   0.121  14.462
66165W        W70126  16.214   2.974  14.564
66166W        W70127  17.969   1.942  12.354
66167W        W70128  17.323   2.119  11.234
66168W        W70129  16.618   3.640  13.446
66169W        W70130  17.475   2.362  14.483
66170W        W70131  16.290   0.072  11.763
66171W        W70132  17.003   0.941  12.622
66172W        W70133  14.689   2.528  12.954
66173W        W70134  15.942   0.490  11.595
66174W        W70135  15.746   1.974  14.444
66175W        W70136  16.740   0.955  12.158
66176W        W70137  16.945   2.365  13.280
66177W        W70138  15.099   2.970  13.715
66178W        W70139  15.690   2.953  14.438
66179W        W70140  15.541   0.750  11.452
66180W        W70141  17.058   0.892  11.777
66181W        W70142  17.016   3.000  14.014
66182W        W70143  15.701   1.592  12.613
66183W        W70144  15.356   3.290  13.478
66184W        W70145  18.101   3.407  11.079
66185W        W70146  14.964   2.079  14.075
66186W        W70147  16.959   2.341  12.763
66187W        W70148  15.395   1.990  12.005
66188W        W70149  15.766   2.997  13.400
66189W        W70150  16.144   0.416  12.441
66190W        W70151  14.755   2.400  11.371
66191W        W70152  16.274   1.351  11.241
66192W        W70153  14.920   1.900  12.260
66193W        W70154  16.210   0.542  13.724
66194W        W70155  17.882   0.251  11.151
66195W        W70156  17.975   1.997  14.250
66196W        W70157  16.629   3.254  14.402
66197W        W70158  18.187   2.348  13.924
66198W        W70159  17.595   3.146  14.535
66199W        W70160  15.334   3.602  13.013
66200W        W70161  18.193   2.224  11.887
66201W        W70162  16.723   1.491  12.400
66202W        W70163  16.490   0.103  12.290
66203W        W70164  15.549   3.087  12.127
66204W        W70165  16.048   0.828  13.352
66205W        W70166  15.748   0.197  12.821
66206W        W70167  14.811   3.019  11.369
66207W        W70168  16.627   2.383  12.087
66208W        W70169  15.502   3.178  13.966
66209W        W70170  14.979   2.001  11.662
66210W        W70171  14.864   0.544  12.661
66211W        W70172  16.412   2.509  12.718
66212W        W70173  14.664   0.363  11.738
66213W        W70174  17.328   1.569  13.665
66214W        W70175  17.205   0.955  11.237
66215W        W70176  17.722   2.627  12.885
66216W        W70177  16.383   3.111  12.716
66217W        W70178  15.795   3.215  11.627
66218W        W70179  17.077   0.118  11.057
66219W        W70180  14.877   3.378  12.798
66220W        W70181  17.074   1.136  14.433
66221W        W70182  15.057   0.666  14.432
66222W        W70183  14.788   1.266  11.765
66223W        W70184  15.479   1.255  11.490
66224W        W70185  17.242   1.582  14.307
66225W        W70186  15.585   1.863  13.016
66226W        W70187  17.059   0.149  12.136
66227W        W70188  16.190   3.580  12.639
66228W        W70189  17.404   3.042  13.576
66229W        W70190  16.988   3.191  12.687
66230W        W70191  17.007   2.171  12.281
66231W        W70192  16.469   0.396  11.352
66232W        W70193  18.150   0.024  12.074
66233W        W70194  15.838   1.659  11.237
66234W        W70195  18.004   0.996  12.227
66235W        W70196  16.696   2.166  11.104
66236W        W70197  17.632   2.366  13.852
66237W        W70198  17.286   3.067  11.319
66238W        W70199  15.901   0.742  14.225
66239W        W70200  15.721   1.326  13.466
66240W        W70201  17.813   2.821  13.743
66241W        W70202  16.913   0.771  14.120
66242W        W70203  14.757   1.242  13.897
66243W        W70204  16.517   1.719  13.623
66244W        W70205  14.874   2.477  12.280
66245W        W70206  15.021   1.774  13.170
66246W        W70207  17.338   2.060  13.520
66247W        W70208  17.110   3.440  14.331
66248W        W70209  17.006   1.179  13.884
66249W        W70210  17.283   3.233  12.289
66250W        W70211  16.285   2.953  13.612
66251W        W70212  15.770   3.308  12.881
66252W        W70213  17.575   2.479  13.300
66253W        W70214  16.625   2.551  14.437
66254W        W70215  15.230   2.504  12.776
66255W        W70216  17.576   2.263  12.421
66256W        W70217  17.217   3.329  13.172
66257W        W70218  15.195   3.058  13.042
66258W        W70219  16.216   1.110  14.252
66259W        W70220  16.667   3.276  11.763
66260W        W70221  15.975   2.531  14.401
66261W        W70222  16.101   2.769  11.778
66262W        W70223  15.322   1.509  11.037
66263W        W70224  14.661   3.595  17.936
66264W        W70225  15.037   2.488  17.459
66265W        W70226  17.742   2.218  15.229
66266W        W70227  17.872   3.303  17.256
66267W        W70228  15.790   3.294  14.782
66268W        W70229  15.873   1.446  15.765
66269W        W70230  15.388   1.294  15.929
66270W        W70231  16.379   2.109  15.363
66271W        W70232  16.054   3.201  17.718
66272W        W70233  14.703   0.762  17.681
66273W        W70234  15.465   0.042  17.483
66274W        W70235  17.159   0.430  16.370
66275W        W70236  16.808   1.301  14.940
66276W        W70237  17.378   0.735  18.031
66277W        W70238  14.744   0.527  17.156
66278W        W70239  14.843   3.146  18.177
66279W        W70240  16.365   2.536  14.909
66280W        W70241  14.797   1.319  16.602
66281W        W70242  15.690   1.210  17.839
66282W        W70243  18.149   1.069  16.338
66283W        W70244  17.913   2.112  17.197
66284W        W70245  16.221   1.445  16.224
66285W        W70246  16.767   2.784  16.593
66286W        W70247  15.267   2.218  16.825
66287W        W70248  14.626   1.746  16.396
66288W        W70249  15.662   1.718  17.588
66289W        W70250  17.933   1.501  17.842
66290W        W70251  15.549   2.945  16.287
66291W        W70252  16.670   2.634  17.421
66292W        W70253  15.890   1.274  16.646
66293W        W70254  16.182   2.058  16.289
66294W        W70255  17.179   2.831  18.137
66295W        W70256  16.258   2.151  18.147
66296W        W70257  16.239   1.867  17.625
66297W        W70258  14.648   1.258  18.147
66298W        W70259  17.480   2.793  17.746
66299W        W70260  15.061   0.375  15.744
66300W        W70261  15.588   2.633  16.743
66301W        W70262  18.051   2.416  16.033
66302W        W70263  17.464   0.816  16.600
66303W        W70264  17.749   0.769  14.695
66304W        W70265  18.214   1.570  17.001
66305W        W70266  16.181   3.277  16.754
66306W        W70267  17.955   2.743  15.192
66307W        W70268  15.084   3.529  14.946
66308W        W70269  15.477   3.575  15.622
66309W        W70270  15.274   0.329  17.048
66310W        W70271  17.897   1.347  17.323
66311W        W70272  17.302   1.769  15.782
66312W        W70273  17.268   1.457  14.809
66313W        W70274  16.476   2.601  16.949
66314W        W70275  16.282   0.931  16.148
66315W        W70276  16.882   3.018  17.142
66316W        W70277  17.753   1.809  15.564
66317W        W70278  16.655   0.467  15.580
66318W        W70279  15.312   3.161  15.263
66319W        W70280  14.683   0.660  15.862
66320W        W70281  17.469   1.267  16.336
66321W        W70282  14.927   2.884  16.251
66322W        W70283  16.268   3.234  15.121
66323W        W70284  17.660   1.260  14.585
66324W        W70285  14.683   3.018  16.749
66325W        W70286  15.474   2.590  17.229
66326W        W70287  15.847   1.950  15.848
66327W        W70288  15.869   0.355  16.941
66328W        W70289  18.098   0.117  16.238
66329W        W70290  15.317   1.989  14.706
66330W        W70291  14.972   1.022  14.885
66331W        W70292  15.034   2.978  15.679
66332W        W70293  16.165   2.461  15.927
66333W        W70294  17.497   3.320  17.641
66334W        W70295  16.423   0.962  15.325
66335W        W70296  17.806   3.360  16.097
66336W        W70297  17.483   1.213  17.695
66337W        W70298  18.196   2.869  15.829
66338W        W70299  16.823   2.161  17.313
66339W        W70300  14.589   1.712  15.519
66340W        W70301  15.700   2.127  17.092
66341W        W70302  16.904   1.391  15.470
66342W        W70303  16.781   1.881  15.574
66343W        W70304  15.124   1.301  17.048
66344W        W70305  15.109   1.177  17.970
66345W        W70306  14.999   0.094  16.129
66346W        W70307  16.767   0.441  16.690
66347W        W70308  16.415   0.626  17.853
66348W        W70309  16.770   0.775  15.031
66349W        W70310  17.953   3.168  17.785
66350W        W70311  16.920   0.249  17.824
66351W        W70312  17.939   2.550  17.946
66352W        W70313  17.369   0.717  17.542
66353W        W70314  17.169   0.655  15.812
66354W        W70315  17.562   1.789  18.216
66355W        W70316  15.302   3.365  16.202
66356W        W70317  15.960   1.082  15.188
66357W        W70318  15.529   0.366  17.852
66358W        W70319  17.581   0.850  15.533
66359W        W70320  17.948   1.332  15.478
66360W        W70321  15.691   3.549  17.949
66361W        W70322  15.617   0.085  15.184
66362W        W70323  17.938   0.619  16.219
66363W        W70324  18.088   2.868  14.664
66364W        W70325  14.995   2.071  16.366
66365W        W70326  16.912   0.658  14.596
66366W        W70327  18.046   2.990  16.316
66367W        W70328  18.085   0.184  17.066
66368W        W70329  16.530   1.396  17.620
66369W        W70330  16.623   2.735  15.323
66370W        W70331  17.023   2.029  18.063
66371W        W70332  16.697   0.006  16.372
66372W        W70333  15.309   0.909  16.435
66373W        W70334  14.863   2.109  17.209
66374W        W70335  16.722   3.302  15.915
66375W        W70336  17.916   0.899  16.787
66376W        W70337  16.553   3.246  17.554
66377W        W70338  17.896   2.305  14.759
66378W        W70339  16.331   1.788  15.820
66379W        W70340  18.183   0.299  17.561
66380W        W70341  16.332   2.134  17.155
66381W        W70342  16.549   1.020  16.600
66382W        W70343  17.401   1.318  15.438
66383W        W70344  17.688   1.051  15.080
66384W        W70345  17.497   3.091  15.469
66385W        W70346  17.331   2.694  16.265
66386W        W70347  17.227   1.773  15.243
66387W        W70348  16.660   1.983  16.229
66388W        W70349  17.541   1.771  16.296
66389W        W70350  14.916   0.786  16.720
66390W        W70351  17.694   1.838  17.547
66391W        W70352  18.045   3.456  16.693
66392W        W70353  15.975   2.900  16.095
66393W        W70354  16.982   3.433  17.419
66394W        W70355  16.976   0.763  17.183
66395W        W70356  16.183   3.471  17.244
66396W        W70357  17.880   0.425  15.710
66397W        W70358  17.671   1.744  17.011
66398W        W70359  14.654   1.065  17.049
66399W        W70360  17.514   0.860  16.067
66400W        W70361  17.925   1.011  17.844
66401W        W70362  16.810   2.710  16.062
66402W        W70363  16.066   3.301  15.675
66403W        W70364  15.181   0.481  14.933
66404W        W70365  16.285   0.135  16.743
66405W        W70366  15.313   3.255  14.591
66406W        W70367  15.687   1.721  15.342
66407W        W70368  16.341   2.350  17.655
66408W        W70369  16.171   0.708  15.645
66409W        W70370  17.527   0.305  16.073
66410W        W70371  17.247   3.587  16.401
66411W        W70372  16.659   3.235  16.741
66412W        W70373  16.055   2.272  16.702
66413W        W70374  17.825   2.995  16.828
66414W        W70375  15.519   0.498  15.597
66415W        W70376  16.041   2.795  16.557
66416W        W70377  15.524   0.726  14.622
66417W        W70378  16.325   1.335  17.016
66418W        W70379  17.173   0.201  16.886
66419W        W70380  14.593   2.044  16.771
66420W        W70381  16.297   1.862  14.929
66421W        W70382  15.565   0.177  14.699
66422W        W70383  16.303   1.258  15.750
66423W        W70384  17.273   0.234  17.449
66424W        W70385  15.861   2.246  17.558
66425W        W70386  16.665   2.028  17.775
66426W        W70387  17.282   2.058  17.668
66427W        W70388  16.566   0.198  18.173
66428W        W70389  15.788   0.814  16.566
66429W        W70390  15.214   0.770  15.964
66430W        W70391  15.000   3.482  15.640
66431W        W70392  16.332   2.812  17.765
66432W        W70393  15.367   2.297  15.124
66433W        W70394  17.047   1.682  16.345
66434W        W70395  17.327   1.481  16.744
66435W        W70396  16.532   2.155  16.678
66436W        W70397  17.002   2.529  14.810
66437W        W70398  16.674   0.550  16.138
66438W        W70399  18.153   0.828  15.406
66439W        W70400  14.647   3.417  17.437
66440W        W70401  15.064   2.643  16.969
66441W        W70402  14.631   3.489  15.201
66442W        W70403  16.530   0.759  17.007
66443W        W70404  15.893   2.782  14.856
66444W        W70405  17.798   3.164  15.042
66445W        W70406  16.773   1.817  15.056
66446W        W70407  15.616   1.008  15.573
66447W        W70408  16.448   0.918  14.625
66448W        W70409  17.032   2.483  17.803
66449W        W70410  17.385   0.389  15.420
66450W        W70411  14.715   0.237  14.868
66451W        W70412  16.001   2.556  17.158
66452W        W70413  15.800   2.472  16.250
66453W        W70414  15.542   2.424  14.648
66454W        W70415  14.783   2.665  15.416
66455W        W70416  15.287   1.735  17.858
66456W        W70417  15.991   0.295  18.044
66457W        W70418  16.700   0.437  17.400
66458W        W70419  15.895   0.205  15.681
66459W        W70420  16.954   0.282  15.186
66460W        W70421  14.899   0.214  16.763
66461W        W70422  14.947   1.177  16.133
66462W        W70423  17.636   0.285  16.539
66463W        W70424  15.058   0.783  15.353
66464W        W70425  17.629   0.471  16.969
66465W        W70426  18.025   1.674  14.654
66466W        W70427  15.317   0.432  16.473
66467W        W70428  16.431   1.004  17.413
66468W        W70429  14.579   0.694  14.891
66469W        W70430  15.365   2.083  17.452
66470W        W70431  16.723   1.481  16.631
66471W        W70432  16.590   3.560  14.927
66472W        W70433  14.736   2.067  14.624
66473W        W70434  15.471   2.478  17.750
66474W        W70435  14.992   1.645  17.381
66475W        W70436  15.983   1.750  17.175
66476W        W70437  17.751   0.109  17.437
66477W        W70438  18.149   1.719  17.428
66478W        W70439  18.137   1.919  15.114
66479W        W70440  17.000   2.251  15.213
66480W        W70441  17.474   3.551  14.908
66481W        W70442  16.651   1.541  18.050
66482W        W70443  14.981   2.508  18.090
66483W        W70444  18.187   0.430  18.042
66484W        W70445  17.905   1.358  16.663
66485W        W70446  16.213   3.488  18.140
66486W        W70447  16.068   0.117  14.867
66487W        W70448  17.607   2.716  14.810
66488W        W70449  15.376   0.809  17.696
66489W        W70450  15.810   2.803  17.558
66490W        W70451  17.936   0.794  17.356
66491W        W70452  17.147   3.453  15.324
66492W        W70453  17.386   2.072  16.691
66493W        W70454  15.636   0.488  17.358
66494W        W70455  16.105   1.557  18.115
66495W        W70456  15.608   2.736  15.309
66496W        W70457  17.363   2.234  15.573
66497W        W70458  15.131   0.860  17.297
66498W        W70459  16.460   2.922  15.761
66499W        W70460  18.210   1.482  15.942
66500W        W70461  16.432   0.115  17.661
66501W        W70462  17.212   2.820  16.740
66502W        W70463  17.515   3.164  16.448
66503W        W70464  16.734   2.966  14.876
66504W        W70465  14.744   2.858  17.718
66505W        W70466  15.487   0.850  16.956
66506W        W70467  15.457   0.198  16.066
66507W        W70468  17.078   1.040  16.758
66508W        W70469  15.876   2.211  14.958
66509W        W70470  17.874   2.153  16.457
66510W        W70471  15.201   2.911  17.880
66511W        W70472  17.588   3.593  15.677
66512W        W70473  15.687   0.613  16.122
66513W        W70474  15.456   2.106  16.212
66514W        W70475  15.769   3.517  16.962
66515W        W70476  17.836   3.613  17.994
66516W        W70477  16.995   1.801  16.927
66517W        W70478  14.844   1.599  14.842
66518W        W70479  17.978   3.257  15.539
66519W        W70480  17.815   0.581  15.158
66520W        W70481  15.954   0.100  17.561
66521W        W70482  17.660   2.902  16.019
66522W        W70483  17.689   1.458  15.924
66523W        W70484  15.806   1.131  16.140
66524W        W70485  16.051   1.393  17.464
66525W        W70486  17.162   2.546  17.327
66526W        W70487  15.812   1.000  17.439
66527W        W70488  15.791   3.466  16.055
66528W        W70489  15.108   3.425  17.689
66529W        W70490  15.220   2.786  14.819
66530W        W70491  17.737   2.544  15.629
66531W        W70492  15.341   1.336  17.515
66532W        W70493  18.114   1.266  14.996
66533W        W70494  15.859   2.323  15.467
66534W        W70495  16.958   1.705  17.548
66535W        W70496  16.849   1.333  17.092
66536W        W70497  15.409   1.705  17.121
66537W        W70498  17.619   3.593  16.950
66538W        W70499  17.410   0.227  17.944
66539W        W70500  15.074   0.377  17.531
66540W        W70501  15.413   1.400  16.584
66541W        W70502  15.782   1.214  14.706
66542W        W70503  14.585   2.973  17.251
66543W        W70504  16.170   1.682  16.694
66544W        W70505  15.993   0.707  14.799
66545W        W70506  15.128   1.523  15.580
66546W        W70507  14.899   3.375  17.017
66547W        W70508  17.694   1.601  15.125
66548W        W70509  17.789   0.517  17.811
66549W        W70510  17.225   2.726  15.774
66550W        W70511  14.823   1.650  17.951
66551W        W70512  17.789   0.114  15.247
66552W        W70513  17.309   2.589  15.258
66553W        W70514  16.211   1.647  15.343
66554W        W70515  17.398   0.451  14.866
66555W        W70516  17.463   1.058  17.052
66556W        W70517  15.172   1.651  16.259
66557W        W70518  15.466   2.590  15.908
66558W        W70519  17.229   1.210  15.873
66559W        W70520  16.252   0.589  16.569
66560W        W70521  18.214   2.500  17.080
66561W        W70522  18.132   0.487  16.641
66562W        W70523  14.671   3.317  16.017
66563W        W70524  15.180   2.504  15.553
66564W        W70525  15.095   0.121  18.106
66565W        W70526  16.214   2.974  18.208
66566W        W70527  17.969   1.942  15.998
66567W        W70528  17.323   2.119  14.878
66568W        W70529  16.618   3.640  17.090
66569W        W70530  17.475   2.362  18.127
66570W        W70531  16.290   0.072  15.407
66571W        W70532  17.003   0.941  16.266
66572W        W70533  14.689   2.528  16.598
66573W        W70534  15.942   0.490  15.239
66574W        W70535  15.746   1.974  18.088
66575W        W70536  16.740   0.955  15.802
66576W        W70537  16.945   2.365  16.924
66577W        W70538  15.099   2.970  17.359
66578W        W70539  15.690   2.953  18.082
66579W        W70540  15.541   0.750  15.096
66580W        W70541  17.058   0.892  15.421
66581W        W70542  17.016   3.000  17.658
66582W        W70543  15.701   1.592  16.257
66583W        W70544  15.356   3.290  17.122
66584W        W70545  18.101   3.407  14.723
66585W        W70546  14.964   2.079  17.719
66586W        W70547  16.959   2.341  16.407
66587W        W70548  15.395   1.990  15.649
66588W        W70549  15.766   2.997  17.044
66589W        W70550  16.144   0.416  16.085
66590W        W70551  14.755   2.400  15.015
66591W        W70552  16.274   1.351  14.885
66592W        W70553  14.920   1.900  15.904
66593W        W70554  16.210   0.542  17.368
66594W        W70555  17.882   0.251  14.795
66595W        W70556  17.975   1.997  17.894
66596W        W70557  16.629   3.254  18.046
66597W        W70558  18.187   2.348  17.568
66598W        W70559  17.595   3.146  18.179
66599W        W70560  15.334   3.602  16.657
66600W        W70561  18.193   2.224  15.531
66601W        W70562  16.723   1.491  16.044
66602W        W70563  16.490   0.103  15.934
66603W        W70564  15.549   3.087  15.771
66604W        W70565  16.048   0.828  16.996
66605W        W70566  15.748   0.197  16.465
66606W        W70567  14.811   3.019  15.013
66607W        W70568  16.627   2.383  15.731
66608W        W70569  15.502   3.178  17.610
66609W        W70570  14.979   2.001  15.306
66610W        W70571  14.864   0.544  16.305
66611W        W70572  16.412   2.509  16.362
66612W        W70573  14.664   0.363  15.382
66613W        W70574  17.328   1.569  17.309
66614W        W70575  17.205   0.955  14.881
66615W        W70576  17.722   2.627  16.529
66616W        W70577  16.383   3.111  16.360
66617W        W70578  15.795   3.215  15.271
66618W        W70579  17.077   0.118  14.701
66619W        W70580  14.877   3.378  16.442
66620W        W70581  17.074   1.136  18.077
66621W        W70582  15.057   0.666  18.076
66622W        W70583  14.788   1.266  15.409
66623W        W70584  15.479   1.255  15.134
66624W        W70585  17.242   1.582  17.951
66625W        W70586  15.585   1.863  16.660
66626W        W70587  17.059   0.149  15.780
66627W        W70588  16.190   3.580  16.283
66628W        W70589  17.404   3.042  17.220
66629W        W70590  16.988   3.191  16.331
66630W        W70591  17.007   2.171  15.925
66631W        W70592  16.469   0.396  14.996
66632W        W70593  18.150   0.024  15.718
66633W        W70594  15.838   1.659  14.881
66634W        W70595  18.004   0.996  15.871
66635W        W70596  16.696   2.166  14.748
66636W        W70597  17.632   2.366  17.496
66637W        W70598  17.286   3.067  14.963
66638W        W70599  15.901   0.742  17.869
66639W        W70600  15.721   1.326  17.110
66640W        W70601  17.813   2.821  17.387
66641W        W70602  16.913   0.771  17.764
66642W        W70603  14.757   1.242  17.541
66643W        W70604  16.517   1.719  17.267
66644W        W70605  14.874   2.477  15.924
66645W        W70606  15.021   1.774  16.814
66646W        W70607  17.338   2.060  17.164
66647W        W70608  17.110   3.440  17.975
66648W        W70609  17.006   1.179  17.528
66649W        W70610  17.283   3.233  15.933
66650W        W70611  16.285   2.953  17.256
66651W        W70612  15.770   3.308  16.525
66652W        W70613  17.575   2.479  16.944
66653W        W70614  16.625   2.551  18.081
66654W        W70615  15.230   2.504  16.420
66655W        W70616  17.576   2.263  16.065
66656W        W70617  17.217   3.329  16.816
66657W        W70618  15.195   3.058  16.686
66658W        W70619  16.216   1.110  17.896
66659W        W70620  16.667   3.276  15.407
66660W        W70621  15.975   2.531  18.045
66661W        W70622  16.101   2.769  15.422
66662W        W70623  15.322   1.509  14.681
66663W        W70624  14.661   3.595  21.580
66664W        W70625  15.037   2.488  21.103
66665W        W70626  17.742   2.218  18.873
66666W        W70627  17.872   3.303  20.900
66667W        W70628  15.790   3.294  18.426
66668W        W70629  15.873   1.446  19.409
66669W        W70630  15.388   1.294  19.573
66670W        W70631  16.379   2.109  19.007
66671W        W70632  16.054   3.201  21.362
66672W        W70633  14.703   0.762  21.325
66673W        W70634  15.465   0.042  21.127
66674W        W70635  17.159   0.430  20.014
66675W        W70636  16.808   1.301  18.584
66676W        W70637  17.378   0.735  21.675
66677W        W70638  14.744   0.527  20.800
66678W        W70639  14.843   3.146  21.821
66679W        W70640  16.365   2.536  18.553
66680W        W70641  14.797   1.319  20.246
66681W        W70642  15.690   1.210  21.483
66682W        W70643  18.149   1.069  19.982
66683W        W70644  17.913   2.112  20.841
66684W        W70645  16.221   1.445  19.868
66685W        W70646  16.767   2.784  20.237
66686W        W70647  15.267   2.218  20.469
66687W        W70648  14.626   1.746  20.040
66688W        W70649  15.662   1.718  21.232
66689W        W70650  17.933   1.501  21.486
66690W        W70651  15.549   2.945  19.931
66691W        W70652  16.670   2.634  21.065
66692W        W70653  15.890   1.274  20.290
66693W        W70654  16.182   2.058  19.933
66694W        W70655  17.179   2.831  21.781
66695W        W70656  16.258   2.151  21.791
66696W        W70657  16.239   1.867  21.269
66697W        W70658  14.648   1.258  21.791
66698W        W70659  17.480   2.793  21.390
66699W        W70660  15.061   0.375  19.388
66700W        W70661  15.588   2.633  20.387
66701W        W70662  18.051   2.416  19.677
66702W        W70663  17.464   0.816  20.244
66703W        W70664  17.749   0.769  18.339
66704W        W70665  18.214   1.570  20.645
66705W        W70666  16.181   3.277  20.398
66706W        W70667  17.955   2.743  18.836
66707W        W70668  15.084   3.529  18.590
66708W        W70669  15.477   3.575  19.266
66709W        W70670  15.274   0.329  20.692
66710W        W70671  17.897   1.347  20.967
66711W        W70672  17.302   1.769  19.426
66712W        W70673  17.268   1.457  18.453
66713W        W70674  16.476   2.601  20.593
66714W        W70675  16.282   0.931  19.792
66715W        W70676  16.882   3.018  20.786
66716W        W70677  17.753   1.809  19.208
66717W        W70678  16.655   0.467  19.224
66718W        W70679  15.312   3.161  18.907
66719W        W70680  14.683   0.660  19.506
66720W        W70681  17.469   1.267  19.980
66721W        W70682  14.927   2.884  19.895
66722W        W70683  16.268   3.234  18.765
66723W        W70684  17.660   1.260  18.229
66724W        W70685  14.683   3.018  20.393
66725W        W70686  15.474   2.590  20.873
66726W        W70687  15.847   1.950  19.492
66727W        W70688  15.869   0.355  20.585
66728W        W70689  18.098   0.117  19.882
66729W        W70690  15.317   1.989  18.350
66730W        W70691  14.972   1.022  18.529
66731W        W70692  15.034   2.978  19.323
66732W        W70693  16.165   2.461  19.571
66733W        W70694  17.497   3.320  21.285
66734W        W70695  16.423   0.962  18.969
66735W        W70696  17.806   3.360  19.741
66736W        W70697  17.483   1.213  21.339
66737W        W70698  18.196   2.869  19.473
66738W        W70699  16.823   2.161  20.957
66739W        W70700  14.589   1.712  19.163
66740W        W70701  15.700   2.127  20.736
66741W        W70702  16.904   1.391  19.114
66742W        W70703  16.781   1.881  19.218
66743W        W70704  15.124   1.301  20.692
66744W        W70705  15.109   1.177  21.614
66745W        W70706  14.999   0.094  19.773
66746W        W70707  16.767   0.441  20.334
66747W        W70708  16.415   0.626  21.497
66748W        W70709  16.770   0.775  18.675
66749W        W70710  17.953   3.168  21.429
66750W        W70711  16.920   0.249  21.468
66751W        W70712  17.939   2.550  21.590
66752W        W70713  17.369   0.717  21.186
66753W        W70714  17.169   0.655  19.456
66754W        W70715  17.562   1.789  21.860
66755W        W70716  15.302   3.365  19.846
66756W        W70717  15.960   1.082  18.832
66757W        W70718  15.529   0.366  21.496
66758W        W70719  17.581   0.850  19.177
66759W        W70720  17.948   1.332  19.122
66760W        W70721  15.691   3.549  21.593
66761W        W70722  15.617   0.085  18.828
66762W        W70723  17.938   0.619  19.863
66763W        W70724  18.088   2.868  18.308
66764W        W70725  14.995   2.071  20.010
66765W        W70726  16.912   0.658  18.240
66766W        W70727  18.046   2.990  19.960
66767W        W70728  18.085   0.184  20.710
66768W        W70729  16.530   1.396  21.264
66769W        W70730  16.623   2.735  18.967
66770W        W70731  17.023   2.029  21.707
66771W        W70732  16.697   0.006  20.016
66772W        W70733  15.309   0.909  20.079
66773W        W70734  14.863   2.109  20.853
66774W        W70735  16.722   3.302  19.559
66775W        W70736  17.916   0.899  20.431
66776W        W70737  16.553   3.246  21.198
66777W        W70738  17.896   2.305  18.403
66778W        W70739  16.331   1.788  19.464
66779W        W70740  18.183   0.299  21.205
66780W        W70741  16.332   2.134  20.799
66781W        W70742  16.549   1.020  20.244
66782W        W70743  17.401   1.318  19.082
66783W        W70744  17.688   1.051  18.724
66784W        W70745  17.497   3.091  19.113
66785W        W70746  17.331   2.694  19.909
66786W        W70747  17.227   1.773  18.887
66787W        W70748  16.660   1.983  19.873
66788W        W70749  17.541   1.771  19.940
66789W        W70750  14.916   0.786  20.364
66790W        W70751  17.694   1.838  21.191
66791W        W70752  18.045   3.456  20.337
66792W        W70753  15.975   2.900  19.739
66793W        W70754  16.982   3.433  21.063
66794W        W70755  16.976   0.763  20.827
66795W        W70756  16.183   3.471  20.888
66796W        W70757  17.880   0.425  19.354
66797W        W70758  17.671   1.744  20.655
66798W        W70759  14.654   1.065  20.693
66799W        W70760  17.514   0.860  19.711
66800W        W70761  17.925   1.011  21.488
66801W        W70762  16.810   2.710  19.706
66802W        W70763  16.066   3.301  19.319
66803W        W70764  15.181   0.481  18.577
66804W        W70765  16.285   0.135  20.387
66805W        W70766  15.313   3.255  18.235
66806W        W70767  15.687   1.721  18.986
66807W        W70768  16.341   2.350  21.299
66808W        W70769  16.171   0.708  19.289
66809W        W70770  17.527   0.305  19.717
66810W        W70771  17.247   3.587  20.045
66811W        W70772  16.659   3.235  20.385
66812W        W70773  16.055   2.272  20.346
66813W        W70774  17.825   2.995  20.472
66814W        W70775  15.519   0.498  19.241
66815W        W70776  16.041   2.795  20.201
66816W        W70777  15.524   0.726  18.266
66817W        W70778  16.325   1.335  20.660
66818W        W70779  17.173   0.201  20.530
66819W        W70780  14.593   2.044  20.415
66820W        W70781  16.297   1.862  18.573
66821W        W70782  15.565   0.177  18.343
66822W        W70783  16.303   1.258  19.394
66823W        W70784  17.273   0.234  21.093
66824W        W70785  15.861   2.246  21.202
66825W        W70786  16.665   2.028  21.419
66826W        W70787  17.282   2.058  21.312
66827W        W70788  16.566   0.198  21.817
66828W        W70789  15.788   0.814  20.210
66829W        W70790  15.214   0.770  19.608
66830W        W70791  15.000   3.482  19.284
66831W        W70792  16.332   2.812  21.409
66832W        W70793  15.367   2.297  18.768
66833W        W70794  17.047   1.682  19.989
66834W        W70795  17.327   1.481  20.388
66835W        W70796  16.532   2.155  20.322
66836W        W70797  17.002   2.529  18.454
66837W        W70798  16.674   0.550  19.782
66838W        W70799  18.153   0.828  19.050
66839W        W70800  14.647   3.417  21.081
66840W        W70801  15.064   2.643  20.613
66841W        W70802  14.631   3.489  18.845
66842W        W70803  16.530   0.759  20.651
66843W        W70804  15.893   2.782  18.500
66844W        W70805  17.798   3.164  18.686
66845W        W70806  16.773   1.817  18.700
66846W        W70807  15.616   1.008  19.217
66847W        W70808  16.448   0.918  18.269
66848W        W70809  17.032   2.483  21.447
66849W        W70810  17.385   0.389  19.064
66850W        W70811  14.715   0.237  18.512
66851W        W70812  16.001   2.556  20.802
66852W        W70813  15.800   2.472  19.894
66853W        W70814  15.542   2.424  18.292
66854W        W70815  14.783   2.665  19.060
66855W        W70816  15.287   1.735  21.502
66856W        W70817  15.991   0.295  21.688
66857W        W70818  16.700   0.437  21.044
66858W        W70819  15.895   0.205  19.325
66859W        W70820  16.954   0.282  18.830
66860W        W70821  14.899   0.214  20.407
66861W        W70822  14.947   1.177  19.777
66862W        W70823  17.636   0.285  20.183
66863W        W70824  15.058   0.783  18.997
66864W        W70825  17.629   0.471  20.613
66865W        W70826  18.025   1.674  18.298
66866W        W70827  15.317   0.432  20.117
66867W        W70828  16.431   1.004  21.057
66868W        W70829  14.579   0.694  18.535
66869W        W70830  15.365   2.083  21.096
66870W        W70831  16.723   1.481  20.275
66871W        W70832  16.590   3.560  18.571
66872W        W70833  14.736   2.067  18.268
66873W        W70834  15.471   2.478  21.394
66874W        W70835  14.992   1.645  21.025
66875W        W70836  15.983   1.750  20.819
66876W        W70837  17.751   0.109  21.081
66877W        W70838  18.149   1.719  21.072
66878W        W70839  18.137   1.919  18.758
66879W        W70840  17.000   2.251  18.857
66880W        W70841  17.474   3.551  18.552
66881W        W70842  16.651   1.541  21.694
66882W        W70843  14.981   2.508  21.734
66883W        W70844  18.187   0.430  21.686
66884W        W70845  17.905   1.358  20.307
66885W        W70846  16.213   3.488  21.784
66886W        W70847  16.068   0.117  18.511
66887W        W70848  17.607   2.716  18.454
66888W        W70849  15.376   0.809  21.340
66889W        W70850  15.810   2.803  21.202
66890W        W70851  17.936   0.794  21.000
66891W        W70852  17.147   3.453  18.968
66892W        W70853  17.386   2.072  20.335
66893W        W70854  15.636   0.488  21.002
66894W        W70855  16.105   1.557  21.759
66895W        W70856  15.608   2.736  18.953
66896W        W70857  17.363   2.234  19.217
66897W        W70858  15.131   0.860  20.941
66898W        W70859  16.460   2.922  19.405
66899W        W70860  18.210   1.482  19.586
66900W        W70861  16.432   0.115  21.305
66901W        W70862  17.212   2.820  20.384
66902W        W70863  17.515   3.164  20.092
66903W        W70864  16.734   2.966  18.520
66904W        W70865  14.744   2.858  21.362
66905W        W70866  15.487   0.850  20.600
66906W        W70867  15.457   0.198  19.710
66907W        W70868  17.078   1.040  20.402
66908W        W70869  15.876   2.211  18.602
66909W        W70870  17.874   2.153  20.101
66910W        W70871  15.201   2.911  21.524
66911W        W70872  17.588   3.593  19.321
66912W        W70873  15.687   0.613  19.766
66913W        W70874  15.456   2.106  19.856
66914W        W70875  15.769   3.517  20.606
66915W        W70876  17.836   3.613  21.638
66916W        W70877  16.995   1.801  20.571
66917W        W70878  14.844   1.599  18.486
66918W        W70879  17.978   3.257  19.183
66919W        W70880  17.815   0.581  18.802
66920W        W70881  15.954   0.100  21.205
66921W        W70882  17.660   2.902  19.663
66922W        W70883  17.689   1.458  19.568
66923W        W70884  15.806   1.131  19.784
66924W        W70885  16.051   1.393  21.108
66925W        W70886  17.162   2.546  20.971
66926W        W70887  15.812   1.000  21.083
66927W        W70888  15.791   3.466  19.699
66928W        W70889  15.108   3.425  21.333
66929W        W70890  15.220   2.786  18.463
66930W        W70891  17.737   2.544  19.273
66931W        W70892  15.341   1.336  21.159
66932W        W70893  18.114   1.266  18.640
66933W        W70894  15.859   2.323  19.111
66934W        W70895  16.958   1.705  21.192
66935W        W70896  16.849   1.333  20.736
66936W        W70897  15.409   1.705  20.765
66937W        W70898  17.619   3.593  20.594
66938W        W70899  17.410   0.227  21.588
66939W        W70900  15.074   0.377  21.175
66940W        W70901  15.413   1.400  20.228
66941W        W70902  15.782   1.214  18.350
66942W        W70903  14.585   2.973  20.895
66943W        W70904  16.170   1.682  20.338
66944W        W70905  15.993   0.707  18.443
66945W        W70906  15.128   1.523  19.224
66946W        W70907  14.899   3.375  20.661
66947W        W70908  17.694   1.601  18.769
66948W        W70909  17.789   0.517  21.455
66949W        W70910  17.225   2.726  19.418
66950W        W70911  14.823   1.650  21.595
66951W        W70912  17.789   0.114  18.891
66952W        W70913  17.309   2.589  18.902
66953W        W70914  16.211   1.647  18.987
66954W        W70915  17.398   0.451  18.510
66955W        W70916  17.463   1.058  20.696
66956W        W70917  15.172   1.651  19.903
66957W        W70918  15.466   2.590  19.552
66958W        W70919  17.229   1.210  19.517
66959W        W70920  16.252   0.589  20.213
66960W        W70921  18.214   2.500  20.724
66961W        W70922  18.132   0.487  20.285
66962W        W70923  14.671   3.317  19.661
66963W        W70924  15.180   2.504  19.197
66964W        W70925  15.095   0.121  21.750
66965W        W70926  16.214   2.974  21.852
66966W        W70927  17.969   1.942  19.642
66967W        W70928  17.323   2.119  18.522
66968W        W70929  16.618   3.640  20.734
66969W        W70930  17.475   2.362  21.771
66970W        W70931  16.290   0.072  19.051
66971W        W70932  17.003   0.941  19.910
66972W        W70933  14.689   2.528  20.242
66973W        W70934  15.942   0.490  18.883
66974W        W70935  15.746   1.974  21.732
66975W        W70936  16.740   0.955  19.446
66976W        W70937  16.945   2.365  20.568
66977W        W70938  15.099   2.970  21.003
66978W        W70939  15.690   2.953  21.726
66979W        W70940  15.541   0.750  18.740
66980W        W70941  17.058   0.892  19.065
66981W        W70942  17.016   3.000  21.302
66982W        W70943  15.701   1.592  19.901
66983W        W70944  15.356   3.290  20.766
66984W        W70945  18.101   3.407  18.367
66985W        W70946  14.964   2.079  21.363
66986W        W70947  16.959   2.341  20.051
66987W        W70948  15.395   1.990  19.293
66988W        W70949  15.766   2.997  20.688
66989W        W70950  16.144   0.416  19.729
66990W        W70951  14.755   2.400  18.659
66991W        W70952  16.274   1.351  18.529
66992W        W70953  14.920   1.900  19.548
66993W        W70954  16.210   0.542  21.012
66994W        W70955  17.882   0.251  18.439
66995W        W70956  17.975   1.997  21.538
66996W        W70957  16.629   3.254  21.690
66997W        W70958  18.187   2.348  21.212
66998W        W70959  17.595   3.146  21.823
66999W        W70960  15.334   3.602  20.301
67000W        W70961  18.193   2.224  19.175
67001W        W70962  16.723   1.491  19.688
67002W        W70963  16.490   0.103  19.578
67003W        W70964  15.549   3.087  19.415
67004W        W70965  16.048   0.828  20.640
67005W        W70966  15.748   0.197  20.109
67006W        W70967  14.811   3.019  18.657
67007W        W70968  16.627   2.383  19.375
67008W        W70969  15.502   3.178  21.254
67009W        W70970  14.979   2.001  18.950
67010W        W70971  14.864   0.544  19.949
67011W        W70972  16.412   2.509  20.006
67012W        W70973  14.664   0.363  19.026
67013W        W70974  17.328   1.569  20.953
67014W        W70975  17.205   0.955  18.525
67015W        W70976  17.722   2.627  20.173
67016W        W70977  16.383   3.111  20.004
67017W        W70978  15.795   3.215  18.915
67018W        W70979  17.077   0.118  18.345
67019W        W70980  14.877   3.378  20.086
67020W        W70981  17.074   1.136  21.721
67021W        W70982  15.057   0.666  21.720
67022W        W70983  14.788   1.266  19.053
67023W        W70984  15.479   1.255  18.778
67024W        W70985  17.242   1.582  21.595
67025W        W70986  15.585   1.863  20.304
67026W        W70987  17.059   0.149  19.424
67027W        W70988  16.190   3.580  19.927
67028W        W70989  17.404   3.042  20.864
67029W        W70990  16.988   3.191  19.975
67030W        W70991  17.007   2.171  19.569
67031W        W70992  16.469   0.396  18.640
67032W        W70993  18.150   0.024  19.362
67033W        W70994  15.838   1.659  18.525
67034W        W70995  18.004   0.996  19.515
67035W        W70996  16.696   2.166  18.392
67036W        W70997  17.632   2.366  21.140
67037W        W70998  17.286   3.067  18.607
67038W        W70999  15.901   0.742  21.513
67039W        W71000  15.721   1.326  20.754
67040W        W71001  17.813   2.821  21.031
67041W        W71002  16.913   0.771  21.408
67042W        W71003  14.757   1.242  21.185
67043W        W71004  16.517   1.719  20.911
67044W        W71005  14.874   2.477  19.568
67045W        W71006  15.021   1.774  20.458
67046W        W71007  17.338   2.060  20.808
67047W        W71008  17.110   3.440  21.619
67048W        W71009  17.006   1.179  21.172
67049W        W71010  17.283   3.233  19.577
67050W        W71011  16.285   2.953  20.900
67051W        W71012  15.770   3.308  20.169
67052W        W71013  17.575   2.479  20.588
67053W        W71014  16.625   2.551  21.725
67054W        W71015  15.230   2.504  20.064
67055W        W71016  17.576   2.263  19.709
67056W        W71017  17.217   3.329  20.460
67057W        W71018  15.195   3.058  20.330
67058W        W71019  16.216   1.110  21.540
67059W        W71020  16.667   3.276  19.051
67060W        W71021  15.975   2.531  21.689
67061W        W71022  16.101   2.769  19.066
67062W        W71023  15.322   1.509  18.325
67063W        W71024  17.742   2.218  22.518
67064W        W71025  15.790   3.294  22.071
67065W        W71026  15.873   1.446  23.054
67066W        W71027  15.388   1.294  23.218
67067W        W71028  16.379   2.109  22.652
67068W        W71029  16.808   1.301  22.229
67069W        W71030  16.365   2.536  22.198
67070W        W71031  15.061   0.375  23.033
67071W        W71032  17.749   0.769  21.984
67072W        W71033  17.955   2.743  22.481
67073W        W71034  15.084   3.529  22.235
67074W        W71035  15.477   3.575  22.911
67075W        W71036  17.302   1.769  23.071
67076W        W71037  17.268   1.457  22.098
67077W        W71038  17.753   1.809  22.853
67078W        W71039  16.655   0.467  22.869
67079W        W71040  15.312   3.161  22.552
67080W        W71041  16.268   3.234  22.410
67081W        W71042  17.660   1.260  21.874
67082W        W71043  15.847   1.950  23.137
67083W        W71044  15.317   1.989  21.995
67084W        W71045  14.972   1.022  22.174
67085W        W71046  15.034   2.978  22.968
67086W        W71047  16.165   2.461  23.216
67087W        W71048  16.423   0.962  22.614
67088W        W71049  14.589   1.712  22.808
67089W        W71050  16.904   1.391  22.759
67090W        W71051  16.781   1.881  22.863
67091W        W71052  16.770   0.775  22.320
67092W        W71053  17.169   0.655  23.101
67093W        W71054  15.960   1.082  22.477
67094W        W71055  17.581   0.850  22.822
67095W        W71056  17.948   1.332  22.767
67096W        W71057  15.617   0.085  22.473
67097W        W71058  18.088   2.868  21.953
67098W        W71059  16.912   0.658  21.885
67099W        W71060  16.623   2.735  22.612
67100W        W71061  16.722   3.302  23.204
67101W        W71062  17.896   2.305  22.048
67102W        W71063  16.331   1.788  23.109
67103W        W71064  17.401   1.318  22.727
67104W        W71065  17.688   1.051  22.369
67105W        W71066  17.497   3.091  22.758
67106W        W71067  17.227   1.773  22.532
67107W        W71068  17.880   0.425  22.999
67108W        W71069  16.066   3.301  22.964
67109W        W71070  15.181   0.481  22.222
67110W        W71071  15.313   3.255  21.880
67111W        W71072  15.687   1.721  22.631
67112W        W71073  16.171   0.708  22.934
67113W        W71074  15.519   0.498  22.886
67114W        W71075  15.524   0.726  21.911
67115W        W71076  16.297   1.862  22.218
67116W        W71077  15.565   0.177  21.988
67117W        W71078  16.303   1.258  23.039
67118W        W71079  15.214   0.770  23.253
67119W        W71080  15.000   3.482  22.929
67120W        W71081  15.367   2.297  22.413
67121W        W71082  17.002   2.529  22.099
67122W        W71083  18.153   0.828  22.695
67123W        W71084  14.631   3.489  22.490
67124W        W71085  15.893   2.782  22.145
67125W        W71086  17.798   3.164  22.331
67126W        W71087  16.773   1.817  22.345
67127W        W71088  15.616   1.008  22.862
67128W        W71089  16.448   0.918  21.914
67129W        W71090  17.385   0.389  22.709
67130W        W71091  14.715   0.237  22.157
67131W        W71092  15.542   2.424  21.937
67132W        W71093  14.783   2.665  22.705
67133W        W71094  15.895   0.205  22.970
67134W        W71095  16.954   0.282  22.475
67135W        W71096  15.058   0.783  22.642
67136W        W71097  18.025   1.674  21.943
67137W        W71098  14.579   0.694  22.180
67138W        W71099  16.590   3.560  22.216
67139W        W71100  14.736   2.067  21.913
67140W        W71101  18.137   1.919  22.403
67141W        W71102  17.000   2.251  22.502
67142W        W71103  17.474   3.551  22.197
67143W        W71104  16.068   0.117  22.156
67144W        W71105  17.607   2.716  22.099
67145W        W71106  17.147   3.453  22.613
67146W        W71107  15.608   2.736  22.598
67147W        W71108  17.363   2.234  22.862
67148W        W71109  16.460   2.922  23.050
67149W        W71110  18.210   1.482  23.231
67150W        W71111  16.734   2.966  22.165
67151W        W71112  15.876   2.211  22.247
67152W        W71113  17.588   3.593  22.966
67153W        W71114  14.844   1.599  22.131
67154W        W71115  17.978   3.257  22.828
67155W        W71116  17.815   0.581  22.447
67156W        W71117  17.689   1.458  23.213
67157W        W71118  15.220   2.786  22.108
67158W        W71119  17.737   2.544  22.918
67159W        W71120  18.114   1.266  22.285
67160W        W71121  15.859   2.323  22.756
67161W        W71122  15.782   1.214  21.995
67162W        W71123  15.993   0.707  22.088
67163W        W71124  15.128   1.523  22.869
67164W        W71125  17.694   1.601  22.414
67165W        W71126  17.225   2.726  23.063
67166W        W71127  17.789   0.114  22.536
67167W        W71128  17.309   2.589  22.547
67168W        W71129  16.211   1.647  22.632
67169W        W71130  17.398   0.451  22.155
67170W        W71131  15.466   2.590  23.197
67171W        W71132  17.229   1.210  23.162
67172W        W71133  14.671   3.317  23.306
67173W        W71134  15.180   2.504  22.842
67174W        W71135  17.969   1.942  23.287
67175W        W71136  17.323   2.119  22.167
67176W        W71137  16.290   0.072  22.696
67177W        W71138  15.942   0.490  22.528
67178W        W71139  16.740   0.955  23.091
67179W        W71140  15.541   0.750  22.385
67180W        W71141  17.058   0.892  22.710
67181W        W71142  18.101   3.407  22.012
67182W        W71143  14.755   2.400  22.304
67183W        W71144  16.274   1.351  22.174
67184W        W71145  14.920   1.900  23.193
67185W        W71146  17.882   0.251  22.084
67186W        W71147  18.193   2.224  22.820
67187W        W71148  16.490   0.103  23.223
67188W        W71149  15.549   3.087  23.060
67189W        W71150  14.811   3.019  22.302
67190W        W71151  16.627   2.383  23.020
67191W        W71152  14.979   2.001  22.595
67192W        W71153  14.664   0.363  22.671
67193W        W71154  17.205   0.955  22.170
67194W        W71155  15.795   3.215  22.560
67195W        W71156  17.077   0.118  21.990
67196W        W71157  14.788   1.266  22.698
67197W        W71158  15.479   1.255  22.423
67198W        W71159  17.007   2.171  23.214
67199W        W71160  16.469   0.396  22.285
67200W        W71161  18.150   0.024  23.007
67201W        W71162  15.838   1.659  22.170
67202W        W71163  18.004   0.996  23.160
67203W        W71164  16.696   2.166  22.037
67204W        W71165  17.286   3.067  22.252
67205W        W71166  14.874   2.477  23.213
67206W        W71167  17.283   3.233  23.222
67207W        W71168  16.667   3.276  22.696
67208W        W71169  16.101   2.769  22.711
67209W        W71170  15.322   1.509  21.970
67210W        W71171  14.661   7.239   3.359
67211W        W71172  15.037   6.132   2.882
67212W        W71173  17.742   5.862   0.652
67213W        W71174  17.872   6.947   2.679
67214W        W71175  15.790   6.938   0.205
67215W        W71176  15.873   5.090   1.188
67216W        W71177  15.388   4.938   1.352
67217W        W71178  16.379   5.753   0.786
67218W        W71179  16.054   6.845   3.141
67219W        W71180  14.703   4.406   3.104
67220W        W71181  15.465   3.686   2.906
67221W        W71182  17.159   4.074   1.793
67222W        W71183  16.808   4.945   0.363
67223W        W71184  17.378   4.379   3.454
67224W        W71185  14.744   4.171   2.579
67225W        W71186  14.843   6.790   3.600
67226W        W71187  16.365   6.180   0.332
67227W        W71188  14.797   4.963   2.025
67228W        W71189  15.690   4.854   3.262
67229W        W71190  18.149   4.713   1.761
67230W        W71191  17.913   5.756   2.620
67231W        W71192  16.221   5.089   1.647
67232W        W71193  16.767   6.428   2.016
67233W        W71194  15.267   5.862   2.248
67234W        W71195  14.626   5.390   1.819
67235W        W71196  15.662   5.362   3.011
67236W        W71197  17.933   5.145   3.265
67237W        W71198  15.549   6.589   1.710
67238W        W71199  16.670   6.278   2.844
67239W        W71200  15.890   4.918   2.069
67240W        W71201  16.182   5.702   1.712
67241W        W71202  17.179   6.475   3.560
67242W        W71203  16.258   5.795   3.570
67243W        W71204  16.239   5.511   3.048
67244W        W71205  14.648   4.902   3.570
67245W        W71206  17.480   6.437   3.169
67246W        W71207  15.061   4.019   1.167
67247W        W71208  15.588   6.277   2.166
67248W        W71209  18.051   6.060   1.456
67249W        W71210  17.464   4.460   2.023
67250W        W71211  17.749   4.413   0.118
67251W        W71212  18.214   5.214   2.424
67252W        W71213  16.181   6.921   2.177
67253W        W71214  17.955   6.387   0.615
67254W        W71215  15.084   7.173   0.369
67255W        W71216  15.477   7.219   1.045
67256W        W71217  15.274   3.973   2.471
67257W        W71218  17.897   4.991   2.746
67258W        W71219  17.302   5.413   1.205
67259W        W71220  17.268   5.101   0.232
67260W        W71221  16.476   6.245   2.372
67261W        W71222  16.282   4.575   1.571
67262W        W71223  16.882   6.662   2.565
67263W        W71224  17.753   5.453   0.987
67264W        W71225  16.655   4.111   1.003
67265W        W71226  15.312   6.805   0.686
67266W        W71227  14.683   4.304   1.285
67267W        W71228  17.469   4.911   1.759
67268W        W71229  14.927   6.528   1.674
67269W        W71230  16.268   6.878   0.544
67270W        W71231  17.660   4.904   0.008
67271W        W71232  14.683   6.662   2.172
67272W        W71233  15.474   6.234   2.652
67273W        W71234  15.847   5.594   1.271
67274W        W71235  15.869   3.999   2.364
67275W        W71236  18.098   3.761   1.661
67276W        W71237  15.317   5.633   0.129
67277W        W71238  14.972   4.666   0.308
67278W        W71239  15.034   6.622   1.102
67279W        W71240  16.165   6.105   1.350
67280W        W71241  17.497   6.964   3.064
67281W        W71242  16.423   4.606   0.748
67282W        W71243  17.806   7.004   1.520
67283W        W71244  17.483   4.857   3.118
67284W        W71245  18.196   6.513   1.252
67285W        W71246  16.823   5.805   2.736
67286W        W71247  14.589   5.356   0.942
67287W        W71248  15.700   5.771   2.515
67288W        W71249  16.904   5.035   0.893
67289W        W71250  16.781   5.525   0.997
67290W        W71251  15.124   4.945   2.471
67291W        W71252  15.109   4.821   3.393
67292W        W71253  14.999   3.738   1.552
67293W        W71254  16.767   4.085   2.113
67294W        W71255  16.415   4.270   3.276
67295W        W71256  16.770   4.419   0.454
67296W        W71257  17.953   6.812   3.208
67297W        W71258  16.920   3.893   3.247
67298W        W71259  17.939   6.194   3.369
67299W        W71260  17.369   4.361   2.965
67300W        W71261  17.169   4.299   1.235
67301W        W71262  17.562   5.433   3.639
67302W        W71263  15.302   7.009   1.625
67303W        W71264  15.960   4.726   0.611
67304W        W71265  15.529   4.010   3.275
67305W        W71266  17.581   4.494   0.956
67306W        W71267  17.948   4.976   0.901
67307W        W71268  15.691   7.193   3.372
67308W        W71269  15.617   3.729   0.607
67309W        W71270  17.938   4.263   1.642
67310W        W71271  18.088   6.512   0.087
67311W        W71272  14.995   5.715   1.789
67312W        W71273  16.912   4.302   0.019
67313W        W71274  18.046   6.634   1.739
67314W        W71275  18.085   3.828   2.489
67315W        W71276  16.530   5.040   3.043
67316W        W71277  16.623   6.379   0.746
67317W        W71278  17.023   5.673   3.486
67318W        W71279  16.697   3.650   1.795
67319W        W71280  15.309   4.553   1.858
67320W        W71281  14.863   5.753   2.632
67321W        W71282  16.722   6.946   1.338
67322W        W71283  17.916   4.543   2.210
67323W        W71284  16.553   6.890   2.977
67324W        W71285  17.896   5.949   0.182
67325W        W71286  16.331   5.432   1.243
67326W        W71287  18.183   3.943   2.984
67327W        W71288  16.332   5.778   2.578
67328W        W71289  16.549   4.664   2.023
67329W        W71290  17.401   4.962   0.861
67330W        W71291  17.688   4.695   0.503
67331W        W71292  17.497   6.735   0.892
67332W        W71293  17.331   6.338   1.688
67333W        W71294  17.227   5.417   0.666
67334W        W71295  16.660   5.627   1.652
67335W        W71296  17.541   5.415   1.719
67336W        W71297  14.916   4.430   2.143
67337W        W71298  17.694   5.482   2.970
67338W        W71299  18.045   7.100   2.116
67339W        W71300  15.975   6.544   1.518
67340W        W71301  16.982   7.077   2.842
67341W        W71302  16.976   4.407   2.606
67342W        W71303  16.183   7.115   2.667
67343W        W71304  17.880   4.069   1.133
67344W        W71305  17.671   5.388   2.434
67345W        W71306  14.654   4.709   2.472
67346W        W71307  17.514   4.504   1.490
67347W        W71308  17.925   4.655   3.267
67348W        W71309  16.810   6.354   1.485
67349W        W71310  16.066   6.945   1.098
67350W        W71311  15.181   4.125   0.356
67351W        W71312  16.285   3.779   2.166
67352W        W71313  15.313   6.899   0.014
67353W        W71314  15.687   5.365   0.765
67354W        W71315  16.341   5.994   3.078
67355W        W71316  16.171   4.352   1.068
67356W        W71317  17.527   3.949   1.496
67357W        W71318  17.247   7.231   1.824
67358W        W71319  16.659   6.879   2.164
67359W        W71320  16.055   5.916   2.125
67360W        W71321  17.825   6.639   2.251
67361W        W71322  15.519   4.142   1.020
67362W        W71323  16.041   6.439   1.980
67363W        W71324  15.524   4.370   0.045
67364W        W71325  16.325   4.979   2.439
67365W        W71326  17.173   3.845   2.309
67366W        W71327  14.593   5.688   2.194
67367W        W71328  16.297   5.506   0.352
67368W        W71329  15.565   3.821   0.122
67369W        W71330  16.303   4.902   1.173
67370W        W71331  17.273   3.878   2.872
67371W        W71332  15.861   5.890   2.981
67372W        W71333  16.665   5.672   3.198
67373W        W71334  17.282   5.702   3.091
67374W        W71335  16.566   3.842   3.596
67375W        W71336  15.788   4.458   1.989
67376W        W71337  15.214   4.414   1.387
67377W        W71338  15.000   7.126   1.063
67378W        W71339  16.332   6.456   3.188
67379W        W71340  15.367   5.941   0.547
67380W        W71341  17.047   5.326   1.768
67381W        W71342  17.327   5.125   2.167
67382W        W71343  16.532   5.799   2.101
67383W        W71344  17.002   6.173   0.233
67384W        W71345  16.674   4.194   1.561
67385W        W71346  18.153   4.472   0.829
67386W        W71347  14.647   7.061   2.860
67387W        W71348  15.064   6.287   2.392
67388W        W71349  14.631   7.133   0.624
67389W        W71350  16.530   4.403   2.430
67390W        W71351  15.893   6.426   0.279
67391W        W71352  17.798   6.808   0.465
67392W        W71353  16.773   5.461   0.479
67393W        W71354  15.616   4.652   0.996
67394W        W71355  16.448   4.562   0.048
67395W        W71356  17.032   6.127   3.226
67396W        W71357  17.385   4.033   0.843
67397W        W71358  14.715   3.881   0.291
67398W        W71359  16.001   6.200   2.581
67399W        W71360  15.800   6.116   1.673
67400W        W71361  15.542   6.068   0.071
67401W        W71362  14.783   6.309   0.839
67402W        W71363  15.287   5.379   3.281
67403W        W71364  15.991   3.939   3.467
67404W        W71365  16.700   4.081   2.823
67405W        W71366  15.895   3.849   1.104
67406W        W71367  16.954   3.926   0.609
67407W        W71368  14.899   3.858   2.186
67408W        W71369  14.947   4.821   1.556
67409W        W71370  17.636   3.929   1.962
67410W        W71371  15.058   4.427   0.776
67411W        W71372  17.629   4.115   2.392
67412W        W71373  18.025   5.318   0.077
67413W        W71374  15.317   4.076   1.896
67414W        W71375  16.431   4.648   2.836
67415W        W71376  14.579   4.338   0.314
67416W        W71377  15.365   5.727   2.875
67417W        W71378  16.723   5.125   2.054
67418W        W71379  16.590   7.204   0.350
67419W        W71380  14.736   5.711   0.047
67420W        W71381  15.471   6.122   3.173
67421W        W71382  14.992   5.289   2.804
67422W        W71383  15.983   5.394   2.598
67423W        W71384  17.751   3.753   2.860
67424W        W71385  18.149   5.363   2.851
67425W        W71386  18.137   5.563   0.537
67426W        W71387  17.000   5.895   0.636
67427W        W71388  17.474   7.195   0.331
67428W        W71389  16.651   5.185   3.473
67429W        W71390  14.981   6.152   3.513
67430W        W71391  18.187   4.074   3.465
67431W        W71392  17.905   5.002   2.086
67432W        W71393  16.213   7.132   3.563
67433W        W71394  16.068   3.761   0.290
67434W        W71395  17.607   6.360   0.233
67435W        W71396  15.376   4.453   3.119
67436W        W71397  15.810   6.447   2.981
67437W        W71398  17.936   4.438   2.779
67438W        W71399  17.147   7.097   0.747
67439W        W71400  17.386   5.716   2.114
67440W        W71401  15.636   4.132   2.781
67441W        W71402  16.105   5.201   3.538
67442W        W71403  15.608   6.380   0.732
67443W        W71404  17.363   5.878   0.996
67444W        W71405  15.131   4.504   2.720
67445W        W71406  16.460   6.566   1.184
67446W        W71407  18.210   5.126   1.365
67447W        W71408  16.432   3.759   3.084
67448W        W71409  17.212   6.464   2.163
67449W        W71410  17.515   6.808   1.871
67450W        W71411  16.734   6.610   0.299
67451W        W71412  14.744   6.502   3.141
67452W        W71413  15.487   4.494   2.379
67453W        W71414  15.457   3.842   1.489
67454W        W71415  17.078   4.684   2.181
67455W        W71416  15.876   5.855   0.381
67456W        W71417  17.874   5.797   1.880
67457W        W71418  15.201   6.555   3.303
67458W        W71419  17.588   7.237   1.100
67459W        W71420  15.687   4.257   1.545
67460W        W71421  15.456   5.750   1.635
67461W        W71422  15.769   7.161   2.385
67462W        W71423  17.836   7.257   3.417
67463W        W71424  16.995   5.445   2.350
67464W        W71425  14.844   5.243   0.265
67465W        W71426  17.978   6.901   0.962
67466W        W71427  17.815   4.225   0.581
67467W        W71428  15.954   3.744   2.984
67468W        W71429  17.660   6.546   1.442
67469W        W71430  17.689   5.102   1.347
67470W        W71431  15.806   4.775   1.563
67471W        W71432  16.051   5.037   2.887
67472W        W71433  17.162   6.190   2.750
67473W        W71434  15.812   4.644   2.862
67474W        W71435  15.791   7.110   1.478
67475W        W71436  15.108   7.069   3.112
67476W        W71437  15.220   6.430   0.242
67477W        W71438  17.737   6.188   1.052
67478W        W71439  15.341   4.980   2.938
67479W        W71440  18.114   4.910   0.419
67480W        W71441  15.859   5.967   0.890
67481W        W71442  16.958   5.349   2.971
67482W        W71443  16.849   4.977   2.515
67483W        W71444  15.409   5.349   2.544
67484W        W71445  17.619   7.237   2.373
67485W        W71446  17.410   3.871   3.367
67486W        W71447  15.074   4.021   2.954
67487W        W71448  15.413   5.044   2.007
67488W        W71449  15.782   4.858   0.129
67489W        W71450  14.585   6.617   2.674
67490W        W71451  16.170   5.326   2.117
67491W        W71452  15.993   4.351   0.222
67492W        W71453  15.128   5.167   1.003
67493W        W71454  14.899   7.019   2.440
67494W        W71455  17.694   5.245   0.548
67495W        W71456  17.789   4.161   3.234
67496W        W71457  17.225   6.370   1.197
67497W        W71458  14.823   5.294   3.374
67498W        W71459  17.789   3.758   0.670
67499W        W71460  17.309   6.233   0.681
67500W        W71461  16.211   5.291   0.766
67501W        W71462  17.398   4.095   0.289
67502W        W71463  17.463   4.702   2.475
67503W        W71464  15.172   5.295   1.682
67504W        W71465  15.466   6.234   1.331
67505W        W71466  17.229   4.854   1.296
67506W        W71467  16.252   4.233   1.992
67507W        W71468  18.214   6.144   2.503
67508W        W71469  18.132   4.131   2.064
67509W        W71470  14.671   6.961   1.440
67510W        W71471  15.180   6.148   0.976
67511W        W71472  15.095   3.765   3.529
67512W        W71473  16.214   6.618   3.631
67513W        W71474  17.969   5.586   1.421
67514W        W71475  17.323   5.763   0.301
67515W        W71476  16.618   7.284   2.513
67516W        W71477  17.475   6.006   3.550
67517W        W71478  16.290   3.716   0.830
67518W        W71479  17.003   4.585   1.689
67519W        W71480  14.689   6.172   2.021
67520W        W71481  15.942   4.134   0.662
67521W        W71482  15.746   5.618   3.511
67522W        W71483  16.740   4.599   1.225
67523W        W71484  16.945   6.009   2.347
67524W        W71485  15.099   6.614   2.782
67525W        W71486  15.690   6.597   3.505
67526W        W71487  15.541   4.394   0.519
67527W        W71488  17.058   4.536   0.844
67528W        W71489  17.016   6.644   3.081
67529W        W71490  15.701   5.236   1.680
67530W        W71491  15.356   6.934   2.545
67531W        W71492  18.101   7.051   0.146
67532W        W71493  14.964   5.723   3.142
67533W        W71494  16.959   5.985   1.830
67534W        W71495  15.395   5.634   1.072
67535W        W71496  15.766   6.641   2.467
67536W        W71497  16.144   4.060   1.508
67537W        W71498  14.755   6.044   0.438
67538W        W71499  16.274   4.995   0.308
67539W        W71500  14.920   5.544   1.327
67540W        W71501  16.210   4.186   2.791
67541W        W71502  17.882   3.895   0.218
67542W        W71503  17.975   5.641   3.317
67543W        W71504  16.629   6.898   3.469
67544W        W71505  18.187   5.992   2.991
67545W        W71506  17.595   6.790   3.602
67546W        W71507  15.334   7.246   2.080
67547W        W71508  18.193   5.868   0.954
67548W        W71509  16.723   5.135   1.467
67549W        W71510  16.490   3.747   1.357
67550W        W71511  15.549   6.731   1.194
67551W        W71512  16.048   4.472   2.419
67552W        W71513  15.748   3.841   1.888
67553W        W71514  14.811   6.663   0.436
67554W        W71515  16.627   6.027   1.154
67555W        W71516  15.502   6.822   3.033
67556W        W71517  14.979   5.645   0.729
67557W        W71518  14.864   4.188   1.728
67558W        W71519  16.412   6.153   1.785
67559W        W71520  14.664   4.007   0.805
67560W        W71521  17.328   5.213   2.732
67561W        W71522  17.205   4.599   0.304
67562W        W71523  17.722   6.271   1.952
67563W        W71524  16.383   6.755   1.783
67564W        W71525  15.795   6.859   0.694
67565W        W71526  17.077   3.762   0.124
67566W        W71527  14.877   7.022   1.865
67567W        W71528  17.074   4.780   3.500
67568W        W71529  15.057   4.310   3.499
67569W        W71530  14.788   4.910   0.832
67570W        W71531  15.479   4.899   0.557
67571W        W71532  17.242   5.226   3.374
67572W        W71533  15.585   5.507   2.083
67573W        W71534  17.059   3.793   1.203
67574W        W71535  16.190   7.224   1.706
67575W        W71536  17.404   6.686   2.643
67576W        W71537  16.988   6.835   1.754
67577W        W71538  17.007   5.815   1.348
67578W        W71539  16.469   4.040   0.419
67579W        W71540  18.150   3.668   1.141
67580W        W71541  15.838   5.303   0.304
67581W        W71542  18.004   4.640   1.294
67582W        W71543  16.696   5.810   0.171
67583W        W71544  17.632   6.010   2.919
67584W        W71545  17.286   6.711   0.386
67585W        W71546  15.901   4.386   3.292
67586W        W71547  15.721   4.970   2.533
67587W        W71548  17.813   6.465   2.810
67588W        W71549  16.913   4.415   3.187
67589W        W71550  14.757   4.886   2.964
67590W        W71551  16.517   5.363   2.690
67591W        W71552  14.874   6.121   1.347
67592W        W71553  15.021   5.418   2.237
67593W        W71554  17.338   5.704   2.587
67594W        W71555  17.110   7.084   3.398
67595W        W71556  17.006   4.823   2.951
67596W        W71557  17.283   6.877   1.356
67597W        W71558  16.285   6.597   2.679
67598W        W71559  15.770   6.952   1.948
67599W        W71560  17.575   6.123   2.367
67600W        W71561  16.625   6.195   3.504
67601W        W71562  15.230   6.148   1.843
67602W        W71563  17.576   5.907   1.488
67603W        W71564  17.217   6.973   2.239
67604W        W71565  15.195   6.702   2.109
67605W        W71566  16.216   4.754   3.319
67606W        W71567  16.667   6.920   0.830
67607W        W71568  15.975   6.175   3.468
67608W        W71569  16.101   6.413   0.845
67609W        W71570  15.322   5.153   0.104
67610W        W71571  14.661   7.239   7.003
67611W        W71572  15.037   6.132   6.526
67612W        W71573  17.742   5.862   4.296
67613W        W71574  17.872   6.947   6.323
67614W        W71575  15.790   6.938   3.849
67615W        W71576  15.873   5.090   4.832
67616W        W71577  15.388   4.938   4.996
67617W        W71578  16.379   5.753   4.430
67618W        W71579  16.054   6.845   6.785
67619W        W71580  14.703   4.406   6.748
67620W        W71581  15.465   3.686   6.550
67621W        W71582  17.159   4.074   5.437
67622W        W71583  16.808   4.945   4.007
67623W        W71584  17.378   4.379   7.098
67624W        W71585  14.744   4.171   6.223
67625W        W71586  14.843   6.790   7.244
67626W        W71587  16.365   6.180   3.976
67627W        W71588  14.797   4.963   5.669
67628W        W71589  15.690   4.854   6.906
67629W        W71590  18.149   4.713   5.405
67630W        W71591  17.913   5.756   6.264
67631W        W71592  16.221   5.089   5.291
67632W        W71593  16.767   6.428   5.660
67633W        W71594  15.267   5.862   5.892
67634W        W71595  14.626   5.390   5.463
67635W        W71596  15.662   5.362   6.655
67636W        W71597  17.933   5.145   6.909
67637W        W71598  15.549   6.589   5.354
67638W        W71599  16.670   6.278   6.488
67639W        W71600  15.890   4.918   5.713
67640W        W71601  16.182   5.702   5.356
67641W        W71602  17.179   6.475   7.204
67642W        W71603  16.258   5.795   7.214
67643W        W71604  16.239   5.511   6.692
67644W        W71605  14.648   4.902   7.214
67645W        W71606  17.480   6.437   6.813
67646W        W71607  15.061   4.019   4.811
67647W        W71608  15.588   6.277   5.810
67648W        W71609  18.051   6.060   5.100
67649W        W71610  17.464   4.460   5.667
67650W        W71611  17.749   4.413   3.762
67651W        W71612  18.214   5.214   6.068
67652W        W71613  16.181   6.921   5.821
67653W        W71614  17.955   6.387   4.259
67654W        W71615  15.084   7.173   4.013
67655W        W71616  15.477   7.219   4.689
67656W        W71617  15.274   3.973   6.115
67657W        W71618  17.897   4.991   6.390
67658W        W71619  17.302   5.413   4.849
67659W        W71620  17.268   5.101   3.876
67660W        W71621  16.476   6.245   6.016
67661W        W71622  16.282   4.575   5.215
67662W        W71623  16.882   6.662   6.209
67663W        W71624  17.753   5.453   4.631
67664W        W71625  16.655   4.111   4.647
67665W        W71626  15.312   6.805   4.330
67666W        W71627  14.683   4.304   4.929
67667W        W71628  17.469   4.911   5.403
67668W        W71629  14.927   6.528   5.318
67669W        W71630  16.268   6.878   4.188
67670W        W71631  17.660   4.904   3.652
67671W        W71632  14.683   6.662   5.816
67672W        W71633  15.474   6.234   6.296
67673W        W71634  15.847   5.594   4.915
67674W        W71635  15.869   3.999   6.008
67675W        W71636  18.098   3.761   5.305
67676W        W71637  15.317   5.633   3.773
67677W        W71638  14.972   4.666   3.952
67678W        W71639  15.034   6.622   4.746
67679W        W71640  16.165   6.105   4.994
67680W        W71641  17.497   6.964   6.708
67681W        W71642  16.423   4.606   4.392
67682W        W71643  17.806   7.004   5.164
67683W        W71644  17.483   4.857   6.762
67684W        W71645  18.196   6.513   4.896
67685W        W71646  16.823   5.805   6.380
67686W        W71647  14.589   5.356   4.586
67687W        W71648  15.700   5.771   6.159
67688W        W71649  16.904   5.035   4.537
67689W        W71650  16.781   5.525   4.641
67690W        W71651  15.124   4.945   6.115
67691W        W71652  15.109   4.821   7.037
67692W        W71653  14.999   3.738   5.196
67693W        W71654  16.767   4.085   5.757
67694W        W71655  16.415   4.270   6.920
67695W        W71656  16.770   4.419   4.098
67696W        W71657  17.953   6.812   6.852
67697W        W71658  16.920   3.893   6.891
67698W        W71659  17.939   6.194   7.013
67699W        W71660  17.369   4.361   6.609
67700W        W71661  17.169   4.299   4.879
67701W        W71662  17.562   5.433   7.283
67702W        W71663  15.302   7.009   5.269
67703W        W71664  15.960   4.726   4.255
67704W        W71665  15.529   4.010   6.919
67705W        W71666  17.581   4.494   4.600
67706W        W71667  17.948   4.976   4.545
67707W        W71668  15.691   7.193   7.016
67708W        W71669  15.617   3.729   4.251
67709W        W71670  17.938   4.263   5.286
67710W        W71671  18.088   6.512   3.731
67711W        W71672  14.995   5.715   5.433
67712W        W71673  16.912   4.302   3.663
67713W        W71674  18.046   6.634   5.383
67714W        W71675  18.085   3.828   6.133
67715W        W71676  16.530   5.040   6.687
67716W        W71677  16.623   6.379   4.390
67717W        W71678  17.023   5.673   7.130
67718W        W71679  16.697   3.650   5.439
67719W        W71680  15.309   4.553   5.502
67720W        W71681  14.863   5.753   6.276
67721W        W71682  16.722   6.946   4.982
67722W        W71683  17.916   4.543   5.854
67723W        W71684  16.553   6.890   6.621
67724W        W71685  17.896   5.949   3.826
67725W        W71686  16.331   5.432   4.887
67726W        W71687  18.183   3.943   6.628
67727W        W71688  16.332   5.778   6.222
67728W        W71689  16.549   4.664   5.667
67729W        W71690  17.401   4.962   4.505
67730W        W71691  17.688   4.695   4.147
67731W        W71692  17.497   6.735   4.536
67732W        W71693  17.331   6.338   5.332
67733W        W71694  17.227   5.417   4.310
67734W        W71695  16.660   5.627   5.296
67735W        W71696  17.541   5.415   5.363
67736W        W71697  14.916   4.430   5.787
67737W        W71698  17.694   5.482   6.614
67738W        W71699  18.045   7.100   5.760
67739W        W71700  15.975   6.544   5.162
67740W        W71701  16.982   7.077   6.486
67741W        W71702  16.976   4.407   6.250
67742W        W71703  16.183   7.115   6.311
67743W        W71704  17.880   4.069   4.777
67744W        W71705  17.671   5.388   6.078
67745W        W71706  14.654   4.709   6.116
67746W        W71707  17.514   4.504   5.134
67747W        W71708  17.925   4.655   6.911
67748W        W71709  16.810   6.354   5.129
67749W        W71710  16.066   6.945   4.742
67750W        W71711  15.181   4.125   4.000
67751W        W71712  16.285   3.779   5.810
67752W        W71713  15.313   6.899   3.658
67753W        W71714  15.687   5.365   4.409
67754W        W71715  16.341   5.994   6.722
67755W        W71716  16.171   4.352   4.712
67756W        W71717  17.527   3.949   5.140
67757W        W71718  17.247   7.231   5.468
67758W        W71719  16.659   6.879   5.808
67759W        W71720  16.055   5.916   5.769
67760W        W71721  17.825   6.639   5.895
67761W        W71722  15.519   4.142   4.664
67762W        W71723  16.041   6.439   5.624
67763W        W71724  15.524   4.370   3.689
67764W        W71725  16.325   4.979   6.083
67765W        W71726  17.173   3.845   5.953
67766W        W71727  14.593   5.688   5.838
67767W        W71728  16.297   5.506   3.996
67768W        W71729  15.565   3.821   3.766
67769W        W71730  16.303   4.902   4.817
67770W        W71731  17.273   3.878   6.516
67771W        W71732  15.861   5.890   6.625
67772W        W71733  16.665   5.672   6.842
67773W        W71734  17.282   5.702   6.735
67774W        W71735  16.566   3.842   7.240
67775W        W71736  15.788   4.458   5.633
67776W        W71737  15.214   4.414   5.031
67777W        W71738  15.000   7.126   4.707
67778W        W71739  16.332   6.456   6.832
67779W        W71740  15.367   5.941   4.191
67780W        W71741  17.047   5.326   5.412
67781W        W71742  17.327   5.125   5.811
67782W        W71743  16.532   5.799   5.745
67783W        W71744  17.002   6.173   3.877
67784W        W71745  16.674   4.194   5.205
67785W        W71746  18.153   4.472   4.473
67786W        W71747  14.647   7.061   6.504
67787W        W71748  15.064   6.287   6.036
67788W        W71749  14.631   7.133   4.268
67789W        W71750  16.530   4.403   6.074
67790W        W71751  15.893   6.426   3.923
67791W        W71752  17.798   6.808   4.109
67792W        W71753  16.773   5.461   4.123
67793W        W71754  15.616   4.652   4.640
67794W        W71755  16.448   4.562   3.692
67795W        W71756  17.032   6.127   6.870
67796W        W71757  17.385   4.033   4.487
67797W        W71758  14.715   3.881   3.935
67798W        W71759  16.001   6.200   6.225
67799W        W71760  15.800   6.116   5.317
67800W        W71761  15.542   6.068   3.715
67801W        W71762  14.783   6.309   4.483
67802W        W71763  15.287   5.379   6.925
67803W        W71764  15.991   3.939   7.111
67804W        W71765  16.700   4.081   6.467
67805W        W71766  15.895   3.849   4.748
67806W        W71767  16.954   3.926   4.253
67807W        W71768  14.899   3.858   5.830
67808W        W71769  14.947   4.821   5.200
67809W        W71770  17.636   3.929   5.606
67810W        W71771  15.058   4.427   4.420
67811W        W71772  17.629   4.115   6.036
67812W        W71773  18.025   5.318   3.721
67813W        W71774  15.317   4.076   5.540
67814W        W71775  16.431   4.648   6.480
67815W        W71776  14.579   4.338   3.958
67816W        W71777  15.365   5.727   6.519
67817W        W71778  16.723   5.125   5.698
67818W        W71779  16.590   7.204   3.994
67819W        W71780  14.736   5.711   3.691
67820W        W71781  15.471   6.122   6.817
67821W        W71782  14.992   5.289   6.448
67822W        W71783  15.983   5.394   6.242
67823W        W71784  17.751   3.753   6.504
67824W        W71785  18.149   5.363   6.495
67825W        W71786  18.137   5.563   4.181
67826W        W71787  17.000   5.895   4.280
67827W        W71788  17.474   7.195   3.975
67828W        W71789  16.651   5.185   7.117
67829W        W71790  14.981   6.152   7.157
67830W        W71791  18.187   4.074   7.109
67831W        W71792  17.905   5.002   5.730
67832W        W71793  16.213   7.132   7.207
67833W        W71794  16.068   3.761   3.934
67834W        W71795  17.607   6.360   3.877
67835W        W71796  15.376   4.453   6.763
67836W        W71797  15.810   6.447   6.625
67837W        W71798  17.936   4.438   6.423
67838W        W71799  17.147   7.097   4.391
67839W        W71800  17.386   5.716   5.758
67840W        W71801  15.636   4.132   6.425
67841W        W71802  16.105   5.201   7.182
67842W        W71803  15.608   6.380   4.376
67843W        W71804  17.363   5.878   4.640
67844W        W71805  15.131   4.504   6.364
67845W        W71806  16.460   6.566   4.828
67846W        W71807  18.210   5.126   5.009
67847W        W71808  16.432   3.759   6.728
67848W        W71809  17.212   6.464   5.807
67849W        W71810  17.515   6.808   5.515
67850W        W71811  16.734   6.610   3.943
67851W        W71812  14.744   6.502   6.785
67852W        W71813  15.487   4.494   6.023
67853W        W71814  15.457   3.842   5.133
67854W        W71815  17.078   4.684   5.825
67855W        W71816  15.876   5.855   4.025
67856W        W71817  17.874   5.797   5.524
67857W        W71818  15.201   6.555   6.947
67858W        W71819  17.588   7.237   4.744
67859W        W71820  15.687   4.257   5.189
67860W        W71821  15.456   5.750   5.279
67861W        W71822  15.769   7.161   6.029
67862W        W71823  17.836   7.257   7.061
67863W        W71824  16.995   5.445   5.994
67864W        W71825  14.844   5.243   3.909
67865W        W71826  17.978   6.901   4.606
67866W        W71827  17.815   4.225   4.225
67867W        W71828  15.954   3.744   6.628
67868W        W71829  17.660   6.546   5.086
67869W        W71830  17.689   5.102   4.991
67870W        W71831  15.806   4.775   5.207
67871W        W71832  16.051   5.037   6.531
67872W        W71833  17.162   6.190   6.394
67873W        W71834  15.812   4.644   6.506
67874W        W71835  15.791   7.110   5.122
67875W        W71836  15.108   7.069   6.756
67876W        W71837  15.220   6.430   3.886
67877W        W71838  17.737   6.188   4.696
67878W        W71839  15.341   4.980   6.582
67879W        W71840  18.114   4.910   4.063
67880W        W71841  15.859   5.967   4.534
67881W        W71842  16.958   5.349   6.615
67882W        W71843  16.849   4.977   6.159
67883W        W71844  15.409   5.349   6.188
67884W        W71845  17.619   7.237   6.017
67885W        W71846  17.410   3.871   7.011
67886W        W71847  15.074   4.021   6.598
67887W        W71848  15.413   5.044   5.651
67888W        W71849  15.782   4.858   3.773
67889W        W71850  14.585   6.617   6.318
67890W        W71851  16.170   5.326   5.761
67891W        W71852  15.993   4.351   3.866
67892W        W71853  15.128   5.167   4.647
67893W        W71854  14.899   7.019   6.084
67894W        W71855  17.694   5.245   4.192
67895W        W71856  17.789   4.161   6.878
67896W        W71857  17.225   6.370   4.841
67897W        W71858  14.823   5.294   7.018
67898W        W71859  17.789   3.758   4.314
67899W        W71860  17.309   6.233   4.325
67900W        W71861  16.211   5.291   4.410
67901W        W71862  17.398   4.095   3.933
67902W        W71863  17.463   4.702   6.119
67903W        W71864  15.172   5.295   5.326
67904W        W71865  15.466   6.234   4.975
67905W        W71866  17.229   4.854   4.940
67906W        W71867  16.252   4.233   5.636
67907W        W71868  18.214   6.144   6.147
67908W        W71869  18.132   4.131   5.708
67909W        W71870  14.671   6.961   5.084
67910W        W71871  15.180   6.148   4.620
67911W        W71872  15.095   3.765   7.173
67912W        W71873  16.214   6.618   7.275
67913W        W71874  17.969   5.586   5.065
67914W        W71875  17.323   5.763   3.945
67915W        W71876  16.618   7.284   6.157
67916W        W71877  17.475   6.006   7.194
67917W        W71878  16.290   3.716   4.474
67918W        W71879  17.003   4.585   5.333
67919W        W71880  14.689   6.172   5.665
67920W        W71881  15.942   4.134   4.306
67921W        W71882  15.746   5.618   7.155
67922W        W71883  16.740   4.599   4.869
67923W        W71884  16.945   6.009   5.991
67924W        W71885  15.099   6.614   6.426
67925W        W71886  15.690   6.597   7.149
67926W        W71887  15.541   4.394   4.163
67927W        W71888  17.058   4.536   4.488
67928W        W71889  17.016   6.644   6.725
67929W        W71890  15.701   5.236   5.324
67930W        W71891  15.356   6.934   6.189
67931W        W71892  18.101   7.051   3.790
67932W        W71893  14.964   5.723   6.786
67933W        W71894  16.959   5.985   5.474
67934W        W71895  15.395   5.634   4.716
67935W        W71896  15.766   6.641   6.111
67936W        W71897  16.144   4.060   5.152
67937W        W71898  14.755   6.044   4.082
67938W        W71899  16.274   4.995   3.952
67939W        W71900  14.920   5.544   4.971
67940W        W71901  16.210   4.186   6.435
67941W        W71902  17.882   3.895   3.862
67942W        W71903  17.975   5.641   6.961
67943W        W71904  16.629   6.898   7.113
67944W        W71905  18.187   5.992   6.635
67945W        W71906  17.595   6.790   7.246
67946W        W71907  15.334   7.246   5.724
67947W        W71908  18.193   5.868   4.598
67948W        W71909  16.723   5.135   5.111
67949W        W71910  16.490   3.747   5.001
67950W        W71911  15.549   6.731   4.838
67951W        W71912  16.048   4.472   6.063
67952W        W71913  15.748   3.841   5.532
67953W        W71914  14.811   6.663   4.080
67954W        W71915  16.627   6.027   4.798
67955W        W71916  15.502   6.822   6.677
67956W        W71917  14.979   5.645   4.373
67957W        W71918  14.864   4.188   5.372
67958W        W71919  16.412   6.153   5.429
67959W        W71920  14.664   4.007   4.449
67960W        W71921  17.328   5.213   6.376
67961W        W71922  17.205   4.599   3.948
67962W        W71923  17.722   6.271   5.596
67963W        W71924  16.383   6.755   5.427
67964W        W71925  15.795   6.859   4.338
67965W        W71926  17.077   3.762   3.768
67966W        W71927  14.877   7.022   5.509
67967W        W71928  17.074   4.780   7.144
67968W        W71929  15.057   4.310   7.143
67969W        W71930  14.788   4.910   4.476
67970W        W71931  15.479   4.899   4.201
67971W        W71932  17.242   5.226   7.018
67972W        W71933  15.585   5.507   5.727
67973W        W71934  17.059   3.793   4.847
67974W        W71935  16.190   7.224   5.350
67975W        W71936  17.404   6.686   6.287
67976W        W71937  16.988   6.835   5.398
67977W        W71938  17.007   5.815   4.992
67978W        W71939  16.469   4.040   4.063
67979W        W71940  18.150   3.668   4.785
67980W        W71941  15.838   5.303   3.948
67981W        W71942  18.004   4.640   4.938
67982W        W71943  16.696   5.810   3.815
67983W        W71944  17.632   6.010   6.563
67984W        W71945  17.286   6.711   4.030
67985W        W71946  15.901   4.386   6.936
67986W        W71947  15.721   4.970   6.177
67987W        W71948  17.813   6.465   6.454
67988W        W71949  16.913   4.415   6.831
67989W        W71950  14.757   4.886   6.608
67990W        W71951  16.517   5.363   6.334
67991W        W71952  14.874   6.121   4.991
67992W        W71953  15.021   5.418   5.881
67993W        W71954  17.338   5.704   6.231
67994W        W71955  17.110   7.084   7.042
67995W        W71956  17.006   4.823   6.595
67996W        W71957  17.283   6.877   5.000
67997W        W71958  16.285   6.597   6.323
67998W        W71959  15.770   6.952   5.592
67999W        W71960  17.575   6.123   6.011
68000W        W71961  16.625   6.195   7.148
68001W        W71962  15.230   6.148   5.487
68002W        W71963  17.576   5.907   5.132
68003W        W71964  17.217   6.973   5.883
68004W        W71965  15.195   6.702   5.753
68005W        W71966  16.216   4.754   6.963
68006W        W71967  16.667   6.920   4.474
68007W        W71968  15.975   6.175   7.112
68008W        W71969  16.101   6.413   4.489
68009W        W71970  15.322   5.153   3.748
68010W        W71971  14.661   7.239  10.648
68011W        W71972  15.037   6.132  10.171
68012W        W71973  17.742   5.862   7.941
68013W        W71974  17.872   6.947   9.968
68014W        W71975  15.790   6.938   7.494
68015W        W71976  15.873   5.090   8.477
68016W        W71977  15.388   4.938   8.641
68017W        W71978  16.379   5.753   8.075
68018W        W71979  16.054   6.845  10.430
68019W        W71980  14.703   4.406  10.393
68020W        W71981  15.465   3.686  10.195
68021W        W71982  17.159   4.074   9.082
68022W        W71983  16.808   4.945   7.652
68023W        W71984  17.378   4.379  10.743
68024W        W71985  14.744   4.171   9.868
68025W        W71986  14.843   6.790  10.889
68026W        W71987  16.365   6.180   7.621
68027W        W71988  14.797   4.963   9.314
68028W        W71989  15.690   4.854  10.551
68029W        W71990  18.149   4.713   9.050
68030W        W71991  17.913   5.756   9.909
68031W        W71992  16.221   5.089   8.936
68032W        W71993  16.767   6.428   9.305
68033W        W71994  15.267   5.862   9.537
68034W        W71995  14.626   5.390   9.108
68035W        W71996  15.662   5.362  10.300
68036W        W71997  17.933   5.145  10.554
68037W        W71998  15.549   6.589   8.999
68038W        W71999  16.670   6.278  10.133
68039W        W72000  15.890   4.918   9.358
68040W        W72001  16.182   5.702   9.001
68041W        W72002  17.179   6.475  10.849
68042W        W72003  16.258   5.795  10.859
68043W        W72004  16.239   5.511  10.337
68044W        W72005  14.648   4.902  10.859
68045W        W72006  17.480   6.437  10.458
68046W        W72007  15.061   4.019   8.456
68047W        W72008  15.588   6.277   9.455
68048W        W72009  18.051   6.060   8.745
68049W        W72010  17.464   4.460   9.312
68050W        W72011  17.749   4.413   7.407
68051W        W72012  18.214   5.214   9.713
68052W        W72013  16.181   6.921   9.466
68053W        W72014  17.955   6.387   7.904
68054W        W72015  15.084   7.173   7.658
68055W        W72016  15.477   7.219   8.334
68056W        W72017  15.274   3.973   9.760
68057W        W72018  17.897   4.991  10.035
68058W        W72019  17.302   5.413   8.494
68059W        W72020  17.268   5.101   7.521
68060W        W72021  16.476   6.245   9.661
68061W        W72022  16.282   4.575   8.860
68062W        W72023  16.882   6.662   9.854
68063W        W72024  17.753   5.453   8.276
68064W        W72025  15.312   6.805   7.975
68065W        W72026  14.683   4.304   8.574
68066W        W72027  17.469   4.911   9.048
68067W        W72028  14.927   6.528   8.963
68068W        W72029  16.268   6.878   7.833
68069W        W72030  17.660   4.904   7.297
68070W        W72031  14.683   6.662   9.461
68071W        W72032  15.474   6.234   9.941
68072W        W72033  15.847   5.594   8.560
68073W        W72034  18.098   3.761   8.950
68074W        W72035  15.317   5.633   7.418
68075W        W72036  14.972   4.666   7.597
68076W        W72037  15.034   6.622   8.391
68077W        W72038  16.165   6.105   8.639
68078W        W72039  17.497   6.964  10.353
68079W        W72040  16.423   4.606   8.037
68080W        W72041  17.806   7.004   8.809
68081W        W72042  17.483   4.857  10.407
68082W        W72043  18.196   6.513   8.541
68083W        W72044  16.823   5.805  10.025
68084W        W72045  14.589   5.356   8.231
68085W        W72046  15.700   5.771   9.804
68086W        W72047  16.904   5.035   8.182
68087W        W72048  16.781   5.525   8.286
68088W        W72049  15.124   4.945   9.760
68089W        W72050  15.109   4.821  10.682
68090W        W72051  14.999   3.738   8.841
68091W        W72052  16.767   4.085   9.402
68092W        W72053  16.415   4.270  10.565
68093W        W72054  16.770   4.419   7.743
68094W        W72055  17.953   6.812  10.497
68095W        W72056  17.939   6.194  10.658
68096W        W72057  17.369   4.361  10.254
68097W        W72058  17.169   4.299   8.524
68098W        W72059  17.562   5.433  10.928
68099W        W72060  15.302   7.009   8.914
68100W        W72061  15.960   4.726   7.900
68101W        W72062  15.529   4.010  10.564
68102W        W72063  17.581   4.494   8.245
68103W        W72064  17.948   4.976   8.190
68104W        W72065  15.691   7.193  10.661
68105W        W72066  15.617   3.729   7.896
68106W        W72067  17.938   4.263   8.931
68107W        W72068  18.088   6.512   7.376
68108W        W72069  14.995   5.715   9.078
68109W        W72070  16.912   4.302   7.308
68110W        W72071  18.046   6.634   9.028
68111W        W72072  18.085   3.828   9.778
68112W        W72073  16.530   5.040  10.332
68113W        W72074  16.623   6.379   8.035
68114W        W72075  17.023   5.673  10.775
68115W        W72076  16.697   3.650   9.084
68116W        W72077  15.309   4.553   9.147
68117W        W72078  14.863   5.753   9.921
68118W        W72079  16.722   6.946   8.627
68119W        W72080  17.916   4.543   9.499
68120W        W72081  16.553   6.890  10.266
68121W        W72082  17.896   5.949   7.471
68122W        W72083  16.331   5.432   8.532
68123W        W72084  18.183   3.943  10.273
68124W        W72085  16.332   5.778   9.867
68125W        W72086  16.549   4.664   9.312
68126W        W72087  17.401   4.962   8.150
68127W        W72088  17.688   4.695   7.792
68128W        W72089  17.497   6.735   8.181
68129W        W72090  17.331   6.338   8.977
68130W        W72091  17.227   5.417   7.955
68131W        W72092  16.660   5.627   8.941
68132W        W72093  17.541   5.415   9.008
68133W        W72094  14.916   4.430   9.432
68134W        W72095  17.694   5.482  10.259
68135W        W72096  18.045   7.100   9.405
68136W        W72097  15.975   6.544   8.807
68137W        W72098  16.982   7.077  10.131
68138W        W72099  16.976   4.407   9.895
68139W        W72100  16.183   7.115   9.956
68140W        W72101  17.880   4.069   8.422
68141W        W72102  17.671   5.388   9.723
68142W        W72103  14.654   4.709   9.761
68143W        W72104  17.514   4.504   8.779
68144W        W72105  17.925   4.655  10.556
68145W        W72106  16.810   6.354   8.774
68146W        W72107  16.066   6.945   8.387
68147W        W72108  15.181   4.125   7.645
68148W        W72109  16.285   3.779   9.455
68149W        W72110  15.313   6.899   7.303
68150W        W72111  15.687   5.365   8.054
68151W        W72112  16.341   5.994  10.367
68152W        W72113  16.171   4.352   8.357
68153W        W72114  17.527   3.949   8.785
68154W        W72115  17.247   7.231   9.113
68155W        W72116  16.659   6.879   9.453
68156W        W72117  16.055   5.916   9.414
68157W        W72118  17.825   6.639   9.540
68158W        W72119  15.519   4.142   8.309
68159W        W72120  16.041   6.439   9.269
68160W        W72121  15.524   4.370   7.334
68161W        W72122  16.325   4.979   9.728
68162W        W72123  17.173   3.845   9.598
68163W        W72124  14.593   5.688   9.483
68164W        W72125  16.297   5.506   7.641
68165W        W72126  15.565   3.821   7.411
68166W        W72127  16.303   4.902   8.462
68167W        W72128  17.273   3.878  10.161
68168W        W72129  15.861   5.890  10.270
68169W        W72130  16.665   5.672  10.487
68170W        W72131  17.282   5.702  10.380
68171W        W72132  16.566   3.842  10.885
68172W        W72133  15.788   4.458   9.278
68173W        W72134  15.214   4.414   8.676
68174W        W72135  15.000   7.126   8.352
68175W        W72136  16.332   6.456  10.477
68176W        W72137  15.367   5.941   7.836
68177W        W72138  17.047   5.326   9.057
68178W        W72139  17.327   5.125   9.456
68179W        W72140  16.532   5.799   9.390
68180W        W72141  17.002   6.173   7.522
68181W        W72142  16.674   4.194   8.850
68182W        W72143  18.153   4.472   8.118
68183W        W72144  14.647   7.061  10.149
68184W        W72145  15.064   6.287   9.681
68185W        W72146  14.631   7.133   7.913
68186W        W72147  16.530   4.403   9.719
68187W        W72148  15.893   6.426   7.568
68188W        W72149  17.798   6.808   7.754
68189W        W72150  16.773   5.461   7.768
68190W        W72151  15.616   4.652   8.285
68191W        W72152  16.448   4.562   7.337
68192W        W72153  17.032   6.127  10.515
68193W        W72154  17.385   4.033   8.132
68194W        W72155  14.715   3.881   7.580
68195W        W72156  16.001   6.200   9.870
68196W        W72157  15.800   6.116   8.962
68197W        W72158  15.542   6.068   7.360
68198W        W72159  14.783   6.309   8.128
68199W        W72160  15.287   5.379  10.570
68200W        W72161  15.991   3.939  10.756
68201W        W72162  16.700   4.081  10.112
68202W        W72163  15.895   3.849   8.393
68203W        W72164  14.899   3.858   9.475
68204W        W72165  14.947   4.821   8.845
68205W        W72166  17.636   3.929   9.251
68206W        W72167  15.058   4.427   8.065
68207W        W72168  17.629   4.115   9.681
68208W        W72169  18.025   5.318   7.366
68209W        W72170  15.317   4.076   9.185
68210W        W72171  16.431   4.648  10.125
68211W        W72172  14.579   4.338   7.603
68212W        W72173  15.365   5.727  10.164
68213W        W72174  16.723   5.125   9.343
68214W        W72175  16.590   7.204   7.639
68215W        W72176  14.736   5.711   7.336
68216W        W72177  15.471   6.122  10.462
68217W        W72178  14.992   5.289  10.093
68218W        W72179  15.983   5.394   9.887
68219W        W72180  17.751   3.753  10.149
68220W        W72181  18.149   5.363  10.140
68221W        W72182  18.137   5.563   7.826
68222W        W72183  17.000   5.895   7.925
68223W        W72184  17.474   7.195   7.620
68224W        W72185  16.651   5.185  10.762
68225W        W72186  14.981   6.152  10.802
68226W        W72187  18.187   4.074  10.754
68227W        W72188  17.905   5.002   9.375
68228W        W72189  16.213   7.132  10.852
68229W        W72190  16.068   3.761   7.579
68230W        W72191  17.607   6.360   7.522
68231W        W72192  15.376   4.453  10.408
68232W        W72193  15.810   6.447  10.270
68233W        W72194  17.936   4.438  10.068
68234W        W72195  17.147   7.097   8.036
68235W        W72196  17.386   5.716   9.403
68236W        W72197  15.636   4.132  10.070
68237W        W72198  16.105   5.201  10.827
68238W        W72199  15.608   6.380   8.021
68239W        W72200  17.363   5.878   8.285
68240W        W72201  15.131   4.504  10.009
68241W        W72202  16.460   6.566   8.473
68242W        W72203  18.210   5.126   8.654
68243W        W72204  17.212   6.464   9.452
68244W        W72205  17.515   6.808   9.160
68245W        W72206  16.734   6.610   7.588
68246W        W72207  14.744   6.502  10.430
68247W        W72208  15.487   4.494   9.668
68248W        W72209  15.457   3.842   8.778
68249W        W72210  17.078   4.684   9.470
68250W        W72211  15.876   5.855   7.670
68251W        W72212  17.874   5.797   9.169
68252W        W72213  15.201   6.555  10.592
68253W        W72214  17.588   7.237   8.389
68254W        W72215  15.687   4.257   8.834
68255W        W72216  15.456   5.750   8.924
68256W        W72217  15.769   7.161   9.674
68257W        W72218  17.836   7.257  10.706
68258W        W72219  16.995   5.445   9.639
68259W        W72220  14.844   5.243   7.554
68260W        W72221  17.978   6.901   8.251
68261W        W72222  17.815   4.225   7.870
68262W        W72223  15.954   3.744  10.273
68263W        W72224  17.660   6.546   8.731
68264W        W72225  17.689   5.102   8.636
68265W        W72226  15.806   4.775   8.852
68266W        W72227  16.051   5.037  10.176
68267W        W72228  17.162   6.190  10.039
68268W        W72229  15.812   4.644  10.151
68269W        W72230  15.791   7.110   8.767
68270W        W72231  15.108   7.069  10.401
68271W        W72232  15.220   6.430   7.531
68272W        W72233  17.737   6.188   8.341
68273W        W72234  15.341   4.980  10.227
68274W        W72235  18.114   4.910   7.708
68275W        W72236  15.859   5.967   8.179
68276W        W72237  16.958   5.349  10.260
68277W        W72238  16.849   4.977   9.804
68278W        W72239  15.409   5.349   9.833
68279W        W72240  17.410   3.871  10.656
68280W        W72241  15.074   4.021  10.243
68281W        W72242  15.413   5.044   9.296
68282W        W72243  15.782   4.858   7.418
68283W        W72244  14.585   6.617   9.963
68284W        W72245  16.170   5.326   9.406
68285W        W72246  15.993   4.351   7.511
68286W        W72247  15.128   5.167   8.292
68287W        W72248  14.899   7.019   9.729
68288W        W72249  17.694   5.245   7.837
68289W        W72250  17.789   4.161  10.523
68290W        W72251  17.225   6.370   8.486
68291W        W72252  14.823   5.294  10.663
68292W        W72253  17.789   3.758   7.959
68293W        W72254  17.309   6.233   7.970
68294W        W72255  16.211   5.291   8.055
68295W        W72256  17.398   4.095   7.578
68296W        W72257  17.463   4.702   9.764
68297W        W72258  15.172   5.295   8.971
68298W        W72259  15.466   6.234   8.620
68299W        W72260  17.229   4.854   8.585
68300W        W72261  16.252   4.233   9.281
68301W        W72262  18.214   6.144   9.792
68302W        W72263  18.132   4.131   9.353
68303W        W72264  14.671   6.961   8.729
68304W        W72265  15.180   6.148   8.265
68305W        W72266  15.095   3.765  10.818
68306W        W72267  16.214   6.618  10.920
68307W        W72268  17.969   5.586   8.710
68308W        W72269  17.323   5.763   7.590
68309W        W72270  16.618   7.284   9.802
68310W        W72271  17.475   6.006  10.839
68311W        W72272  16.290   3.716   8.119
68312W        W72273  17.003   4.585   8.978
68313W        W72274  14.689   6.172   9.310
68314W        W72275  15.942   4.134   7.951
68315W        W72276  15.746   5.618  10.800
68316W        W72277  16.740   4.599   8.514
68317W        W72278  16.945   6.009   9.636
68318W        W72279  15.099   6.614  10.071
68319W        W72280  15.690   6.597  10.794
68320W        W72281  15.541   4.394   7.808
68321W        W72282  17.058   4.536   8.133
68322W        W72283  17.016   6.644  10.370
68323W        W72284  15.701   5.236   8.969
68324W        W72285  15.356   6.934   9.834
68325W        W72286  18.101   7.051   7.435
68326W        W72287  14.964   5.723  10.431
68327W        W72288  16.959   5.985   9.119
68328W        W72289  15.395   5.634   8.361
68329W        W72290  15.766   6.641   9.756
68330W        W72291  16.144   4.060   8.797
68331W        W72292  14.755   6.044   7.727
68332W        W72293  16.274   4.995   7.597
68333W        W72294  14.920   5.544   8.616
68334W        W72295  16.210   4.186  10.080
68335W        W72296  17.882   3.895   7.507
68336W        W72297  17.975   5.641  10.606
68337W        W72298  16.629   6.898  10.758
68338W        W72299  18.187   5.992  10.280
68339W        W72300  17.595   6.790  10.891
68340W        W72301  15.334   7.246   9.369
68341W        W72302  18.193   5.868   8.243
68342W        W72303  16.723   5.135   8.756
68343W        W72304  16.490   3.747   8.646
68344W        W72305  15.549   6.731   8.483
68345W        W72306  16.048   4.472   9.708
68346W        W72307  15.748   3.841   9.177
68347W        W72308  14.811   6.663   7.725
68348W        W72309  16.627   6.027   8.443
68349W        W72310  15.502   6.822  10.322
68350W        W72311  14.979   5.645   8.018
68351W        W72312  14.864   4.188   9.017
68352W        W72313  16.412   6.153   9.074
68353W        W72314  14.664   4.007   8.094
68354W        W72315  17.328   5.213  10.021
68355W        W72316  17.205   4.599   7.593
68356W        W72317  17.722   6.271   9.241
68357W        W72318  16.383   6.755   9.072
68358W        W72319  15.795   6.859   7.983
68359W        W72320  17.077   3.762   7.413
68360W        W72321  14.877   7.022   9.154
68361W        W72322  17.074   4.780  10.789
68362W        W72323  15.057   4.310  10.788
68363W        W72324  14.788   4.910   8.121
68364W        W72325  15.479   4.899   7.846
68365W        W72326  17.242   5.226  10.663
68366W        W72327  15.585   5.507   9.372
68367W        W72328  16.190   7.224   8.995
68368W        W72329  17.404   6.686   9.932
68369W        W72330  16.988   6.835   9.043
68370W        W72331  17.007   5.815   8.637
68371W        W72332  16.469   4.040   7.708
68372W        W72333  18.150   3.668   8.430
68373W        W72334  15.838   5.303   7.593
68374W        W72335  18.004   4.640   8.583
68375W        W72336  16.696   5.810   7.460
68376W        W72337  17.632   6.010  10.208
68377W        W72338  17.286   6.711   7.675
68378W        W72339  15.901   4.386  10.581
68379W        W72340  15.721   4.970   9.822
68380W        W72341  17.813   6.465  10.099
68381W        W72342  16.913   4.415  10.476
68382W        W72343  14.757   4.886  10.253
68383W        W72344  16.517   5.363   9.979
68384W        W72345  14.874   6.121   8.636
68385W        W72346  15.021   5.418   9.526
68386W        W72347  17.338   5.704   9.876
68387W        W72348  17.110   7.084  10.687
68388W        W72349  17.006   4.823  10.240
68389W        W72350  17.283   6.877   8.645
68390W        W72351  16.285   6.597   9.968
68391W        W72352  15.770   6.952   9.237
68392W        W72353  17.575   6.123   9.656
68393W        W72354  16.625   6.195  10.793
68394W        W72355  15.230   6.148   9.132
68395W        W72356  17.576   5.907   8.777
68396W        W72357  17.217   6.973   9.528
68397W        W72358  15.195   6.702   9.398
68398W        W72359  16.216   4.754  10.608
68399W        W72360  16.667   6.920   8.119
68400W        W72361  15.975   6.175  10.757
68401W        W72362  16.101   6.413   8.134
68402W        W72363  15.322   5.153   7.393
68403W        W72364  14.661   7.239  14.292
68404W        W72365  15.037   6.132  13.815
68405W        W72366  17.742   5.862  11.585
68406W        W72367  17.872   6.947  13.612
68407W        W72368  15.790   6.938  11.138
68408W        W72369  15.873   5.090  12.121
68409W        W72370  15.388   4.938  12.285
68410W        W72371  16.379   5.753  11.719
68411W        W72372  16.054   6.845  14.074
68412W        W72373  14.703   4.406  14.037
68413W        W72374  15.465   3.686  13.839
68414W        W72375  17.159   4.074  12.726
68415W        W72376  16.808   4.945  11.296
68416W        W72377  17.378   4.379  14.387
68417W        W72378  14.744   4.171  13.512
68418W        W72379  14.843   6.790  14.533
68419W        W72380  16.365   6.180  11.265
68420W        W72381  14.797   4.963  12.958
68421W        W72382  15.690   4.854  14.195
68422W        W72383  18.149   4.713  12.694
68423W        W72384  17.913   5.756  13.553
68424W        W72385  16.221   5.089  12.580
68425W        W72386  16.767   6.428  12.949
68426W        W72387  15.267   5.862  13.181
68427W        W72388  14.626   5.390  12.752
68428W        W72389  15.662   5.362  13.944
68429W        W72390  17.933   5.145  14.198
68430W        W72391  15.549   6.589  12.643
68431W        W72392  16.670   6.278  13.777
68432W        W72393  15.890   4.918  13.002
68433W        W72394  16.182   5.702  12.645
68434W        W72395  17.179   6.475  14.493
68435W        W72396  16.258   5.795  14.503
68436W        W72397  16.239   5.511  13.981
68437W        W72398  14.648   4.902  14.503
68438W        W72399  17.480   6.437  14.102
68439W        W72400  15.061   4.019  12.100
68440W        W72401  15.588   6.277  13.099
68441W        W72402  18.051   6.060  12.389
68442W        W72403  17.464   4.460  12.956
68443W        W72404  17.749   4.413  11.051
68444W        W72405  18.214   5.214  13.357
68445W        W72406  16.181   6.921  13.110
68446W        W72407  17.955   6.387  11.548
68447W        W72408  15.084   7.173  11.302
68448W        W72409  15.477   7.219  11.978
68449W        W72410  15.274   3.973  13.404
68450W        W72411  17.897   4.991  13.679
68451W        W72412  17.302   5.413  12.138
68452W        W72413  17.268   5.101  11.165
68453W        W72414  16.476   6.245  13.305
68454W        W72415  16.282   4.575  12.504
68455W        W72416  16.882   6.662  13.498
68456W        W72417  17.753   5.453  11.920
68457W        W72418  16.655   4.111  11.936
68458W        W72419  15.312   6.805  11.619
68459W        W72420  14.683   4.304  12.218
68460W        W72421  17.469   4.911  12.692
68461W        W72422  14.927   6.528  12.607
68462W        W72423  16.268   6.878  11.477
68463W        W72424  17.660   4.904  10.941
68464W        W72425  14.683   6.662  13.105
68465W        W72426  15.474   6.234  13.585
68466W        W72427  15.847   5.594  12.204
68467W        W72428  15.869   3.999  13.297
68468W        W72429  18.098   3.761  12.594
68469W        W72430  15.317   5.633  11.062
68470W        W72431  14.972   4.666  11.241
68471W        W72432  15.034   6.622  12.035
68472W        W72433  16.165   6.105  12.283
68473W        W72434  17.497   6.964  13.997
68474W        W72435  16.423   4.606  11.681
68475W        W72436  17.806   7.004  12.453
68476W        W72437  17.483   4.857  14.051
68477W        W72438  18.196   6.513  12.185
68478W        W72439  16.823   5.805  13.669
68479W        W72440  14.589   5.356  11.875
68480W        W72441  15.700   5.771  13.448
68481W        W72442  16.904   5.035  11.826
68482W        W72443  16.781   5.525  11.930
68483W        W72444  15.124   4.945  13.404
68484W        W72445  15.109   4.821  14.326
68485W        W72446  14.999   3.738  12.485
68486W        W72447  16.767   4.085  13.046
68487W        W72448  16.415   4.270  14.209
68488W        W72449  16.770   4.419  11.387
68489W        W72450  17.953   6.812  14.141
68490W        W72451  16.920   3.893  14.180
68491W        W72452  17.939   6.194  14.302
68492W        W72453  17.369   4.361  13.898
68493W        W72454  17.169   4.299  12.168
68494W        W72455  17.562   5.433  14.572
68495W        W72456  15.302   7.009  12.558
68496W        W72457  15.960   4.726  11.544
68497W        W72458  15.529   4.010  14.208
68498W        W72459  17.581   4.494  11.889
68499W        W72460  17.948   4.976  11.834
68500W        W72461  15.691   7.193  14.305
68501W        W72462  15.617   3.729  11.540
68502W        W72463  17.938   4.263  12.575
68503W        W72464  18.088   6.512  11.020
68504W        W72465  14.995   5.715  12.722
68505W        W72466  16.912   4.302  10.952
68506W        W72467  18.046   6.634  12.672
68507W        W72468  18.085   3.828  13.422
68508W        W72469  16.530   5.040  13.976
68509W        W72470  16.623   6.379  11.679
68510W        W72471  17.023   5.673  14.419
68511W        W72472  16.697   3.650  12.728
68512W        W72473  15.309   4.553  12.791
68513W        W72474  14.863   5.753  13.565
68514W        W72475  16.722   6.946  12.271
68515W        W72476  17.916   4.543  13.143
68516W        W72477  16.553   6.890  13.910
68517W        W72478  17.896   5.949  11.115
68518W        W72479  16.331   5.432  12.176
68519W        W72480  18.183   3.943  13.917
68520W        W72481  16.332   5.778  13.511
68521W        W72482  16.549   4.664  12.956
68522W        W72483  17.401   4.962  11.794
68523W        W72484  17.688   4.695  11.436
68524W        W72485  17.497   6.735  11.825
68525W        W72486  17.331   6.338  12.621
68526W        W72487  17.227   5.417  11.599
68527W        W72488  16.660   5.627  12.585
68528W        W72489  17.541   5.415  12.652
68529W        W72490  14.916   4.430  13.076
68530W        W72491  17.694   5.482  13.903
68531W        W72492  18.045   7.100  13.049
68532W        W72493  15.975   6.544  12.451
68533W        W72494  16.982   7.077  13.775
68534W        W72495  16.976   4.407  13.539
68535W        W72496  16.183   7.115  13.600
68536W        W72497  17.880   4.069  12.066
68537W        W72498  17.671   5.388  13.367
68538W        W72499  14.654   4.709  13.405
68539W        W72500  17.514   4.504  12.423
68540W        W72501  17.925   4.655  14.200
68541W        W72502  16.810   6.354  12.418
68542W        W72503  16.066   6.945  12.031
68543W        W72504  15.181   4.125  11.289
68544W        W72505  16.285   3.779  13.099
68545W        W72506  15.313   6.899  10.947
68546W        W72507  15.687   5.365  11.698
68547W        W72508  16.341   5.994  14.011
68548W        W72509  16.171   4.352  12.001
68549W        W72510  17.527   3.949  12.429
68550W        W72511  17.247   7.231  12.757
68551W        W72512  16.659   6.879  13.097
68552W        W72513  16.055   5.916  13.058
68553W        W72514  17.825   6.639  13.184
68554W        W72515  15.519   4.142  11.953
68555W        W72516  16.041   6.439  12.913
68556W        W72517  15.524   4.370  10.978
68557W        W72518  16.325   4.979  13.372
68558W        W72519  17.173   3.845  13.242
68559W        W72520  14.593   5.688  13.127
68560W        W72521  16.297   5.506  11.285
68561W        W72522  15.565   3.821  11.055
68562W        W72523  16.303   4.902  12.106
68563W        W72524  17.273   3.878  13.805
68564W        W72525  15.861   5.890  13.914
68565W        W72526  16.665   5.672  14.131
68566W        W72527  17.282   5.702  14.024
68567W        W72528  16.566   3.842  14.529
68568W        W72529  15.788   4.458  12.922
68569W        W72530  15.214   4.414  12.320
68570W        W72531  15.000   7.126  11.996
68571W        W72532  16.332   6.456  14.121
68572W        W72533  15.367   5.941  11.480
68573W        W72534  17.047   5.326  12.701
68574W        W72535  17.327   5.125  13.100
68575W        W72536  16.532   5.799  13.034
68576W        W72537  17.002   6.173  11.166
68577W        W72538  16.674   4.194  12.494
68578W        W72539  18.153   4.472  11.762
68579W        W72540  14.647   7.061  13.793
68580W        W72541  15.064   6.287  13.325
68581W        W72542  14.631   7.133  11.557
68582W        W72543  16.530   4.403  13.363
68583W        W72544  15.893   6.426  11.212
68584W        W72545  17.798   6.808  11.398
68585W        W72546  16.773   5.461  11.412
68586W        W72547  15.616   4.652  11.929
68587W        W72548  16.448   4.562  10.981
68588W        W72549  17.032   6.127  14.159
68589W        W72550  17.385   4.033  11.776
68590W        W72551  14.715   3.881  11.224
68591W        W72552  16.001   6.200  13.514
68592W        W72553  15.800   6.116  12.606
68593W        W72554  15.542   6.068  11.004
68594W        W72555  14.783   6.309  11.772
68595W        W72556  15.287   5.379  14.214
68596W        W72557  15.991   3.939  14.400
68597W        W72558  16.700   4.081  13.756
68598W        W72559  15.895   3.849  12.037
68599W        W72560  16.954   3.926  11.542
68600W        W72561  14.899   3.858  13.119
68601W        W72562  14.947   4.821  12.489
68602W        W72563  17.636   3.929  12.895
68603W        W72564  15.058   4.427  11.709
68604W        W72565  17.629   4.115  13.325
68605W        W72566  18.025   5.318  11.010
68606W        W72567  15.317   4.076  12.829
68607W        W72568  16.431   4.648  13.769
68608W        W72569  14.579   4.338  11.247
68609W        W72570  15.365   5.727  13.808
68610W        W72571  16.723   5.125  12.987
68611W        W72572  16.590   7.204  11.283
68612W        W72573  14.736   5.711  10.980
68613W        W72574  15.471   6.122  14.106
68614W        W72575  14.992   5.289  13.737
68615W        W72576  15.983   5.394  13.531
68616W        W72577  17.751   3.753  13.793
68617W        W72578  18.149   5.363  13.784
68618W        W72579  18.137   5.563  11.470
68619W        W72580  17.000   5.895  11.569
68620W        W72581  17.474   7.195  11.264
68621W        W72582  16.651   5.185  14.406
68622W        W72583  14.981   6.152  14.446
68623W        W72584  18.187   4.074  14.398
68624W        W72585  17.905   5.002  13.019
68625W        W72586  16.213   7.132  14.496
68626W        W72587  16.068   3.761  11.223
68627W        W72588  17.607   6.360  11.166
68628W        W72589  15.376   4.453  14.052
68629W        W72590  15.810   6.447  13.914
68630W        W72591  17.936   4.438  13.712
68631W        W72592  17.147   7.097  11.680
68632W        W72593  17.386   5.716  13.047
68633W        W72594  15.636   4.132  13.714
68634W        W72595  16.105   5.201  14.471
68635W        W72596  15.608   6.380  11.665
68636W        W72597  17.363   5.878  11.929
68637W        W72598  15.131   4.504  13.653
68638W        W72599  16.460   6.566  12.117
68639W        W72600  18.210   5.126  12.298
68640W        W72601  16.432   3.759  14.017
68641W        W72602  17.212   6.464  13.096
68642W        W72603  17.515   6.808  12.804
68643W        W72604  16.734   6.610  11.232
68644W        W72605  14.744   6.502  14.074
68645W        W72606  15.487   4.494  13.312
68646W        W72607  15.457   3.842  12.422
68647W        W72608  17.078   4.684  13.114
68648W        W72609  15.876   5.855  11.314
68649W        W72610  17.874   5.797  12.813
68650W        W72611  15.201   6.555  14.236
68651W        W72612  17.588   7.237  12.033
68652W        W72613  15.687   4.257  12.478
68653W        W72614  15.456   5.750  12.568
68654W        W72615  15.769   7.161  13.318
68655W        W72616  17.836   7.257  14.350
68656W        W72617  16.995   5.445  13.283
68657W        W72618  14.844   5.243  11.198
68658W        W72619  17.978   6.901  11.895
68659W        W72620  17.815   4.225  11.514
68660W        W72621  15.954   3.744  13.917
68661W        W72622  17.660   6.546  12.375
68662W        W72623  17.689   5.102  12.280
68663W        W72624  15.806   4.775  12.496
68664W        W72625  16.051   5.037  13.820
68665W        W72626  17.162   6.190  13.683
68666W        W72627  15.812   4.644  13.795
68667W        W72628  15.791   7.110  12.411
68668W        W72629  15.108   7.069  14.045
68669W        W72630  15.220   6.430  11.175
68670W        W72631  17.737   6.188  11.985
68671W        W72632  15.341   4.980  13.871
68672W        W72633  18.114   4.910  11.352
68673W        W72634  15.859   5.967  11.823
68674W        W72635  16.958   5.349  13.904
68675W        W72636  16.849   4.977  13.448
68676W        W72637  15.409   5.349  13.477
68677W        W72638  17.619   7.237  13.306
68678W        W72639  17.410   3.871  14.300
68679W        W72640  15.074   4.021  13.887
68680W        W72641  15.413   5.044  12.940
68681W        W72642  15.782   4.858  11.062
68682W        W72643  14.585   6.617  13.607
68683W        W72644  16.170   5.326  13.050
68684W        W72645  15.993   4.351  11.155
68685W        W72646  15.128   5.167  11.936
68686W        W72647  14.899   7.019  13.373
68687W        W72648  17.694   5.245  11.481
68688W        W72649  17.789   4.161  14.167
68689W        W72650  17.225   6.370  12.130
68690W        W72651  14.823   5.294  14.307
68691W        W72652  17.789   3.758  11.603
68692W        W72653  17.309   6.233  11.614
68693W        W72654  16.211   5.291  11.699
68694W        W72655  17.398   4.095  11.222
68695W        W72656  17.463   4.702  13.408
68696W        W72657  15.172   5.295  12.615
68697W        W72658  15.466   6.234  12.264
68698W        W72659  17.229   4.854  12.229
68699W        W72660  16.252   4.233  12.925
68700W        W72661  18.214   6.144  13.436
68701W        W72662  18.132   4.131  12.997
68702W        W72663  14.671   6.961  12.373
68703W        W72664  15.180   6.148  11.909
68704W        W72665  15.095   3.765  14.462
68705W        W72666  16.214   6.618  14.564
68706W        W72667  17.969   5.586  12.354
68707W        W72668  17.323   5.763  11.234
68708W        W72669  16.618   7.284  13.446
68709W        W72670  17.475   6.006  14.483
68710W        W72671  16.290   3.716  11.763
68711W        W72672  17.003   4.585  12.622
68712W        W72673  14.689   6.172  12.954
68713W        W72674  15.942   4.134  11.595
68714W        W72675  15.746   5.618  14.444
68715W        W72676  16.740   4.599  12.158
68716W        W72677  16.945   6.009  13.280
68717W        W72678  15.099   6.614  13.715
68718W        W72679  15.690   6.597  14.438
68719W        W72680  15.541   4.394  11.452
68720W        W72681  17.058   4.536  11.777
68721W        W72682  17.016   6.644  14.014
68722W        W72683  15.701   5.236  12.613
68723W        W72684  15.356   6.934  13.478
68724W        W72685  18.101   7.051  11.079
68725W        W72686  14.964   5.723  14.075
68726W        W72687  16.959   5.985  12.763
68727W        W72688  15.395   5.634  12.005
68728W        W72689  15.766   6.641  13.400
68729W        W72690  16.144   4.060  12.441
68730W        W72691  14.755   6.044  11.371
68731W        W72692  16.274   4.995  11.241
68732W        W72693  14.920   5.544  12.260
68733W        W72694  16.210   4.186  13.724
68734W        W72695  17.882   3.895  11.151
68735W        W72696  17.975   5.641  14.250
68736W        W72697  16.629   6.898  14.402
68737W        W72698  18.187   5.992  13.924
68738W        W72699  17.595   6.790  14.535
68739W        W72700  15.334   7.246  13.013
68740W        W72701  18.193   5.868  11.887
68741W        W72702  16.723   5.135  12.400
68742W        W72703  16.490   3.747  12.290
68743W        W72704  15.549   6.731  12.127
68744W        W72705  16.048   4.472  13.352
68745W        W72706  15.748   3.841  12.821
68746W        W72707  14.811   6.663  11.369
68747W        W72708  16.627   6.027  12.087
68748W        W72709  15.502   6.822  13.966
68749W        W72710  14.979   5.645  11.662
68750W        W72711  14.864   4.188  12.661
68751W        W72712  16.412   6.153  12.718
68752W        W72713  14.664   4.007  11.738
68753W        W72714  17.328   5.213  13.665
68754W        W72715  17.205   4.599  11.237
68755W        W72716  17.722   6.271  12.885
68756W        W72717  16.383   6.755  12.716
68757W        W72718  15.795   6.859  11.627
68758W        W72719  17.077   3.762  11.057
68759W        W72720  14.877   7.022  12.798
68760W        W72721  17.074   4.780  14.433
68761W        W72722  15.057   4.310  14.432
68762W        W72723  14.788   4.910  11.765
68763W        W72724  15.479   4.899  11.490
68764W        W72725  17.242   5.226  14.307
68765W        W72726  15.585   5.507  13.016
68766W        W72727  17.059   3.793  12.136
68767W        W72728  16.190   7.224  12.639
68768W        W72729  17.404   6.686  13.576
68769W        W72730  16.988   6.835  12.687
68770W        W72731  17.007   5.815  12.281
68771W        W72732  16.469   4.040  11.352
68772W        W72733  18.150   3.668  12.074
68773W        W72734  15.838   5.303  11.237
68774W        W72735  18.004   4.640  12.227
68775W        W72736  16.696   5.810  11.104
68776W        W72737  17.632   6.010  13.852
68777W        W72738  17.286   6.711  11.319
68778W        W72739  15.901   4.386  14.225
68779W        W72740  15.721   4.970  13.466
68780W        W72741  17.813   6.465  13.743
68781W        W72742  16.913   4.415  14.120
68782W        W72743  14.757   4.886  13.897
68783W        W72744  16.517   5.363  13.623
68784W        W72745  14.874   6.121  12.280
68785W        W72746  15.021   5.418  13.170
68786W        W72747  17.338   5.704  13.520
68787W        W72748  17.110   7.084  14.331
68788W        W72749  17.006   4.823  13.884
68789W        W72750  17.283   6.877  12.289
68790W        W72751  16.285   6.597  13.612
68791W        W72752  15.770   6.952  12.881
68792W        W72753  17.575   6.123  13.300
68793W        W72754  16.625   6.195  14.437
68794W        W72755  15.230   6.148  12.776
68795W        W72756  17.576   5.907  12.421
68796W        W72757  17.217   6.973  13.172
68797W        W72758  15.195   6.702  13.042
68798W        W72759  16.216   4.754  14.252
68799W        W72760  16.667   6.920  11.763
68800W        W72761  15.975   6.175  14.401
68801W        W72762  16.101   6.413  11.778
68802W        W72763  15.322   5.153  11.037
68803W        W72764  14.661   7.239  17.936
68804W        W72765  15.037   6.132  17.459
68805W        W72766  17.742   5.862  15.229
68806W        W72767  17.872   6.947  17.256
68807W        W72768  15.790   6.938  14.782
68808W        W72769  15.873   5.090  15.765
68809W        W72770  15.388   4.938  15.929
68810W        W72771  16.379   5.753  15.363
68811W        W72772  16.054   6.845  17.718
68812W        W72773  14.703   4.406  17.681
68813W        W72774  15.465   3.686  17.483
68814W        W72775  17.159   4.074  16.370
68815W        W72776  16.808   4.945  14.940
68816W        W72777  17.378   4.379  18.031
68817W        W72778  14.744   4.171  17.156
68818W        W72779  14.843   6.790  18.177
68819W        W72780  16.365   6.180  14.909
68820W        W72781  14.797   4.963  16.602
68821W        W72782  15.690   4.854  17.839
68822W        W72783  18.149   4.713  16.338
68823W        W72784  17.913   5.756  17.197
68824W        W72785  16.221   5.089  16.224
68825W        W72786  16.767   6.428  16.593
68826W        W72787  15.267   5.862  16.825
68827W        W72788  14.626   5.390  16.396
68828W        W72789  15.662   5.362  17.588
68829W        W72790  17.933   5.145  17.842
68830W        W72791  15.549   6.589  16.287
68831W        W72792  16.670   6.278  17.421
68832W        W72793  15.890   4.918  16.646
68833W        W72794  16.182   5.702  16.289
68834W        W72795  17.179   6.475  18.137
68835W        W72796  16.258   5.795  18.147
68836W        W72797  16.239   5.511  17.625
68837W        W72798  14.648   4.902  18.147
68838W        W72799  17.480   6.437  17.746
68839W        W72800  15.061   4.019  15.744
68840W        W72801  15.588   6.277  16.743
68841W        W72802  18.051   6.060  16.033
68842W        W72803  17.464   4.460  16.600
68843W        W72804  17.749   4.413  14.695
68844W        W72805  18.214   5.214  17.001
68845W        W72806  16.181   6.921  16.754
68846W        W72807  17.955   6.387  15.192
68847W        W72808  15.084   7.173  14.946
68848W        W72809  15.477   7.219  15.622
68849W        W72810  15.274   3.973  17.048
68850W        W72811  17.897   4.991  17.323
68851W        W72812  17.302   5.413  15.782
68852W        W72813  17.268   5.101  14.809
68853W        W72814  16.476   6.245  16.949
68854W        W72815  16.282   4.575  16.148
68855W        W72816  16.882   6.662  17.142
68856W        W72817  16.655   4.111  15.580
68857W        W72818  15.312   6.805  15.263
68858W        W72819  14.683   4.304  15.862
68859W        W72820  17.469   4.911  16.336
68860W        W72821  14.927   6.528  16.251
68861W        W72822  16.268   6.878  15.121
68862W        W72823  17.660   4.904  14.585
68863W        W72824  14.683   6.662  16.749
68864W        W72825  15.474   6.234  17.229
68865W        W72826  15.869   3.999  16.941
68866W        W72827  18.098   3.761  16.238
68867W        W72828  15.317   5.633  14.706
68868W        W72829  14.972   4.666  14.885
68869W        W72830  15.034   6.622  15.679
68870W        W72831  16.165   6.105  15.927
68871W        W72832  17.497   6.964  17.641
68872W        W72833  16.423   4.606  15.325
68873W        W72834  17.806   7.004  16.097
68874W        W72835  17.483   4.857  17.695
68875W        W72836  18.196   6.513  15.829
68876W        W72837  16.823   5.805  17.313
68877W        W72838  14.589   5.356  15.519
68878W        W72839  15.700   5.771  17.092
68879W        W72840  16.904   5.035  15.470
68880W        W72841  16.781   5.525  15.574
68881W        W72842  15.124   4.945  17.048
68882W        W72843  15.109   4.821  17.970
68883W        W72844  14.999   3.738  16.129
68884W        W72845  16.767   4.085  16.690
68885W        W72846  16.415   4.270  17.853
68886W        W72847  16.770   4.419  15.031
68887W        W72848  17.953   6.812  17.785
68888W        W72849  16.920   3.893  17.824
68889W        W72850  17.939   6.194  17.946
68890W        W72851  17.369   4.361  17.542
68891W        W72852  17.169   4.299  15.812
68892W        W72853  17.562   5.433  18.216
68893W        W72854  15.302   7.009  16.202
68894W        W72855  15.960   4.726  15.188
68895W        W72856  15.529   4.010  17.852
68896W        W72857  17.581   4.494  15.533
68897W        W72858  17.948   4.976  15.478
68898W        W72859  15.691   7.193  17.949
68899W        W72860  15.617   3.729  15.184
68900W        W72861  17.938   4.263  16.219
68901W        W72862  18.088   6.512  14.664
68902W        W72863  16.912   4.302  14.596
68903W        W72864  18.046   6.634  16.316
68904W        W72865  18.085   3.828  17.066
68905W        W72866  16.530   5.040  17.620
68906W        W72867  16.623   6.379  15.323
68907W        W72868  17.023   5.673  18.063
68908W        W72869  16.697   3.650  16.372
68909W        W72870  15.309   4.553  16.435
68910W        W72871  14.863   5.753  17.209
68911W        W72872  16.722   6.946  15.915
68912W        W72873  17.916   4.543  16.787
68913W        W72874  16.553   6.890  17.554
68914W        W72875  17.896   5.949  14.759
68915W        W72876  16.331   5.432  15.820
68916W        W72877  18.183   3.943  17.561
68917W        W72878  16.332   5.778  17.155
68918W        W72879  16.549   4.664  16.600
68919W        W72880  17.401   4.962  15.438
68920W        W72881  17.688   4.695  15.080
68921W        W72882  17.497   6.735  15.469
68922W        W72883  17.331   6.338  16.265
68923W        W72884  17.227   5.417  15.243
68924W        W72885  16.660   5.627  16.229
68925W        W72886  14.916   4.430  16.720
68926W        W72887  17.694   5.482  17.547
68927W        W72888  18.045   7.100  16.693
68928W        W72889  15.975   6.544  16.095
68929W        W72890  16.982   7.077  17.419
68930W        W72891  16.976   4.407  17.183
68931W        W72892  16.183   7.115  17.244
68932W        W72893  17.880   4.069  15.710
68933W        W72894  17.671   5.388  17.011
68934W        W72895  14.654   4.709  17.049
68935W        W72896  17.514   4.504  16.067
68936W        W72897  17.925   4.655  17.844
68937W        W72898  16.810   6.354  16.062
68938W        W72899  16.066   6.945  15.675
68939W        W72900  15.181   4.125  14.933
68940W        W72901  16.285   3.779  16.743
68941W        W72902  15.313   6.899  14.591
68942W        W72903  15.687   5.365  15.342
68943W        W72904  16.341   5.994  17.655
68944W        W72905  16.171   4.352  15.645
68945W        W72906  17.527   3.949  16.073
68946W        W72907  17.247   7.231  16.401
68947W        W72908  16.659   6.879  16.741
68948W        W72909  17.825   6.639  16.828
68949W        W72910  15.519   4.142  15.597
68950W        W72911  16.041   6.439  16.557
68951W        W72912  15.524   4.370  14.622
68952W        W72913  16.325   4.979  17.016
68953W        W72914  17.173   3.845  16.886
68954W        W72915  14.593   5.688  16.771
68955W        W72916  16.297   5.506  14.929
68956W        W72917  15.565   3.821  14.699
68957W        W72918  16.303   4.902  15.750
68958W        W72919  17.273   3.878  17.449
68959W        W72920  15.861   5.890  17.558
68960W        W72921  16.665   5.672  17.775
68961W        W72922  17.282   5.702  17.668
68962W        W72923  16.566   3.842  18.173
68963W        W72924  15.788   4.458  16.566
68964W        W72925  15.214   4.414  15.964
68965W        W72926  15.000   7.126  15.640
68966W        W72927  16.332   6.456  17.765
68967W        W72928  15.367   5.941  15.124
68968W        W72929  17.327   5.125  16.744
68969W        W72930  16.532   5.799  16.678
68970W        W72931  17.002   6.173  14.810
68971W        W72932  16.674   4.194  16.138
68972W        W72933  18.153   4.472  15.406
68973W        W72934  14.647   7.061  17.437
68974W        W72935  15.064   6.287  16.969
68975W        W72936  14.631   7.133  15.201
68976W        W72937  16.530   4.403  17.007
68977W        W72938  15.893   6.426  14.856
68978W        W72939  17.798   6.808  15.042
68979W        W72940  16.773   5.461  15.056
68980W        W72941  15.616   4.652  15.573
68981W        W72942  16.448   4.562  14.625
68982W        W72943  17.032   6.127  17.803
68983W        W72944  17.385   4.033  15.420
68984W        W72945  14.715   3.881  14.868
68985W        W72946  16.001   6.200  17.158
68986W        W72947  15.800   6.116  16.250
68987W        W72948  15.542   6.068  14.648
68988W        W72949  14.783   6.309  15.416
68989W        W72950  15.287   5.379  17.858
68990W        W72951  15.991   3.939  18.044
68991W        W72952  16.700   4.081  17.400
68992W        W72953  15.895   3.849  15.681
68993W        W72954  16.954   3.926  15.186
68994W        W72955  14.899   3.858  16.763
68995W        W72956  14.947   4.821  16.133
68996W        W72957  17.636   3.929  16.539
68997W        W72958  15.058   4.427  15.353
68998W        W72959  17.629   4.115  16.969
68999W        W72960  18.025   5.318  14.654
69000W        W72961  15.317   4.076  16.473
69001W        W72962  16.431   4.648  17.413
69002W        W72963  14.579   4.338  14.891
69003W        W72964  15.365   5.727  17.452
69004W        W72965  16.723   5.125  16.631
69005W        W72966  16.590   7.204  14.927
69006W        W72967  14.736   5.711  14.624
69007W        W72968  15.471   6.122  17.750
69008W        W72969  14.992   5.289  17.381
69009W        W72970  15.983   5.394  17.175
69010W        W72971  17.751   3.753  17.437
69011W        W72972  18.149   5.363  17.428
69012W        W72973  18.137   5.563  15.114
69013W        W72974  17.000   5.895  15.213
69014W        W72975  17.474   7.195  14.908
69015W        W72976  16.651   5.185  18.050
69016W        W72977  14.981   6.152  18.090
69017W        W72978  18.187   4.074  18.042
69018W        W72979  17.905   5.002  16.663
69019W        W72980  16.213   7.132  18.140
69020W        W72981  16.068   3.761  14.867
69021W        W72982  17.607   6.360  14.810
69022W        W72983  15.376   4.453  17.696
69023W        W72984  15.810   6.447  17.558
69024W        W72985  17.936   4.438  17.356
69025W        W72986  17.147   7.097  15.324
69026W        W72987  15.636   4.132  17.358
69027W        W72988  16.105   5.201  18.115
69028W        W72989  15.608   6.380  15.309
69029W        W72990  17.363   5.878  15.573
69030W        W72991  15.131   4.504  17.297
69031W        W72992  16.460   6.566  15.761
69032W        W72993  18.210   5.126  15.942
69033W        W72994  16.432   3.759  17.661
69034W        W72995  17.212   6.464  16.740
69035W        W72996  17.515   6.808  16.448
69036W        W72997  16.734   6.610  14.876
69037W        W72998  14.744   6.502  17.718
69038W        W72999  15.487   4.494  16.956
69039W        W73000  15.457   3.842  16.066
69040W        W73001  17.078   4.684  16.758
69041W        W73002  15.876   5.855  14.958
69042W        W73003  17.874   5.797  16.457
69043W        W73004  15.201   6.555  17.880
69044W        W73005  17.588   7.237  15.677
69045W        W73006  15.687   4.257  16.122
69046W        W73007  15.769   7.161  16.962
69047W        W73008  17.836   7.257  17.994
69048W        W73009  16.995   5.445  16.927
69049W        W73010  14.844   5.243  14.842
69050W        W73011  17.978   6.901  15.539
69051W        W73012  17.815   4.225  15.158
69052W        W73013  15.954   3.744  17.561
69053W        W73014  17.660   6.546  16.019
69054W        W73015  17.689   5.102  15.924
69055W        W73016  15.806   4.775  16.140
69056W        W73017  16.051   5.037  17.464
69057W        W73018  17.162   6.190  17.327
69058W        W73019  15.812   4.644  17.439
69059W        W73020  15.791   7.110  16.055
69060W        W73021  15.108   7.069  17.689
69061W        W73022  15.220   6.430  14.819
69062W        W73023  17.737   6.188  15.629
69063W        W73024  15.341   4.980  17.515
69064W        W73025  18.114   4.910  14.996
69065W        W73026  15.859   5.967  15.467
69066W        W73027  16.958   5.349  17.548
69067W        W73028  16.849   4.977  17.092
69068W        W73029  15.409   5.349  17.121
69069W        W73030  17.619   7.237  16.950
69070W        W73031  17.410   3.871  17.944
69071W        W73032  15.074   4.021  17.531
69072W        W73033  15.413   5.044  16.584
69073W        W73034  15.782   4.858  14.706
69074W        W73035  14.585   6.617  17.251
69075W        W73036  15.993   4.351  14.799
69076W        W73037  15.128   5.167  15.580
69077W        W73038  14.899   7.019  17.017
69078W        W73039  17.694   5.245  15.125
69079W        W73040  17.789   4.161  17.811
69080W        W73041  17.225   6.370  15.774
69081W        W73042  14.823   5.294  17.951
69082W        W73043  17.789   3.758  15.247
69083W        W73044  17.309   6.233  15.258
69084W        W73045  16.211   5.291  15.343
69085W        W73046  17.398   4.095  14.866
69086W        W73047  17.463   4.702  17.052
69087W        W73048  15.172   5.295  16.259
69088W        W73049  15.466   6.234  15.908
69089W        W73050  17.229   4.854  15.873
69090W        W73051  16.252   4.233  16.569
69091W        W73052  18.214   6.144  17.080
69092W        W73053  18.132   4.131  16.641
69093W        W73054  14.671   6.961  16.017
69094W        W73055  15.180   6.148  15.553
69095W        W73056  15.095   3.765  18.106
69096W        W73057  16.214   6.618  18.208
69097W        W73058  17.969   5.586  15.998
69098W        W73059  17.323   5.763  14.878
69099W        W73060  16.618   7.284  17.090
69100W        W73061  17.475   6.006  18.127
69101W        W73062  16.290   3.716  15.407
69102W        W73063  17.003   4.585  16.266
69103W        W73064  14.689   6.172  16.598
69104W        W73065  15.942   4.134  15.239
69105W        W73066  15.746   5.618  18.088
69106W        W73067  16.740   4.599  15.802
69107W        W73068  16.945   6.009  16.924
69108W        W73069  15.099   6.614  17.359
69109W        W73070  15.690   6.597  18.082
69110W        W73071  15.541   4.394  15.096
69111W        W73072  17.058   4.536  15.421
69112W        W73073  17.016   6.644  17.658
69113W        W73074  15.701   5.236  16.257
69114W        W73075  15.356   6.934  17.122
69115W        W73076  18.101   7.051  14.723
69116W        W73077  14.964   5.723  17.719
69117W        W73078  16.959   5.985  16.407
69118W        W73079  15.395   5.634  15.649
69119W        W73080  15.766   6.641  17.044
69120W        W73081  16.144   4.060  16.085
69121W        W73082  14.755   6.044  15.015
69122W        W73083  16.274   4.995  14.885
69123W        W73084  14.920   5.544  15.904
69124W        W73085  16.210   4.186  17.368
69125W        W73086  17.882   3.895  14.795
69126W        W73087  17.975   5.641  17.894
69127W        W73088  16.629   6.898  18.046
69128W        W73089  18.187   5.992  17.568
69129W        W73090  17.595   6.790  18.179
69130W        W73091  15.334   7.246  16.657
69131W        W73092  18.193   5.868  15.531
69132W        W73093  16.723   5.135  16.044
69133W        W73094  16.490   3.747  15.934
69134W        W73095  15.549   6.731  15.771
69135W        W73096  16.048   4.472  16.996
69136W        W73097  15.748   3.841  16.465
69137W        W73098  14.811   6.663  15.013
69138W        W73099  16.627   6.027  15.731
69139W        W73100  15.502   6.822  17.610
69140W        W73101  14.979   5.645  15.306
69141W        W73102  14.864   4.188  16.305
69142W        W73103  16.412   6.153  16.362
69143W        W73104  14.664   4.007  15.382
69144W        W73105  17.328   5.213  17.309
69145W        W73106  17.205   4.599  14.881
69146W        W73107  17.722   6.271  16.529
69147W        W73108  16.383   6.755  16.360
69148W        W73109  15.795   6.859  15.271
69149W        W73110  17.077   3.762  14.701
69150W        W73111  14.877   7.022  16.442
69151W        W73112  17.074   4.780  18.077
69152W        W73113  15.057   4.310  18.076
69153W        W73114  14.788   4.910  15.409
69154W        W73115  15.479   4.899  15.134
69155W        W73116  17.242   5.226  17.951
69156W        W73117  15.585   5.507  16.660
69157W        W73118  17.059   3.793  15.780
69158W        W73119  16.190   7.224  16.283
69159W        W73120  17.404   6.686  17.220
69160W        W73121  16.988   6.835  16.331
69161W        W73122  17.007   5.815  15.925
69162W        W73123  16.469   4.040  14.996
69163W        W73124  18.150   3.668  15.718
69164W        W73125  15.838   5.303  14.881
69165W        W73126  18.004   4.640  15.871
69166W        W73127  16.696   5.810  14.748
69167W        W73128  17.632   6.010  17.496
69168W        W73129  17.286   6.711  14.963
69169W        W73130  15.901   4.386  17.869
69170W        W73131  15.721   4.970  17.110
69171W        W73132  17.813   6.465  17.387
69172W        W73133  16.913   4.415  17.764
69173W        W73134  14.757   4.886  17.541
69174W        W73135  16.517   5.363  17.267
69175W        W73136  14.874   6.121  15.924
69176W        W73137  15.021   5.418  16.814
69177W        W73138  17.338   5.704  17.164
69178W        W73139  17.110   7.084  17.975
69179W        W73140  17.006   4.823  17.528
69180W        W73141  17.283   6.877  15.933
69181W        W73142  16.285   6.597  17.256
69182W        W73143  15.770   6.952  16.525
69183W        W73144  17.575   6.123  16.944
69184W        W73145  16.625   6.195  18.081
69185W        W73146  15.230   6.148  16.420
69186W        W73147  17.217   6.973  16.816
69187W        W73148  15.195   6.702  16.686
69188W        W73149  16.216   4.754  17.896
69189W        W73150  16.667   6.920  15.407
69190W        W73151  15.975   6.175  18.045
69191W        W73152  16.101   6.413  15.422
69192W        W73153  15.322   5.153  14.681
69193W        W73154  14.661   7.239  21.580
69194W        W73155  15.037   6.132  21.103
69195W        W73156  17.742   5.862  18.873
69196W        W73157  17.872   6.947  20.900
69197W        W73158  15.790   6.938  18.426
69198W        W73159  15.873   5.090  19.409
69199W        W73160  15.388   4.938  19.573
69200W        W73161  16.379   5.753  19.007
69201W        W73162  16.054   6.845  21.362
69202W        W73163  14.703   4.406  21.325
69203W        W73164  15.465   3.686  21.127
69204W        W73165  17.159   4.074  20.014
69205W        W73166  16.808   4.945  18.584
69206W        W73167  17.378   4.379  21.675
69207W        W73168  14.744   4.171  20.800
69208W        W73169  14.843   6.790  21.821
69209W        W73170  16.365   6.180  18.553
69210W        W73171  14.797   4.963  20.246
69211W        W73172  15.690   4.854  21.483
69212W        W73173  18.149   4.713  19.982
69213W        W73174  17.913   5.756  20.841
69214W        W73175  16.221   5.089  19.868
69215W        W73176  16.767   6.428  20.237
69216W        W73177  15.267   5.862  20.469
69217W        W73178  14.626   5.390  20.040
69218W        W73179  15.662   5.362  21.232
69219W        W73180  17.933   5.145  21.486
69220W        W73181  15.549   6.589  19.931
69221W        W73182  16.670   6.278  21.065
69222W        W73183  15.890   4.918  20.290
69223W        W73184  16.182   5.702  19.933
69224W        W73185  17.179   6.475  21.781
69225W        W73186  16.258   5.795  21.791
69226W        W73187  16.239   5.511  21.269
69227W        W73188  14.648   4.902  21.791
69228W        W73189  17.480   6.437  21.390
69229W        W73190  15.061   4.019  19.388
69230W        W73191  15.588   6.277  20.387
69231W        W73192  18.051   6.060  19.677
69232W        W73193  17.464   4.460  20.244
69233W        W73194  17.749   4.413  18.339
69234W        W73195  18.214   5.214  20.645
69235W        W73196  16.181   6.921  20.398
69236W        W73197  17.955   6.387  18.836
69237W        W73198  15.084   7.173  18.590
69238W        W73199  15.477   7.219  19.266
69239W        W73200  15.274   3.973  20.692
69240W        W73201  17.897   4.991  20.967
69241W        W73202  17.302   5.413  19.426
69242W        W73203  17.268   5.101  18.453
69243W        W73204  16.476   6.245  20.593
69244W        W73205  16.282   4.575  19.792
69245W        W73206  16.882   6.662  20.786
69246W        W73207  17.753   5.453  19.208
69247W        W73208  16.655   4.111  19.224
69248W        W73209  15.312   6.805  18.907
69249W        W73210  14.683   4.304  19.506
69250W        W73211  17.469   4.911  19.980
69251W        W73212  14.927   6.528  19.895
69252W        W73213  16.268   6.878  18.765
69253W        W73214  17.660   4.904  18.229
69254W        W73215  14.683   6.662  20.393
69255W        W73216  15.474   6.234  20.873
69256W        W73217  15.847   5.594  19.492
69257W        W73218  15.869   3.999  20.585
69258W        W73219  18.098   3.761  19.882
69259W        W73220  15.317   5.633  18.350
69260W        W73221  14.972   4.666  18.529
69261W        W73222  15.034   6.622  19.323
69262W        W73223  16.165   6.105  19.571
69263W        W73224  17.497   6.964  21.285
69264W        W73225  16.423   4.606  18.969
69265W        W73226  17.806   7.004  19.741
69266W        W73227  17.483   4.857  21.339
69267W        W73228  18.196   6.513  19.473
69268W        W73229  16.823   5.805  20.957
69269W        W73230  14.589   5.356  19.163
69270W        W73231  15.700   5.771  20.736
69271W        W73232  16.904   5.035  19.114
69272W        W73233  16.781   5.525  19.218
69273W        W73234  15.124   4.945  20.692
69274W        W73235  15.109   4.821  21.614
69275W        W73236  14.999   3.738  19.773
69276W        W73237  16.767   4.085  20.334
69277W        W73238  16.415   4.270  21.497
69278W        W73239  16.770   4.419  18.675
69279W        W73240  17.953   6.812  21.429
69280W        W73241  16.920   3.893  21.468
69281W        W73242  17.939   6.194  21.590
69282W        W73243  17.369   4.361  21.186
69283W        W73244  17.169   4.299  19.456
69284W        W73245  17.562   5.433  21.860
69285W        W73246  15.302   7.009  19.846
69286W        W73247  15.960   4.726  18.832
69287W        W73248  15.529   4.010  21.496
69288W        W73249  17.581   4.494  19.177
69289W        W73250  17.948   4.976  19.122
69290W        W73251  15.691   7.193  21.593
69291W        W73252  15.617   3.729  18.828
69292W        W73253  17.938   4.263  19.863
69293W        W73254  18.088   6.512  18.308
69294W        W73255  14.995   5.715  20.010
69295W        W73256  16.912   4.302  18.240
69296W        W73257  18.046   6.634  19.960
69297W        W73258  18.085   3.828  20.710
69298W        W73259  16.530   5.040  21.264
69299W        W73260  16.623   6.379  18.967
69300W        W73261  17.023   5.673  21.707
69301W        W73262  16.697   3.650  20.016
69302W        W73263  15.309   4.553  20.079
69303W        W73264  14.863   5.753  20.853
69304W        W73265  16.722   6.946  19.559
69305W        W73266  17.916   4.543  20.431
69306W        W73267  16.553   6.890  21.198
69307W        W73268  17.896   5.949  18.403
69308W        W73269  16.331   5.432  19.464
69309W        W73270  18.183   3.943  21.205
69310W        W73271  16.332   5.778  20.799
69311W        W73272  16.549   4.664  20.244
69312W        W73273  17.401   4.962  19.082
69313W        W73274  17.688   4.695  18.724
69314W        W73275  17.497   6.735  19.113
69315W        W73276  17.331   6.338  19.909
69316W        W73277  17.227   5.417  18.887
69317W        W73278  16.660   5.627  19.873
69318W        W73279  17.541   5.415  19.940
69319W        W73280  14.916   4.430  20.364
69320W        W73281  17.694   5.482  21.191
69321W        W73282  18.045   7.100  20.337
69322W        W73283  15.975   6.544  19.739
69323W        W73284  16.982   7.077  21.063
69324W        W73285  16.976   4.407  20.827
69325W        W73286  16.183   7.115  20.888
69326W        W73287  17.880   4.069  19.354
69327W        W73288  17.671   5.388  20.655
69328W        W73289  14.654   4.709  20.693
69329W        W73290  17.514   4.504  19.711
69330W        W73291  17.925   4.655  21.488
69331W        W73292  16.066   6.945  19.319
69332W        W73293  15.181   4.125  18.577
69333W        W73294  16.285   3.779  20.387
69334W        W73295  15.313   6.899  18.235
69335W        W73296  15.687   5.365  18.986
69336W        W73297  16.341   5.994  21.299
69337W        W73298  16.171   4.352  19.289
69338W        W73299  17.527   3.949  19.717
69339W        W73300  17.247   7.231  20.045
69340W        W73301  16.659   6.879  20.385
69341W        W73302  16.055   5.916  20.346
69342W        W73303  17.825   6.639  20.472
69343W        W73304  15.519   4.142  19.241
69344W        W73305  16.041   6.439  20.201
69345W        W73306  15.524   4.370  18.266
69346W        W73307  16.325   4.979  20.660
69347W        W73308  17.173   3.845  20.530
69348W        W73309  14.593   5.688  20.415
69349W        W73310  16.297   5.506  18.573
69350W        W73311  15.565   3.821  18.343
69351W        W73312  16.303   4.902  19.394
69352W        W73313  17.273   3.878  21.093
69353W        W73314  15.861   5.890  21.202
69354W        W73315  16.665   5.672  21.419
69355W        W73316  17.282   5.702  21.312
69356W        W73317  16.566   3.842  21.817
69357W        W73318  15.788   4.458  20.210
69358W        W73319  15.214   4.414  19.608
69359W        W73320  15.000   7.126  19.284
69360W        W73321  16.332   6.456  21.409
69361W        W73322  15.367   5.941  18.768
69362W        W73323  17.047   5.326  19.989
69363W        W73324  17.327   5.125  20.388
69364W        W73325  16.532   5.799  20.322
69365W        W73326  17.002   6.173  18.454
69366W        W73327  16.674   4.194  19.782
69367W        W73328  18.153   4.472  19.050
69368W        W73329  14.647   7.061  21.081
69369W        W73330  15.064   6.287  20.613
69370W        W73331  14.631   7.133  18.845
69371W        W73332  16.530   4.403  20.651
69372W        W73333  15.893   6.426  18.500
69373W        W73334  17.798   6.808  18.686
69374W        W73335  16.773   5.461  18.700
69375W        W73336  15.616   4.652  19.217
69376W        W73337  16.448   4.562  18.269
69377W        W73338  17.032   6.127  21.447
69378W        W73339  17.385   4.033  19.064
69379W        W73340  14.715   3.881  18.512
69380W        W73341  16.001   6.200  20.802
69381W        W73342  15.800   6.116  19.894
69382W        W73343  15.542   6.068  18.292
69383W        W73344  14.783   6.309  19.060
69384W        W73345  15.287   5.379  21.502
69385W        W73346  15.991   3.939  21.688
69386W        W73347  16.700   4.081  21.044
69387W        W73348  15.895   3.849  19.325
69388W        W73349  16.954   3.926  18.830
69389W        W73350  14.899   3.858  20.407
69390W        W73351  14.947   4.821  19.777
69391W        W73352  17.636   3.929  20.183
69392W        W73353  15.058   4.427  18.997
69393W        W73354  17.629   4.115  20.613
69394W        W73355  18.025   5.318  18.298
69395W        W73356  15.317   4.076  20.117
69396W        W73357  16.431   4.648  21.057
69397W        W73358  14.579   4.338  18.535
69398W        W73359  15.365   5.727  21.096
69399W        W73360  16.723   5.125  20.275
69400W        W73361  16.590   7.204  18.571
69401W        W73362  14.736   5.711  18.268
69402W        W73363  15.471   6.122  21.394
69403W        W73364  14.992   5.289  21.025
69404W        W73365  15.983   5.394  20.819
69405W        W73366  17.751   3.753  21.081
69406W        W73367  18.149   5.363  21.072
69407W        W73368  18.137   5.563  18.758
69408W        W73369  17.000   5.895  18.857
69409W        W73370  17.474   7.195  18.552
69410W        W73371  16.651   5.185  21.694
69411W        W73372  14.981   6.152  21.734
69412W        W73373  18.187   4.074  21.686
69413W        W73374  17.905   5.002  20.307
69414W        W73375  16.213   7.132  21.784
69415W        W73376  16.068   3.761  18.511
69416W        W73377  17.607   6.360  18.454
69417W        W73378  15.376   4.453  21.340
69418W        W73379  15.810   6.447  21.202
69419W        W73380  17.936   4.438  21.000
69420W        W73381  17.147   7.097  18.968
69421W        W73382  17.386   5.716  20.335
69422W        W73383  15.636   4.132  21.002
69423W        W73384  16.105   5.201  21.759
69424W        W73385  15.608   6.380  18.953
69425W        W73386  17.363   5.878  19.217
69426W        W73387  15.131   4.504  20.941
69427W        W73388  16.460   6.566  19.405
69428W        W73389  18.210   5.126  19.586
69429W        W73390  16.432   3.759  21.305
69430W        W73391  17.212   6.464  20.384
69431W        W73392  17.515   6.808  20.092
69432W        W73393  16.734   6.610  18.520
69433W        W73394  14.744   6.502  21.362
69434W        W73395  15.487   4.494  20.600
69435W        W73396  15.457   3.842  19.710
69436W        W73397  17.078   4.684  20.402
69437W        W73398  15.876   5.855  18.602
69438W        W73399  17.874   5.797  20.101
69439W        W73400  15.201   6.555  21.524
69440W        W73401  17.588   7.237  19.321
69441W        W73402  15.687   4.257  19.766
69442W        W73403  15.456   5.750  19.856
69443W        W73404  15.769   7.161  20.606
69444W        W73405  17.836   7.257  21.638
69445W        W73406  16.995   5.445  20.571
69446W        W73407  14.844   5.243  18.486
69447W        W73408  17.978   6.901  19.183
69448W        W73409  17.815   4.225  18.802
69449W        W73410  15.954   3.744  21.205
69450W        W73411  17.660   6.546  19.663
69451W        W73412  17.689   5.102  19.568
69452W        W73413  15.806   4.775  19.784
69453W        W73414  16.051   5.037  21.108
69454W        W73415  17.162   6.190  20.971
69455W        W73416  15.812   4.644  21.083
69456W        W73417  15.791   7.110  19.699
69457W        W73418  15.108   7.069  21.333
69458W        W73419  15.220   6.430  18.463
69459W        W73420  15.341   4.980  21.159
69460W        W73421  18.114   4.910  18.640
69461W        W73422  15.859   5.967  19.111
69462W        W73423  16.958   5.349  21.192
69463W        W73424  16.849   4.977  20.736
69464W        W73425  15.409   5.349  20.765
69465W        W73426  17.619   7.237  20.594
69466W        W73427  17.410   3.871  21.588
69467W        W73428  15.074   4.021  21.175
69468W        W73429  15.413   5.044  20.228
69469W        W73430  15.782   4.858  18.350
69470W        W73431  14.585   6.617  20.895
69471W        W73432  16.170   5.326  20.338
69472W        W73433  15.993   4.351  18.443
69473W        W73434  15.128   5.167  19.224
69474W        W73435  14.899   7.019  20.661
69475W        W73436  17.694   5.245  18.769
69476W        W73437  17.789   4.161  21.455
69477W        W73438  17.225   6.370  19.418
69478W        W73439  14.823   5.294  21.595
69479W        W73440  17.789   3.758  18.891
69480W        W73441  17.309   6.233  18.902
69481W        W73442  16.211   5.291  18.987
69482W        W73443  17.398   4.095  18.510
69483W        W73444  17.463   4.702  20.696
69484W        W73445  15.172   5.295  19.903
69485W        W73446  15.466   6.234  19.552
69486W        W73447  17.229   4.854  19.517
69487W        W73448  16.252   4.233  20.213
69488W        W73449  18.214   6.144  20.724
69489W        W73450  18.132   4.131  20.285
69490W        W73451  14.671   6.961  19.661
69491W        W73452  15.180   6.148  19.197
69492W        W73453  15.095   3.765  21.750
69493W        W73454  16.214   6.618  21.852
69494W        W73455  17.969   5.586  19.642
69495W        W73456  17.323   5.763  18.522
69496W        W73457  16.618   7.284  20.734
69497W        W73458  17.475   6.006  21.771
69498W        W73459  16.290   3.716  19.051
69499W        W73460  17.003   4.585  19.910
69500W        W73461  14.689   6.172  20.242
69501W        W73462  15.942   4.134  18.883
69502W        W73463  15.746   5.618  21.732
69503W        W73464  16.740   4.599  19.446
69504W        W73465  16.945   6.009  20.568
69505W        W73466  15.099   6.614  21.003
69506W        W73467  15.690   6.597  21.726
69507W        W73468  15.541   4.394  18.740
69508W        W73469  17.058   4.536  19.065
69509W        W73470  17.016   6.644  21.302
69510W        W73471  15.701   5.236  19.901
69511W        W73472  15.356   6.934  20.766
69512W        W73473  18.101   7.051  18.367
69513W        W73474  14.964   5.723  21.363
69514W        W73475  15.395   5.634  19.293
69515W        W73476  15.766   6.641  20.688
69516W        W73477  16.144   4.060  19.729
69517W        W73478  14.755   6.044  18.659
69518W        W73479  16.274   4.995  18.529
69519W        W73480  14.920   5.544  19.548
69520W        W73481  16.210   4.186  21.012
69521W        W73482  17.882   3.895  18.439
69522W        W73483  17.975   5.641  21.538
69523W        W73484  16.629   6.898  21.690
69524W        W73485  18.187   5.992  21.212
69525W        W73486  17.595   6.790  21.823
69526W        W73487  15.334   7.246  20.301
69527W        W73488  18.193   5.868  19.175
69528W        W73489  16.723   5.135  19.688
69529W        W73490  16.490   3.747  19.578
69530W        W73491  15.549   6.731  19.415
69531W        W73492  16.048   4.472  20.640
69532W        W73493  15.748   3.841  20.109
69533W        W73494  14.811   6.663  18.657
69534W        W73495  15.502   6.822  21.254
69535W        W73496  14.979   5.645  18.950
69536W        W73497  14.864   4.188  19.949
69537W        W73498  16.412   6.153  20.006
69538W        W73499  14.664   4.007  19.026
69539W        W73500  17.328   5.213  20.953
69540W        W73501  17.205   4.599  18.525
69541W        W73502  17.722   6.271  20.173
69542W        W73503  16.383   6.755  20.004
69543W        W73504  15.795   6.859  18.915
69544W        W73505  17.077   3.762  18.345
69545W        W73506  14.877   7.022  20.086
69546W        W73507  17.074   4.780  21.721
69547W        W73508  15.057   4.310  21.720
69548W        W73509  14.788   4.910  19.053
69549W        W73510  15.479   4.899  18.778
69550W        W73511  17.242   5.226  21.595
69551W        W73512  15.585   5.507  20.304
69552W        W73513  17.059   3.793  19.424
69553W        W73514  16.190   7.224  19.927
69554W        W73515  17.404   6.686  20.864
69555W        W73516  16.988   6.835  19.975
69556W        W73517  16.469   4.040  18.640
69557W        W73518  18.150   3.668  19.362
69558W        W73519  15.838   5.303  18.525
69559W        W73520  18.004   4.640  19.515
69560W        W73521  16.696   5.810  18.392
69561W        W73522  17.632   6.010  21.140
69562W        W73523  17.286   6.711  18.607
69563W        W73524  15.901   4.386  21.513
69564W        W73525  15.721   4.970  20.754
69565W        W73526  17.813   6.465  21.031
69566W        W73527  16.913   4.415  21.408
69567W        W73528  14.757   4.886  21.185
69568W        W73529  16.517   5.363  20.911
69569W        W73530  14.874   6.121  19.568
69570W        W73531  15.021   5.418  20.458
69571W        W73532  17.338   5.704  20.808
69572W        W73533  17.110   7.084  21.619
69573W        W73534  17.006   4.823  21.172
69574W        W73535  17.283   6.877  19.577
69575W        W73536  16.285   6.597  20.900
69576W        W73537  15.770   6.952  20.169
69577W        W73538  17.575   6.123  20.588
69578W        W73539  16.625   6.195  21.725
69579W        W73540  15.230   6.148  20.064
69580W        W73541  17.576   5.907  19.709
69581W        W73542  17.217   6.973  20.460
69582W        W73543  15.195   6.702  20.330
69583W        W73544  16.216   4.754  21.540
69584W        W73545  16.667   6.920  19.051
69585W        W73546  15.975   6.175  21.689
69586W        W73547  16.101   6.413  19.066
69587W        W73548  15.322   5.153  18.325
69588W        W73549  17.742   5.862  22.518
69589W        W73550  15.790   6.938  22.071
69590W        W73551  15.873   5.090  23.054
69591W        W73552  15.388   4.938  23.218
69592W        W73553  16.379   5.753  22.652
69593W        W73554  16.808   4.945  22.229
69594W        W73555  16.365   6.180  22.198
69595W        W73556  15.061   4.019  23.033
69596W        W73557  17.749   4.413  21.984
69597W        W73558  17.955   6.387  22.481
69598W        W73559  15.084   7.173  22.235
69599W        W73560  15.477   7.219  22.911
69600W        W73561  17.302   5.413  23.071
69601W        W73562  17.268   5.101  22.098
69602W        W73563  17.753   5.453  22.853
69603W        W73564  16.655   4.111  22.869
69604W        W73565  15.312   6.805  22.552
69605W        W73566  16.268   6.878  22.410
69606W        W73567  17.660   4.904  21.874
69607W        W73568  15.847   5.594  23.137
69608W        W73569  15.317   5.633  21.995
69609W        W73570  14.972   4.666  22.174
69610W        W73571  15.034   6.622  22.968
69611W        W73572  16.165   6.105  23.216
69612W        W73573  16.423   4.606  22.614
69613W        W73574  14.589   5.356  22.808
69614W        W73575  16.904   5.035  22.759
69615W        W73576  16.781   5.525  22.863
69616W        W73577  16.770   4.419  22.320
69617W        W73578  17.169   4.299  23.101
69618W        W73579  15.960   4.726  22.477
69619W        W73580  17.581   4.494  22.822
69620W        W73581  17.948   4.976  22.767
69621W        W73582  15.617   3.729  22.473
69622W        W73583  18.088   6.512  21.953
69623W        W73584  16.912   4.302  21.885
69624W        W73585  16.623   6.379  22.612
69625W        W73586  16.722   6.946  23.204
69626W        W73587  17.896   5.949  22.048
69627W        W73588  16.331   5.432  23.109
69628W        W73589  17.401   4.962  22.727
69629W        W73590  17.688   4.695  22.369
69630W        W73591  17.497   6.735  22.758
69631W        W73592  17.227   5.417  22.532
69632W        W73593  17.880   4.069  22.999
69633W        W73594  16.066   6.945  22.964
69634W        W73595  15.181   4.125  22.222
69635W        W73596  15.313   6.899  21.880
69636W        W73597  15.687   5.365  22.631
69637W        W73598  16.171   4.352  22.934
69638W        W73599  15.519   4.142  22.886
69639W        W73600  15.524   4.370  21.911
69640W        W73601  16.297   5.506  22.218
69641W        W73602  15.565   3.821  21.988
69642W        W73603  16.303   4.902  23.039
69643W        W73604  15.214   4.414  23.253
69644W        W73605  15.000   7.126  22.929
69645W        W73606  15.367   5.941  22.413
69646W        W73607  17.002   6.173  22.099
69647W        W73608  18.153   4.472  22.695
69648W        W73609  14.631   7.133  22.490
69649W        W73610  15.893   6.426  22.145
69650W        W73611  17.798   6.808  22.331
69651W        W73612  16.773   5.461  22.345
69652W        W73613  15.616   4.652  22.862
69653W        W73614  16.448   4.562  21.914
69654W        W73615  17.385   4.033  22.709
69655W        W73616  14.715   3.881  22.157
69656W        W73617  15.542   6.068  21.937
69657W        W73618  14.783   6.309  22.705
69658W        W73619  15.895   3.849  22.970
69659W        W73620  16.954   3.926  22.475
69660W        W73621  15.058   4.427  22.642
69661W        W73622  18.025   5.318  21.943
69662W        W73623  14.579   4.338  22.180
69663W        W73624  16.590   7.204  22.216
69664W        W73625  14.736   5.711  21.913
69665W        W73626  18.137   5.563  22.403
69666W        W73627  17.000   5.895  22.502
69667W        W73628  17.474   7.195  22.197
69668W        W73629  16.068   3.761  22.156
69669W        W73630  17.607   6.360  22.099
69670W        W73631  17.147   7.097  22.613
69671W        W73632  15.608   6.380  22.598
69672W        W73633  17.363   5.878  22.862
69673W        W73634  16.460   6.566  23.050
69674W        W73635  18.210   5.126  23.231
69675W        W73636  16.734   6.610  22.165
69676W        W73637  15.876   5.855  22.247
69677W        W73638  17.588   7.237  22.966
69678W        W73639  14.844   5.243  22.131
69679W        W73640  17.978   6.901  22.828
69680W        W73641  17.815   4.225  22.447
69681W        W73642  17.689   5.102  23.213
69682W        W73643  15.220   6.430  22.108
69683W        W73644  17.737   6.188  22.918
69684W        W73645  18.114   4.910  22.285
69685W        W73646  15.859   5.967  22.756
69686W        W73647  15.782   4.858  21.995
69687W        W73648  15.993   4.351  22.088
69688W        W73649  15.128   5.167  22.869
69689W        W73650  17.694   5.245  22.414
69690W        W73651  17.225   6.370  23.063
69691W        W73652  17.789   3.758  22.536
69692W        W73653  17.309   6.233  22.547
69693W        W73654  16.211   5.291  22.632
69694W        W73655  17.398   4.095  22.155
69695W        W73656  15.466   6.234  23.197
69696W        W73657  17.229   4.854  23.162
69697W        W73658  14.671   6.961  23.306
69698W        W73659  15.180   6.148  22.842
69699W        W73660  17.969   5.586  23.287
69700W        W73661  17.323   5.763  22.167
69701W        W73662  16.290   3.716  22.696
69702W        W73663  15.942   4.134  22.528
69703W        W73664  16.740   4.599  23.091
69704W        W73665  15.541   4.394  22.385
69705W        W73666  17.058   4.536  22.710
69706W        W73667  18.101   7.051  22.012
69707W        W73668  14.755   6.044  22.304
69708W        W73669  16.274   4.995  22.174
69709W        W73670  14.920   5.544  23.193
69710W        W73671  17.882   3.895  22.084
69711W        W73672  18.193   5.868  22.820
69712W        W73673  16.490   3.747  23.223
69713W        W73674  15.549   6.731  23.060
69714W        W73675  14.811   6.663  22.302
69715W        W73676  16.627   6.027  23.020
69716W        W73677  14.979   5.645  22.595
69717W        W73678  14.664   4.007  22.671
69718W        W73679  17.205   4.599  22.170
69719W        W73680  15.795   6.859  22.560
69720W        W73681  17.077   3.762  21.990
69721W        W73682  14.788   4.910  22.698
69722W        W73683  15.479   4.899  22.423
69723W        W73684  17.007   5.815  23.214
69724W        W73685  16.469   4.040  22.285
69725W        W73686  18.150   3.668  23.007
69726W        W73687  15.838   5.303  22.170
69727W        W73688  18.004   4.640  23.160
69728W        W73689  16.696   5.810  22.037
69729W        W73690  17.286   6.711  22.252
69730W        W73691  14.874   6.121  23.213
69731W        W73692  17.283   6.877  23.222
69732W        W73693  16.667   6.920  22.696
69733W        W73694  16.101   6.413  22.711
69734W        W73695  15.322   5.153  21.970
69735W        W73696  14.661  10.884   3.359
69736W        W73697  15.037   9.777   2.882
69737W        W73698  17.742   9.507   0.652
69738W        W73699  17.872  10.592   2.679
69739W        W73700  15.790  10.583   0.205
69740W        W73701  15.873   8.735   1.188
69741W        W73702  15.388   8.583   1.352
69742W        W73703  16.379   9.398   0.786
69743W        W73704  16.054  10.490   3.141
69744W        W73705  14.703   8.051   3.104
69745W        W73706  15.465   7.331   2.906
69746W        W73707  17.159   7.719   1.793
69747W        W73708  16.808   8.590   0.363
69748W        W73709  17.378   8.024   3.454
69749W        W73710  14.744   7.816   2.579
69750W        W73711  14.843  10.435   3.600
69751W        W73712  16.365   9.825   0.332
69752W        W73713  14.797   8.608   2.025
69753W        W73714  15.690   8.499   3.262
69754W        W73715  18.149   8.358   1.761
69755W        W73716  17.913   9.401   2.620
69756W        W73717  16.221   8.734   1.647
69757W        W73718  16.767  10.073   2.016
69758W        W73719  15.267   9.507   2.248
69759W        W73720  14.626   9.035   1.819
69760W        W73721  15.662   9.007   3.011
69761W        W73722  17.933   8.790   3.265
69762W        W73723  15.549  10.234   1.710
69763W        W73724  16.670   9.923   2.844
69764W        W73725  15.890   8.563   2.069
69765W        W73726  16.182   9.347   1.712
69766W        W73727  17.179  10.120   3.560
69767W        W73728  16.258   9.440   3.570
69768W        W73729  16.239   9.156   3.048
69769W        W73730  14.648   8.547   3.570
69770W        W73731  17.480  10.082   3.169
69771W        W73732  15.061   7.664   1.167
69772W        W73733  15.588   9.922   2.166
69773W        W73734  18.051   9.705   1.456
69774W        W73735  17.464   8.105   2.023
69775W        W73736  17.749   8.058   0.118
69776W        W73737  18.214   8.859   2.424
69777W        W73738  16.181  10.566   2.177
69778W        W73739  17.955  10.032   0.615
69779W        W73740  15.084  10.818   0.369
69780W        W73741  15.477  10.864   1.045
69781W        W73742  15.274   7.618   2.471
69782W        W73743  17.897   8.636   2.746
69783W        W73744  17.302   9.058   1.205
69784W        W73745  17.268   8.746   0.232
69785W        W73746  16.476   9.890   2.372
69786W        W73747  16.282   8.220   1.571
69787W        W73748  16.882  10.307   2.565
69788W        W73749  17.753   9.098   0.987
69789W        W73750  16.655   7.756   1.003
69790W        W73751  15.312  10.450   0.686
69791W        W73752  14.683   7.949   1.285
69792W        W73753  17.469   8.556   1.759
69793W        W73754  14.927  10.173   1.674
69794W        W73755  16.268  10.523   0.544
69795W        W73756  17.660   8.549   0.008
69796W        W73757  14.683  10.307   2.172
69797W        W73758  15.474   9.879   2.652
69798W        W73759  15.847   9.239   1.271
69799W        W73760  15.869   7.644   2.364
69800W        W73761  18.098   7.406   1.661
69801W        W73762  15.317   9.278   0.129
69802W        W73763  14.972   8.311   0.308
69803W        W73764  15.034  10.267   1.102
69804W        W73765  16.165   9.750   1.350
69805W        W73766  17.497  10.609   3.064
69806W        W73767  16.423   8.251   0.748
69807W        W73768  17.806  10.649   1.520
69808W        W73769  17.483   8.502   3.118
69809W        W73770  18.196  10.158   1.252
69810W        W73771  16.823   9.450   2.736
69811W        W73772  14.589   9.001   0.942
69812W        W73773  15.700   9.416   2.515
69813W        W73774  16.904   8.680   0.893
69814W        W73775  16.781   9.170   0.997
69815W        W73776  15.124   8.590   2.471
69816W        W73777  15.109   8.466   3.393
69817W        W73778  14.999   7.383   1.552
69818W        W73779  16.767   7.730   2.113
69819W        W73780  16.415   7.915   3.276
69820W        W73781  16.770   8.064   0.454
69821W        W73782  17.953  10.457   3.208
69822W        W73783  16.920   7.538   3.247
69823W        W73784  17.939   9.839   3.369
69824W        W73785  17.369   8.006   2.965
69825W        W73786  17.169   7.944   1.235
69826W        W73787  17.562   9.078   3.639
69827W        W73788  15.302  10.654   1.625
69828W        W73789  15.960   8.371   0.611
69829W        W73790  15.529   7.655   3.275
69830W        W73791  17.581   8.139   0.956
69831W        W73792  17.948   8.621   0.901
69832W        W73793  15.691  10.838   3.372
69833W        W73794  15.617   7.374   0.607
69834W        W73795  17.938   7.908   1.642
69835W        W73796  18.088  10.157   0.087
69836W        W73797  14.995   9.360   1.789
69837W        W73798  16.912   7.947   0.019
69838W        W73799  18.046  10.279   1.739
69839W        W73800  18.085   7.473   2.489
69840W        W73801  16.530   8.685   3.043
69841W        W73802  16.623  10.024   0.746
69842W        W73803  17.023   9.318   3.486
69843W        W73804  16.697   7.295   1.795
69844W        W73805  15.309   8.198   1.858
69845W        W73806  14.863   9.398   2.632
69846W        W73807  16.722  10.591   1.338
69847W        W73808  17.916   8.188   2.210
69848W        W73809  16.553  10.535   2.977
69849W        W73810  17.896   9.594   0.182
69850W        W73811  16.331   9.077   1.243
69851W        W73812  18.183   7.588   2.984
69852W        W73813  16.332   9.423   2.578
69853W        W73814  16.549   8.309   2.023
69854W        W73815  17.401   8.607   0.861
69855W        W73816  17.688   8.340   0.503
69856W        W73817  17.497  10.380   0.892
69857W        W73818  17.331   9.983   1.688
69858W        W73819  17.227   9.062   0.666
69859W        W73820  16.660   9.272   1.652
69860W        W73821  17.541   9.060   1.719
69861W        W73822  14.916   8.075   2.143
69862W        W73823  17.694   9.127   2.970
69863W        W73824  18.045  10.745   2.116
69864W        W73825  15.975  10.189   1.518
69865W        W73826  16.982  10.722   2.842
69866W        W73827  16.976   8.052   2.606
69867W        W73828  16.183  10.760   2.667
69868W        W73829  17.880   7.714   1.133
69869W        W73830  17.671   9.033   2.434
69870W        W73831  14.654   8.354   2.472
69871W        W73832  17.514   8.149   1.490
69872W        W73833  17.925   8.300   3.267
69873W        W73834  16.810   9.999   1.485
69874W        W73835  16.066  10.590   1.098
69875W        W73836  15.181   7.770   0.356
69876W        W73837  16.285   7.424   2.166
69877W        W73838  15.313  10.544   0.014
69878W        W73839  15.687   9.010   0.765
69879W        W73840  16.341   9.639   3.078
69880W        W73841  16.171   7.997   1.068
69881W        W73842  17.527   7.594   1.496
69882W        W73843  17.247  10.876   1.824
69883W        W73844  16.659  10.524   2.164
69884W        W73845  16.055   9.561   2.125
69885W        W73846  17.825  10.284   2.251
69886W        W73847  15.519   7.787   1.020
69887W        W73848  16.041  10.084   1.980
69888W        W73849  15.524   8.015   0.045
69889W        W73850  16.325   8.624   2.439
69890W        W73851  17.173   7.490   2.309
69891W        W73852  14.593   9.333   2.194
69892W        W73853  16.297   9.151   0.352
69893W        W73854  15.565   7.466   0.122
69894W        W73855  16.303   8.547   1.173
69895W        W73856  17.273   7.523   2.872
69896W        W73857  15.861   9.535   2.981
69897W        W73858  16.665   9.317   3.198
69898W        W73859  17.282   9.347   3.091
69899W        W73860  16.566   7.487   3.596
69900W        W73861  15.788   8.103   1.989
69901W        W73862  15.214   8.059   1.387
69902W        W73863  15.000  10.771   1.063
69903W        W73864  16.332  10.101   3.188
69904W        W73865  15.367   9.586   0.547
69905W        W73866  17.047   8.971   1.768
69906W        W73867  17.327   8.770   2.167
69907W        W73868  16.532   9.444   2.101
69908W        W73869  17.002   9.818   0.233
69909W        W73870  16.674   7.839   1.561
69910W        W73871  18.153   8.117   0.829
69911W        W73872  14.647  10.706   2.860
69912W        W73873  15.064   9.932   2.392
69913W        W73874  14.631  10.778   0.624
69914W        W73875  16.530   8.048   2.430
69915W        W73876  15.893  10.071   0.279
69916W        W73877  17.798  10.453   0.465
69917W        W73878  16.773   9.106   0.479
69918W        W73879  15.616   8.297   0.996
69919W        W73880  16.448   8.207   0.048
69920W        W73881  17.032   9.772   3.226
69921W        W73882  17.385   7.678   0.843
69922W        W73883  14.715   7.526   0.291
69923W        W73884  16.001   9.845   2.581
69924W        W73885  15.800   9.761   1.673
69925W        W73886  15.542   9.713   0.071
69926W        W73887  14.783   9.954   0.839
69927W        W73888  15.287   9.024   3.281
69928W        W73889  15.991   7.584   3.467
69929W        W73890  16.700   7.726   2.823
69930W        W73891  15.895   7.494   1.104
69931W        W73892  16.954   7.571   0.609
69932W        W73893  14.899   7.503   2.186
69933W        W73894  14.947   8.466   1.556
69934W        W73895  17.636   7.574   1.962
69935W        W73896  15.058   8.072   0.776
69936W        W73897  17.629   7.760   2.392
69937W        W73898  18.025   8.963   0.077
69938W        W73899  15.317   7.721   1.896
69939W        W73900  16.431   8.293   2.836
69940W        W73901  14.579   7.983   0.314
69941W        W73902  15.365   9.372   2.875
69942W        W73903  16.723   8.770   2.054
69943W        W73904  16.590  10.849   0.350
69944W        W73905  14.736   9.356   0.047
69945W        W73906  15.471   9.767   3.173
69946W        W73907  14.992   8.934   2.804
69947W        W73908  15.983   9.039   2.598
69948W        W73909  17.751   7.398   2.860
69949W        W73910  18.149   9.008   2.851
69950W        W73911  18.137   9.208   0.537
69951W        W73912  17.000   9.540   0.636
69952W        W73913  17.474  10.840   0.331
69953W        W73914  16.651   8.830   3.473
69954W        W73915  14.981   9.797   3.513
69955W        W73916  18.187   7.719   3.465
69956W        W73917  17.905   8.647   2.086
69957W        W73918  16.213  10.777   3.563
69958W        W73919  16.068   7.406   0.290
69959W        W73920  17.607  10.005   0.233
69960W        W73921  15.376   8.098   3.119
69961W        W73922  15.810  10.092   2.981
69962W        W73923  17.936   8.083   2.779
69963W        W73924  17.147  10.742   0.747
69964W        W73925  17.386   9.361   2.114
69965W        W73926  15.636   7.777   2.781
69966W        W73927  16.105   8.846   3.538
69967W        W73928  15.608  10.025   0.732
69968W        W73929  17.363   9.523   0.996
69969W        W73930  15.131   8.149   2.720
69970W        W73931  16.460  10.211   1.184
69971W        W73932  18.210   8.771   1.365
69972W        W73933  16.432   7.404   3.084
69973W        W73934  17.212  10.109   2.163
69974W        W73935  17.515  10.453   1.871
69975W        W73936  16.734  10.255   0.299
69976W        W73937  14.744  10.147   3.141
69977W        W73938  15.487   8.139   2.379
69978W        W73939  15.457   7.487   1.489
69979W        W73940  17.078   8.329   2.181
69980W        W73941  15.876   9.500   0.381
69981W        W73942  17.874   9.442   1.880
69982W        W73943  15.201  10.200   3.303
69983W        W73944  17.588  10.882   1.100
69984W        W73945  15.687   7.902   1.545
69985W        W73946  15.456   9.395   1.635
69986W        W73947  15.769  10.806   2.385
69987W        W73948  17.836  10.902   3.417
69988W        W73949  16.995   9.090   2.350
69989W        W73950  14.844   8.888   0.265
69990W        W73951  17.978  10.546   0.962
69991W        W73952  17.815   7.870   0.581
69992W        W73953  15.954   7.389   2.984
69993W        W73954  17.660  10.191   1.442
69994W        W73955  17.689   8.747   1.347
69995W        W73956  15.806   8.420   1.563
69996W        W73957  16.051   8.682   2.887
69997W        W73958  17.162   9.835   2.750
69998W        W73959  15.812   8.289   2.862
69999W        W73960  15.791  10.755   1.478
70000W        W73961  15.108  10.714   3.112
70001W        W73962  15.220  10.075   0.242
70002W        W73963  17.737   9.833   1.052
70003W        W73964  15.341   8.625   2.938
70004W        W73965  18.114   8.555   0.419
70005W        W73966  15.859   9.612   0.890
70006W        W73967  16.958   8.994   2.971
70007W        W73968  16.849   8.622   2.515
70008W        W73969  15.409   8.994   2.544
70009W        W73970  17.619  10.882   2.373
70010W        W73971  17.410   7.516   3.367
70011W        W73972  15.074   7.666   2.954
70012W        W73973  15.413   8.689   2.007
70013W        W73974  15.782   8.503   0.129
70014W        W73975  14.585  10.262   2.674
70015W        W73976  16.170   8.971   2.117
70016W        W73977  15.993   7.996   0.222
70017W        W73978  15.128   8.812   1.003
70018W        W73979  14.899  10.664   2.440
70019W        W73980  17.694   8.890   0.548
70020W        W73981  17.789   7.806   3.234
70021W        W73982  17.225  10.015   1.197
70022W        W73983  14.823   8.939   3.374
70023W        W73984  17.789   7.403   0.670
70024W        W73985  17.309   9.878   0.681
70025W        W73986  16.211   8.936   0.766
70026W        W73987  17.398   7.740   0.289
70027W        W73988  17.463   8.347   2.475
70028W        W73989  15.172   8.940   1.682
70029W        W73990  15.466   9.879   1.331
70030W        W73991  17.229   8.499   1.296
70031W        W73992  16.252   7.878   1.992
70032W        W73993  18.214   9.789   2.503
70033W        W73994  18.132   7.776   2.064
70034W        W73995  14.671  10.606   1.440
70035W        W73996  15.180   9.793   0.976
70036W        W73997  15.095   7.410   3.529
70037W        W73998  16.214  10.263   3.631
70038W        W73999  17.969   9.231   1.421
70039W        W74000  17.323   9.408   0.301
70040W        W74001  16.618  10.929   2.513
70041W        W74002  17.475   9.651   3.550
70042W        W74003  16.290   7.361   0.830
70043W        W74004  17.003   8.230   1.689
70044W        W74005  14.689   9.817   2.021
70045W        W74006  15.942   7.779   0.662
70046W        W74007  15.746   9.263   3.511
70047W        W74008  16.740   8.244   1.225
70048W        W74009  16.945   9.654   2.347
70049W        W74010  15.099  10.259   2.782
70050W        W74011  15.690  10.242   3.505
70051W        W74012  15.541   8.039   0.519
70052W        W74013  17.058   8.181   0.844
70053W        W74014  17.016  10.289   3.081
70054W        W74015  15.701   8.881   1.680
70055W        W74016  15.356  10.579   2.545
70056W        W74017  18.101  10.696   0.146
70057W        W74018  14.964   9.368   3.142
70058W        W74019  16.959   9.630   1.830
70059W        W74020  15.395   9.279   1.072
70060W        W74021  15.766  10.286   2.467
70061W        W74022  16.144   7.705   1.508
70062W        W74023  14.755   9.689   0.438
70063W        W74024  16.274   8.640   0.308
70064W        W74025  14.920   9.189   1.327
70065W        W74026  16.210   7.831   2.791
70066W        W74027  17.882   7.540   0.218
70067W        W74028  17.975   9.286   3.317
70068W        W74029  16.629  10.543   3.469
70069W        W74030  18.187   9.637   2.991
70070W        W74031  17.595  10.435   3.602
70071W        W74032  15.334  10.891   2.080
70072W        W74033  18.193   9.513   0.954
70073W        W74034  16.723   8.780   1.467
70074W        W74035  16.490   7.392   1.357
70075W        W74036  15.549  10.376   1.194
70076W        W74037  16.048   8.117   2.419
70077W        W74038  15.748   7.486   1.888
70078W        W74039  14.811  10.308   0.436
70079W        W74040  16.627   9.672   1.154
70080W        W74041  15.502  10.467   3.033
70081W        W74042  14.979   9.290   0.729
70082W        W74043  14.864   7.833   1.728
70083W        W74044  16.412   9.798   1.785
70084W        W74045  14.664   7.652   0.805
70085W        W74046  17.328   8.858   2.732
70086W        W74047  17.205   8.244   0.304
70087W        W74048  17.722   9.916   1.952
70088W        W74049  16.383  10.400   1.783
70089W        W74050  15.795  10.504   0.694
70090W        W74051  17.077   7.407   0.124
70091W        W74052  14.877  10.667   1.865
70092W        W74053  17.074   8.425   3.500
70093W        W74054  15.057   7.955   3.499
70094W        W74055  14.788   8.555   0.832
70095W        W74056  15.479   8.544   0.557
70096W        W74057  17.242   8.871   3.374
70097W        W74058  15.585   9.152   2.083
70098W        W74059  17.059   7.438   1.203
70099W        W74060  16.190  10.869   1.706
70100W        W74061  17.404  10.331   2.643
70101W        W74062  16.988  10.480   1.754
70102W        W74063  17.007   9.460   1.348
70103W        W74064  16.469   7.685   0.419
70104W        W74065  18.150   7.313   1.141
70105W        W74066  15.838   8.948   0.304
70106W        W74067  18.004   8.285   1.294
70107W        W74068  16.696   9.455   0.171
70108W        W74069  17.632   9.655   2.919
70109W        W74070  17.286  10.356   0.386
70110W        W74071  15.901   8.031   3.292
70111W        W74072  15.721   8.615   2.533
70112W        W74073  17.813  10.110   2.810
70113W        W74074  16.913   8.060   3.187
70114W        W74075  14.757   8.531   2.964
70115W        W74076  16.517   9.008   2.690
70116W        W74077  14.874   9.766   1.347
70117W        W74078  15.021   9.063   2.237
70118W        W74079  17.338   9.349   2.587
70119W        W74080  17.110  10.729   3.398
70120W        W74081  17.006   8.468   2.951
70121W        W74082  17.283  10.522   1.356
70122W        W74083  16.285  10.242   2.679
70123W        W74084  15.770  10.597   1.948
70124W        W74085  17.575   9.768   2.367
70125W        W74086  16.625   9.840   3.504
70126W        W74087  15.230   9.793   1.843
70127W        W74088  17.576   9.552   1.488
70128W        W74089  17.217  10.618   2.239
70129W        W74090  15.195  10.347   2.109
70130W        W74091  16.216   8.399   3.319
70131W        W74092  16.667  10.565   0.830
70132W        W74093  15.975   9.820   3.468
70133W        W74094  16.101  10.058   0.845
70134W        W74095  15.322   8.798   0.104
70135W        W74096  14.661  10.884   7.003
70136W        W74097  15.037   9.777   6.526
70137W        W74098  17.742   9.507   4.296
70138W        W74099  17.872  10.592   6.323
70139W        W74100  15.790  10.583   3.849
70140W        W74101  15.873   8.735   4.832
70141W        W74102  15.388   8.583   4.996
70142W        W74103  16.379   9.398   4.430
70143W        W74104  16.054  10.490   6.785
70144W        W74105  14.703   8.051   6.748
70145W        W74106  15.465   7.331   6.550
70146W        W74107  17.159   7.719   5.437
70147W        W74108  16.808   8.590   4.007
70148W        W74109  17.378   8.024   7.098
70149W        W74110  14.744   7.816   6.223
70150W        W74111  14.843  10.435   7.244
70151W        W74112  16.365   9.825   3.976
70152W        W74113  14.797   8.608   5.669
70153W        W74114  15.690   8.499   6.906
70154W        W74115  18.149   8.358   5.405
70155W        W74116  17.913   9.401   6.264
70156W        W74117  16.221   8.734   5.291
70157W        W74118  16.767  10.073   5.660
70158W        W74119  15.267   9.507   5.892
70159W        W74120  14.626   9.035   5.463
70160W        W74121  15.662   9.007   6.655
70161W        W74122  17.933   8.790   6.909
70162W        W74123  15.549  10.234   5.354
70163W        W74124  16.670   9.923   6.488
70164W        W74125  15.890   8.563   5.713
70165W        W74126  16.182   9.347   5.356
70166W        W74127  17.179  10.120   7.204
70167W        W74128  16.258   9.440   7.214
70168W        W74129  16.239   9.156   6.692
70169W        W74130  14.648   8.547   7.214
70170W        W74131  17.480  10.082   6.813
70171W        W74132  15.061   7.664   4.811
70172W        W74133  15.588   9.922   5.810
70173W        W74134  18.051   9.705   5.100
70174W        W74135  17.464   8.105   5.667
70175W        W74136  17.749   8.058   3.762
70176W        W74137  18.214   8.859   6.068
70177W        W74138  16.181  10.566   5.821
70178W        W74139  17.955  10.032   4.259
70179W        W74140  15.084  10.818   4.013
70180W        W74141  15.477  10.864   4.689
70181W        W74142  15.274   7.618   6.115
70182W        W74143  17.897   8.636   6.390
70183W        W74144  17.302   9.058   4.849
70184W        W74145  17.268   8.746   3.876
70185W        W74146  16.476   9.890   6.016
70186W        W74147  16.282   8.220   5.215
70187W        W74148  16.882  10.307   6.209
70188W        W74149  17.753   9.098   4.631
70189W        W74150  16.655   7.756   4.647
70190W        W74151  15.312  10.450   4.330
70191W        W74152  14.683   7.949   4.929
70192W        W74153  17.469   8.556   5.403
70193W        W74154  14.927  10.173   5.318
70194W        W74155  16.268  10.523   4.188
70195W        W74156  17.660   8.549   3.652
70196W        W74157  14.683  10.307   5.816
70197W        W74158  15.474   9.879   6.296
70198W        W74159  15.847   9.239   4.915
70199W        W74160  15.869   7.644   6.008
70200W        W74161  18.098   7.406   5.305
70201W        W74162  15.317   9.278   3.773
70202W        W74163  14.972   8.311   3.952
70203W        W74164  15.034  10.267   4.746
70204W        W74165  16.165   9.750   4.994
70205W        W74166  17.497  10.609   6.708
70206W        W74167  16.423   8.251   4.392
70207W        W74168  17.806  10.649   5.164
70208W        W74169  17.483   8.502   6.762
70209W        W74170  18.196  10.158   4.896
70210W        W74171  16.823   9.450   6.380
70211W        W74172  14.589   9.001   4.586
70212W        W74173  15.700   9.416   6.159
70213W        W74174  16.904   8.680   4.537
70214W        W74175  16.781   9.170   4.641
70215W        W74176  15.124   8.590   6.115
70216W        W74177  15.109   8.466   7.037
70217W        W74178  14.999   7.383   5.196
70218W        W74179  16.767   7.730   5.757
70219W        W74180  16.415   7.915   6.920
70220W        W74181  16.770   8.064   4.098
70221W        W74182  17.953  10.457   6.852
70222W        W74183  16.920   7.538   6.891
70223W        W74184  17.939   9.839   7.013
70224W        W74185  17.369   8.006   6.609
70225W        W74186  17.169   7.944   4.879
70226W        W74187  17.562   9.078   7.283
70227W        W74188  15.302  10.654   5.269
70228W        W74189  15.960   8.371   4.255
70229W        W74190  15.529   7.655   6.919
70230W        W74191  17.581   8.139   4.600
70231W        W74192  17.948   8.621   4.545
70232W        W74193  15.691  10.838   7.016
70233W        W74194  15.617   7.374   4.251
70234W        W74195  17.938   7.908   5.286
70235W        W74196  18.088  10.157   3.731
70236W        W74197  14.995   9.360   5.433
70237W        W74198  16.912   7.947   3.663
70238W        W74199  18.046  10.279   5.383
70239W        W74200  18.085   7.473   6.133
70240W        W74201  16.530   8.685   6.687
70241W        W74202  16.623  10.024   4.390
70242W        W74203  17.023   9.318   7.130
70243W        W74204  16.697   7.295   5.439
70244W        W74205  15.309   8.198   5.502
70245W        W74206  14.863   9.398   6.276
70246W        W74207  16.722  10.591   4.982
70247W        W74208  17.916   8.188   5.854
70248W        W74209  16.553  10.535   6.621
70249W        W74210  17.896   9.594   3.826
70250W        W74211  16.331   9.077   4.887
70251W        W74212  18.183   7.588   6.628
70252W        W74213  16.332   9.423   6.222
70253W        W74214  16.549   8.309   5.667
70254W        W74215  17.401   8.607   4.505
70255W        W74216  17.688   8.340   4.147
70256W        W74217  17.497  10.380   4.536
70257W        W74218  17.331   9.983   5.332
70258W        W74219  17.227   9.062   4.310
70259W        W74220  16.660   9.272   5.296
70260W        W74221  17.541   9.060   5.363
70261W        W74222  14.916   8.075   5.787
70262W        W74223  17.694   9.127   6.614
70263W        W74224  18.045  10.745   5.760
70264W        W74225  15.975  10.189   5.162
70265W        W74226  16.982  10.722   6.486
70266W        W74227  16.976   8.052   6.250
70267W        W74228  16.183  10.760   6.311
70268W        W74229  17.880   7.714   4.777
70269W        W74230  17.671   9.033   6.078
70270W        W74231  14.654   8.354   6.116
70271W        W74232  17.514   8.149   5.134
70272W        W74233  17.925   8.300   6.911
70273W        W74234  16.810   9.999   5.129
70274W        W74235  16.066  10.590   4.742
70275W        W74236  15.181   7.770   4.000
70276W        W74237  16.285   7.424   5.810
70277W        W74238  15.313  10.544   3.658
70278W        W74239  15.687   9.010   4.409
70279W        W74240  16.341   9.639   6.722
70280W        W74241  16.171   7.997   4.712
70281W        W74242  17.527   7.594   5.140
70282W        W74243  17.247  10.876   5.468
70283W        W74244  16.659  10.524   5.808
70284W        W74245  16.055   9.561   5.769
70285W        W74246  17.825  10.284   5.895
70286W        W74247  15.519   7.787   4.664
70287W        W74248  16.041  10.084   5.624
70288W        W74249  15.524   8.015   3.689
70289W        W74250  16.325   8.624   6.083
70290W        W74251  17.173   7.490   5.953
70291W        W74252  14.593   9.333   5.838
70292W        W74253  16.297   9.151   3.996
70293W        W74254  15.565   7.466   3.766
70294W        W74255  16.303   8.547   4.817
70295W        W74256  17.273   7.523   6.516
70296W        W74257  15.861   9.535   6.625
70297W        W74258  16.665   9.317   6.842
70298W        W74259  17.282   9.347   6.735
70299W        W74260  16.566   7.487   7.240
70300W        W74261  15.788   8.103   5.633
70301W        W74262  15.214   8.059   5.031
70302W        W74263  15.000  10.771   4.707
70303W        W74264  16.332  10.101   6.832
70304W        W74265  15.367   9.586   4.191
70305W        W74266  17.047   8.971   5.412
70306W        W74267  17.327   8.770   5.811
70307W        W74268  16.532   9.444   5.745
70308W        W74269  17.002   9.818   3.877
70309W        W74270  16.674   7.839   5.205
70310W        W74271  18.153   8.117   4.473
70311W        W74272  14.647  10.706   6.504
70312W        W74273  15.064   9.932   6.036
70313W        W74274  14.631  10.778   4.268
70314W        W74275  16.530   8.048   6.074
70315W        W74276  15.893  10.071   3.923
70316W        W74277  17.798  10.453   4.109
70317W        W74278  16.773   9.106   4.123
70318W        W74279  15.616   8.297   4.640
70319W        W74280  16.448   8.207   3.692
70320W        W74281  17.032   9.772   6.870
70321W        W74282  17.385   7.678   4.487
70322W        W74283  14.715   7.526   3.935
70323W        W74284  16.001   9.845   6.225
70324W        W74285  15.800   9.761   5.317
70325W        W74286  15.542   9.713   3.715
70326W        W74287  14.783   9.954   4.483
70327W        W74288  15.287   9.024   6.925
70328W        W74289  15.991   7.584   7.111
70329W        W74290  16.700   7.726   6.467
70330W        W74291  15.895   7.494   4.748
70331W        W74292  16.954   7.571   4.253
70332W        W74293  14.899   7.503   5.830
70333W        W74294  14.947   8.466   5.200
70334W        W74295  17.636   7.574   5.606
70335W        W74296  15.058   8.072   4.420
70336W        W74297  17.629   7.760   6.036
70337W        W74298  18.025   8.963   3.721
70338W        W74299  15.317   7.721   5.540
70339W        W74300  16.431   8.293   6.480
70340W        W74301  14.579   7.983   3.958
70341W        W74302  15.365   9.372   6.519
70342W        W74303  16.723   8.770   5.698
70343W        W74304  16.590  10.849   3.994
70344W        W74305  14.736   9.356   3.691
70345W        W74306  15.471   9.767   6.817
70346W        W74307  14.992   8.934   6.448
70347W        W74308  15.983   9.039   6.242
70348W        W74309  17.751   7.398   6.504
70349W        W74310  18.149   9.008   6.495
70350W        W74311  18.137   9.208   4.181
70351W        W74312  17.000   9.540   4.280
70352W        W74313  17.474  10.840   3.975
70353W        W74314  16.651   8.830   7.117
70354W        W74315  14.981   9.797   7.157
70355W        W74316  18.187   7.719   7.109
70356W        W74317  17.905   8.647   5.730
70357W        W74318  16.213  10.777   7.207
70358W        W74319  16.068   7.406   3.934
70359W        W74320  17.607  10.005   3.877
70360W        W74321  15.376   8.098   6.763
70361W        W74322  15.810  10.092   6.625
70362W        W74323  17.936   8.083   6.423
70363W        W74324  17.147  10.742   4.391
70364W        W74325  17.386   9.361   5.758
70365W        W74326  15.636   7.777   6.425
70366W        W74327  16.105   8.846   7.182
70367W        W74328  15.608  10.025   4.376
70368W        W74329  17.363   9.523   4.640
70369W        W74330  15.131   8.149   6.364
70370W        W74331  16.460  10.211   4.828
70371W        W74332  18.210   8.771   5.009
70372W        W74333  16.432   7.404   6.728
70373W        W74334  17.212  10.109   5.807
70374W        W74335  17.515  10.453   5.515
70375W        W74336  16.734  10.255   3.943
70376W        W74337  14.744  10.147   6.785
70377W        W74338  15.487   8.139   6.023
70378W        W74339  15.457   7.487   5.133
70379W        W74340  17.078   8.329   5.825
70380W        W74341  15.876   9.500   4.025
70381W        W74342  17.874   9.442   5.524
70382W        W74343  15.201  10.200   6.947
70383W        W74344  17.588  10.882   4.744
70384W        W74345  15.687   7.902   5.189
70385W        W74346  15.456   9.395   5.279
70386W        W74347  15.769  10.806   6.029
70387W        W74348  17.836  10.902   7.061
70388W        W74349  16.995   9.090   5.994
70389W        W74350  14.844   8.888   3.909
70390W        W74351  17.978  10.546   4.606
70391W        W74352  17.815   7.870   4.225
70392W        W74353  15.954   7.389   6.628
70393W        W74354  17.660  10.191   5.086
70394W        W74355  17.689   8.747   4.991
70395W        W74356  15.806   8.420   5.207
70396W        W74357  16.051   8.682   6.531
70397W        W74358  17.162   9.835   6.394
70398W        W74359  15.812   8.289   6.506
70399W        W74360  15.791  10.755   5.122
70400W        W74361  15.108  10.714   6.756
70401W        W74362  15.220  10.075   3.886
70402W        W74363  17.737   9.833   4.696
70403W        W74364  15.341   8.625   6.582
70404W        W74365  18.114   8.555   4.063
70405W        W74366  15.859   9.612   4.534
70406W        W74367  16.958   8.994   6.615
70407W        W74368  16.849   8.622   6.159
70408W        W74369  15.409   8.994   6.188
70409W        W74370  17.619  10.882   6.017
70410W        W74371  17.410   7.516   7.011
70411W        W74372  15.074   7.666   6.598
70412W        W74373  15.413   8.689   5.651
70413W        W74374  15.782   8.503   3.773
70414W        W74375  14.585  10.262   6.318
70415W        W74376  16.170   8.971   5.761
70416W        W74377  15.993   7.996   3.866
70417W        W74378  15.128   8.812   4.647
70418W        W74379  14.899  10.664   6.084
70419W        W74380  17.694   8.890   4.192
70420W        W74381  17.789   7.806   6.878
70421W        W74382  17.225  10.015   4.841
70422W        W74383  14.823   8.939   7.018
70423W        W74384  17.789   7.403   4.314
70424W        W74385  17.309   9.878   4.325
70425W        W74386  16.211   8.936   4.410
70426W        W74387  17.398   7.740   3.933
70427W        W74388  17.463   8.347   6.119
70428W        W74389  15.172   8.940   5.326
70429W        W74390  15.466   9.879   4.975
70430W        W74391  17.229   8.499   4.940
70431W        W74392  16.252   7.878   5.636
70432W        W74393  18.214   9.789   6.147
70433W        W74394  18.132   7.776   5.708
70434W        W74395  14.671  10.606   5.084
70435W        W74396  15.180   9.793   4.620
70436W        W74397  15.095   7.410   7.173
70437W        W74398  16.214  10.263   7.275
70438W        W74399  17.969   9.231   5.065
70439W        W74400  17.323   9.408   3.945
70440W        W74401  16.618  10.929   6.157
70441W        W74402  17.475   9.651   7.194
70442W        W74403  16.290   7.361   4.474
70443W        W74404  17.003   8.230   5.333
70444W        W74405  14.689   9.817   5.665
70445W        W74406  15.942   7.779   4.306
70446W        W74407  15.746   9.263   7.155
70447W        W74408  16.740   8.244   4.869
70448W        W74409  16.945   9.654   5.991
70449W        W74410  15.099  10.259   6.426
70450W        W74411  15.690  10.242   7.149
70451W        W74412  15.541   8.039   4.163
70452W        W74413  17.058   8.181   4.488
70453W        W74414  17.016  10.289   6.725
70454W        W74415  15.701   8.881   5.324
70455W        W74416  15.356  10.579   6.189
70456W        W74417  18.101  10.696   3.790
70457W        W74418  14.964   9.368   6.786
70458W        W74419  16.959   9.630   5.474
70459W        W74420  15.395   9.279   4.716
70460W        W74421  15.766  10.286   6.111
70461W        W74422  16.144   7.705   5.152
70462W        W74423  14.755   9.689   4.082
70463W        W74424  16.274   8.640   3.952
70464W        W74425  14.920   9.189   4.971
70465W        W74426  16.210   7.831   6.435
70466W        W74427  17.882   7.540   3.862
70467W        W74428  17.975   9.286   6.961
70468W        W74429  16.629  10.543   7.113
70469W        W74430  18.187   9.637   6.635
70470W        W74431  17.595  10.435   7.246
70471W        W74432  15.334  10.891   5.724
70472W        W74433  18.193   9.513   4.598
70473W        W74434  16.723   8.780   5.111
70474W        W74435  16.490   7.392   5.001
70475W        W74436  15.549  10.376   4.838
70476W        W74437  16.048   8.117   6.063
70477W        W74438  15.748   7.486   5.532
70478W        W74439  14.811  10.308   4.080
70479W        W74440  16.627   9.672   4.798
70480W        W74441  15.502  10.467   6.677
70481W        W74442  14.979   9.290   4.373
70482W        W74443  14.864   7.833   5.372
70483W        W74444  16.412   9.798   5.429
70484W        W74445  14.664   7.652   4.449
70485W        W74446  17.328   8.858   6.376
70486W        W74447  17.205   8.244   3.948
70487W        W74448  17.722   9.916   5.596
70488W        W74449  16.383  10.400   5.427
70489W        W74450  15.795  10.504   4.338
70490W        W74451  17.077   7.407   3.768
70491W        W74452  14.877  10.667   5.509
70492W        W74453  17.074   8.425   7.144
70493W        W74454  15.057   7.955   7.143
70494W        W74455  14.788   8.555   4.476
70495W        W74456  15.479   8.544   4.201
70496W        W74457  17.242   8.871   7.018
70497W        W74458  15.585   9.152   5.727
70498W        W74459  17.059   7.438   4.847
70499W        W74460  16.190  10.869   5.350
70500W        W74461  17.404  10.331   6.287
70501W        W74462  16.988  10.480   5.398
70502W        W74463  17.007   9.460   4.992
70503W        W74464  16.469   7.685   4.063
70504W        W74465  18.150   7.313   4.785
70505W        W74466  15.838   8.948   3.948
70506W        W74467  18.004   8.285   4.938
70507W        W74468  16.696   9.455   3.815
70508W        W74469  17.632   9.655   6.563
70509W        W74470  17.286  10.356   4.030
70510W        W74471  15.901   8.031   6.936
70511W        W74472  15.721   8.615   6.177
70512W        W74473  17.813  10.110   6.454
70513W        W74474  16.913   8.060   6.831
70514W        W74475  14.757   8.531   6.608
70515W        W74476  16.517   9.008   6.334
70516W        W74477  14.874   9.766   4.991
70517W        W74478  15.021   9.063   5.881
70518W        W74479  17.338   9.349   6.231
70519W        W74480  17.110  10.729   7.042
70520W        W74481  17.006   8.468   6.595
70521W        W74482  17.283  10.522   5.000
70522W        W74483  16.285  10.242   6.323
70523W        W74484  15.770  10.597   5.592
70524W        W74485  17.575   9.768   6.011
70525W        W74486  16.625   9.840   7.148
70526W        W74487  15.230   9.793   5.487
70527W        W74488  17.576   9.552   5.132
70528W        W74489  17.217  10.618   5.883
70529W        W74490  15.195  10.347   5.753
70530W        W74491  16.216   8.399   6.963
70531W        W74492  16.667  10.565   4.474
70532W        W74493  15.975   9.820   7.112
70533W        W74494  16.101  10.058   4.489
70534W        W74495  15.322   8.798   3.748
70535W        W74496  14.661  10.884  10.648
70536W        W74497  15.037   9.777  10.171
70537W        W74498  17.742   9.507   7.941
70538W        W74499  17.872  10.592   9.968
70539W        W74500  15.790  10.583   7.494
70540W        W74501  15.873   8.735   8.477
70541W        W74502  15.388   8.583   8.641
70542W        W74503  16.379   9.398   8.075
70543W        W74504  16.054  10.490  10.430
70544W        W74505  14.703   8.051  10.393
70545W        W74506  15.465   7.331  10.195
70546W        W74507  17.159   7.719   9.082
70547W        W74508  16.808   8.590   7.652
70548W        W74509  17.378   8.024  10.743
70549W        W74510  14.744   7.816   9.868
70550W        W74511  14.843  10.435  10.889
70551W        W74512  16.365   9.825   7.621
70552W        W74513  14.797   8.608   9.314
70553W        W74514  15.690   8.499  10.551
70554W        W74515  18.149   8.358   9.050
70555W        W74516  17.913   9.401   9.909
70556W        W74517  16.221   8.734   8.936
70557W        W74518  16.767  10.073   9.305
70558W        W74519  15.267   9.507   9.537
70559W        W74520  14.626   9.035   9.108
70560W        W74521  15.662   9.007  10.300
70561W        W74522  17.933   8.790  10.554
70562W        W74523  15.549  10.234   8.999
70563W        W74524  16.670   9.923  10.133
70564W        W74525  15.890   8.563   9.358
70565W        W74526  16.182   9.347   9.001
70566W        W74527  17.179  10.120  10.849
70567W        W74528  16.258   9.440  10.859
70568W        W74529  16.239   9.156  10.337
70569W        W74530  14.648   8.547  10.859
70570W        W74531  17.480  10.082  10.458
70571W        W74532  15.061   7.664   8.456
70572W        W74533  15.588   9.922   9.455
70573W        W74534  18.051   9.705   8.745
70574W        W74535  17.464   8.105   9.312
70575W        W74536  17.749   8.058   7.407
70576W        W74537  18.214   8.859   9.713
70577W        W74538  16.181  10.566   9.466
70578W        W74539  17.955  10.032   7.904
70579W        W74540  15.084  10.818   7.658
70580W        W74541  15.477  10.864   8.334
70581W        W74542  15.274   7.618   9.760
70582W        W74543  17.897   8.636  10.035
70583W        W74544  17.302   9.058   8.494
70584W        W74545  17.268   8.746   7.521
70585W        W74546  16.476   9.890   9.661
70586W        W74547  16.282   8.220   8.860
70587W        W74548  16.882  10.307   9.854
70588W        W74549  17.753   9.098   8.276
70589W        W74550  16.655   7.756   8.292
70590W        W74551  15.312  10.450   7.975
70591W        W74552  14.683   7.949   8.574
70592W        W74553  17.469   8.556   9.048
70593W        W74554  14.927  10.173   8.963
70594W        W74555  16.268  10.523   7.833
70595W        W74556  17.660   8.549   7.297
70596W        W74557  14.683  10.307   9.461
70597W        W74558  15.474   9.879   9.941
70598W        W74559  15.847   9.239   8.560
70599W        W74560  15.869   7.644   9.653
70600W        W74561  18.098   7.406   8.950
70601W        W74562  15.317   9.278   7.418
70602W        W74563  14.972   8.311   7.597
70603W        W74564  15.034  10.267   8.391
70604W        W74565  16.165   9.750   8.639
70605W        W74566  17.497  10.609  10.353
70606W        W74567  16.423   8.251   8.037
70607W        W74568  17.806  10.649   8.809
70608W        W74569  17.483   8.502  10.407
70609W        W74570  18.196  10.158   8.541
70610W        W74571  16.823   9.450  10.025
70611W        W74572  14.589   9.001   8.231
70612W        W74573  15.700   9.416   9.804
70613W        W74574  16.904   8.680   8.182
70614W        W74575  16.781   9.170   8.286
70615W        W74576  15.124   8.590   9.760
70616W        W74577  15.109   8.466  10.682
70617W        W74578  14.999   7.383   8.841
70618W        W74579  16.767   7.730   9.402
70619W        W74580  16.415   7.915  10.565
70620W        W74581  16.770   8.064   7.743
70621W        W74582  17.953  10.457  10.497
70622W        W74583  16.920   7.538  10.536
70623W        W74584  17.939   9.839  10.658
70624W        W74585  17.369   8.006  10.254
70625W        W74586  17.169   7.944   8.524
70626W        W74587  17.562   9.078  10.928
70627W        W74588  15.302  10.654   8.914
70628W        W74589  15.960   8.371   7.900
70629W        W74590  15.529   7.655  10.564
70630W        W74591  17.581   8.139   8.245
70631W        W74592  17.948   8.621   8.190
70632W        W74593  15.691  10.838  10.661
70633W        W74594  15.617   7.374   7.896
70634W        W74595  17.938   7.908   8.931
70635W        W74596  18.088  10.157   7.376
70636W        W74597  14.995   9.360   9.078
70637W        W74598  16.912   7.947   7.308
70638W        W74599  18.046  10.279   9.028
70639W        W74600  18.085   7.473   9.778
70640W        W74601  16.530   8.685  10.332
70641W        W74602  16.623  10.024   8.035
70642W        W74603  17.023   9.318  10.775
70643W        W74604  16.697   7.295   9.084
70644W        W74605  15.309   8.198   9.147
70645W        W74606  14.863   9.398   9.921
70646W        W74607  16.722  10.591   8.627
70647W        W74608  17.916   8.188   9.499
70648W        W74609  16.553  10.535  10.266
70649W        W74610  17.896   9.594   7.471
70650W        W74611  16.331   9.077   8.532
70651W        W74612  18.183   7.588  10.273
70652W        W74613  16.332   9.423   9.867
70653W        W74614  16.549   8.309   9.312
70654W        W74615  17.401   8.607   8.150
70655W        W74616  17.688   8.340   7.792
70656W        W74617  17.497  10.380   8.181
70657W        W74618  17.331   9.983   8.977
70658W        W74619  17.227   9.062   7.955
70659W        W74620  16.660   9.272   8.941
70660W        W74621  17.541   9.060   9.008
70661W        W74622  14.916   8.075   9.432
70662W        W74623  17.694   9.127  10.259
70663W        W74624  18.045  10.745   9.405
70664W        W74625  15.975  10.189   8.807
70665W        W74626  16.982  10.722  10.131
70666W        W74627  16.976   8.052   9.895
70667W        W74628  16.183  10.760   9.956
70668W        W74629  17.880   7.714   8.422
70669W        W74630  17.671   9.033   9.723
70670W        W74631  14.654   8.354   9.761
70671W        W74632  17.514   8.149   8.779
70672W        W74633  17.925   8.300  10.556
70673W        W74634  16.810   9.999   8.774
70674W        W74635  16.066  10.590   8.387
70675W        W74636  15.181   7.770   7.645
70676W        W74637  16.285   7.424   9.455
70677W        W74638  15.313  10.544   7.303
70678W        W74639  15.687   9.010   8.054
70679W        W74640  16.341   9.639  10.367
70680W        W74641  16.171   7.997   8.357
70681W        W74642  17.527   7.594   8.785
70682W        W74643  17.247  10.876   9.113
70683W        W74644  16.659  10.524   9.453
70684W        W74645  16.055   9.561   9.414
70685W        W74646  17.825  10.284   9.540
70686W        W74647  15.519   7.787   8.309
70687W        W74648  16.041  10.084   9.269
70688W        W74649  15.524   8.015   7.334
70689W        W74650  16.325   8.624   9.728
70690W        W74651  14.593   9.333   9.483
70691W        W74652  16.297   9.151   7.641
70692W        W74653  15.565   7.466   7.411
70693W        W74654  16.303   8.547   8.462
70694W        W74655  17.273   7.523  10.161
70695W        W74656  15.861   9.535  10.270
70696W        W74657  16.665   9.317  10.487
70697W        W74658  17.282   9.347  10.380
70698W        W74659  16.566   7.487  10.885
70699W        W74660  15.788   8.103   9.278
70700W        W74661  15.214   8.059   8.676
70701W        W74662  15.000  10.771   8.352
70702W        W74663  16.332  10.101  10.477
70703W        W74664  15.367   9.586   7.836
70704W        W74665  17.047   8.971   9.057
70705W        W74666  17.327   8.770   9.456
70706W        W74667  16.532   9.444   9.390
70707W        W74668  17.002   9.818   7.522
70708W        W74669  16.674   7.839   8.850
70709W        W74670  18.153   8.117   8.118
70710W        W74671  14.647  10.706  10.149
70711W        W74672  15.064   9.932   9.681
70712W        W74673  14.631  10.778   7.913
70713W        W74674  16.530   8.048   9.719
70714W        W74675  15.893  10.071   7.568
70715W        W74676  17.798  10.453   7.754
70716W        W74677  16.773   9.106   7.768
70717W        W74678  15.616   8.297   8.285
70718W        W74679  16.448   8.207   7.337
70719W        W74680  17.032   9.772  10.515
70720W        W74681  17.385   7.678   8.132
70721W        W74682  14.715   7.526   7.580
70722W        W74683  16.001   9.845   9.870
70723W        W74684  15.800   9.761   8.962
70724W        W74685  15.542   9.713   7.360
70725W        W74686  14.783   9.954   8.128
70726W        W74687  15.287   9.024  10.570
70727W        W74688  15.991   7.584  10.756
70728W        W74689  16.700   7.726  10.112
70729W        W74690  15.895   7.494   8.393
70730W        W74691  16.954   7.571   7.898
70731W        W74692  14.899   7.503   9.475
70732W        W74693  14.947   8.466   8.845
70733W        W74694  17.636   7.574   9.251
70734W        W74695  15.058   8.072   8.065
70735W        W74696  18.025   8.963   7.366
70736W        W74697  15.317   7.721   9.185
70737W        W74698  16.431   8.293  10.125
70738W        W74699  14.579   7.983   7.603
70739W        W74700  15.365   9.372  10.164
70740W        W74701  16.723   8.770   9.343
70741W        W74702  16.590  10.849   7.639
70742W        W74703  14.736   9.356   7.336
70743W        W74704  15.471   9.767  10.462
70744W        W74705  14.992   8.934  10.093
70745W        W74706  15.983   9.039   9.887
70746W        W74707  18.149   9.008  10.140
70747W        W74708  18.137   9.208   7.826
70748W        W74709  17.000   9.540   7.925
70749W        W74710  17.474  10.840   7.620
70750W        W74711  16.651   8.830  10.762
70751W        W74712  14.981   9.797  10.802
70752W        W74713  18.187   7.719  10.754
70753W        W74714  17.905   8.647   9.375
70754W        W74715  16.213  10.777  10.852
70755W        W74716  16.068   7.406   7.579
70756W        W74717  17.607  10.005   7.522
70757W        W74718  15.376   8.098  10.408
70758W        W74719  15.810  10.092  10.270
70759W        W74720  17.936   8.083  10.068
70760W        W74721  17.147  10.742   8.036
70761W        W74722  17.386   9.361   9.403
70762W        W74723  15.636   7.777  10.070
70763W        W74724  16.105   8.846  10.827
70764W        W74725  15.608  10.025   8.021
70765W        W74726  17.363   9.523   8.285
70766W        W74727  15.131   8.149  10.009
70767W        W74728  16.460  10.211   8.473
70768W        W74729  18.210   8.771   8.654
70769W        W74730  16.432   7.404  10.373
70770W        W74731  17.212  10.109   9.452
70771W        W74732  17.515  10.453   9.160
70772W        W74733  16.734  10.255   7.588
70773W        W74734  14.744  10.147  10.430
70774W        W74735  15.487   8.139   9.668
70775W        W74736  15.457   7.487   8.778
70776W        W74737  17.078   8.329   9.470
70777W        W74738  15.876   9.500   7.670
70778W        W74739  17.874   9.442   9.169
70779W        W74740  15.201  10.200  10.592
70780W        W74741  17.588  10.882   8.389
70781W        W74742  15.687   7.902   8.834
70782W        W74743  15.456   9.395   8.924
70783W        W74744  15.769  10.806   9.674
70784W        W74745  17.836  10.902  10.706
70785W        W74746  16.995   9.090   9.639
70786W        W74747  14.844   8.888   7.554
70787W        W74748  17.978  10.546   8.251
70788W        W74749  17.815   7.870   7.870
70789W        W74750  15.954   7.389  10.273
70790W        W74751  17.660  10.191   8.731
70791W        W74752  17.689   8.747   8.636
70792W        W74753  15.806   8.420   8.852
70793W        W74754  16.051   8.682  10.176
70794W        W74755  17.162   9.835  10.039
70795W        W74756  15.812   8.289  10.151
70796W        W74757  15.791  10.755   8.767
70797W        W74758  15.108  10.714  10.401
70798W        W74759  15.220  10.075   7.531
70799W        W74760  17.737   9.833   8.341
70800W        W74761  15.341   8.625  10.227
70801W        W74762  18.114   8.555   7.708
70802W        W74763  15.859   9.612   8.179
70803W        W74764  16.958   8.994  10.260
70804W        W74765  16.849   8.622   9.804
70805W        W74766  15.409   8.994   9.833
70806W        W74767  17.619  10.882   9.662
70807W        W74768  15.074   7.666  10.243
70808W        W74769  15.413   8.689   9.296
70809W        W74770  15.782   8.503   7.418
70810W        W74771  14.585  10.262   9.963
70811W        W74772  16.170   8.971   9.406
70812W        W74773  15.993   7.996   7.511
70813W        W74774  15.128   8.812   8.292
70814W        W74775  14.899  10.664   9.729
70815W        W74776  17.694   8.890   7.837
70816W        W74777  17.789   7.806  10.523
70817W        W74778  17.225  10.015   8.486
70818W        W74779  14.823   8.939  10.663
70819W        W74780  17.789   7.403   7.959
70820W        W74781  17.309   9.878   7.970
70821W        W74782  16.211   8.936   8.055
70822W        W74783  17.398   7.740   7.578
70823W        W74784  17.463   8.347   9.764
70824W        W74785  15.172   8.940   8.971
70825W        W74786  15.466   9.879   8.620
70826W        W74787  17.229   8.499   8.585
70827W        W74788  16.252   7.878   9.281
70828W        W74789  18.214   9.789   9.792
70829W        W74790  18.132   7.776   9.353
70830W        W74791  14.671  10.606   8.729
70831W        W74792  15.180   9.793   8.265
70832W        W74793  15.095   7.410  10.818
70833W        W74794  16.214  10.263  10.920
70834W        W74795  17.969   9.231   8.710
70835W        W74796  17.323   9.408   7.590
70836W        W74797  16.618  10.929   9.802
70837W        W74798  17.475   9.651  10.839
70838W        W74799  16.290   7.361   8.119
70839W        W74800  17.003   8.230   8.978
70840W        W74801  14.689   9.817   9.310
70841W        W74802  15.942   7.779   7.951
70842W        W74803  15.746   9.263  10.800
70843W        W74804  16.740   8.244   8.514
70844W        W74805  16.945   9.654   9.636
70845W        W74806  15.099  10.259  10.071
70846W        W74807  15.690  10.242  10.794
70847W        W74808  15.541   8.039   7.808
70848W        W74809  17.058   8.181   8.133
70849W        W74810  17.016  10.289  10.370
70850W        W74811  15.701   8.881   8.969
70851W        W74812  15.356  10.579   9.834
70852W        W74813  18.101  10.696   7.435
70853W        W74814  14.964   9.368  10.431
70854W        W74815  16.959   9.630   9.119
70855W        W74816  15.395   9.279   8.361
70856W        W74817  15.766  10.286   9.756
70857W        W74818  16.144   7.705   8.797
70858W        W74819  14.755   9.689   7.727
70859W        W74820  16.274   8.640   7.597
70860W        W74821  14.920   9.189   8.616
70861W        W74822  16.210   7.831  10.080
70862W        W74823  17.882   7.540   7.507
70863W        W74824  17.975   9.286  10.606
70864W        W74825  16.629  10.543  10.758
70865W        W74826  18.187   9.637  10.280
70866W        W74827  17.595  10.435  10.891
70867W        W74828  15.334  10.891   9.369
70868W        W74829  18.193   9.513   8.243
70869W        W74830  16.723   8.780   8.756
70870W        W74831  16.490   7.392   8.646
70871W        W74832  15.549  10.376   8.483
70872W        W74833  16.048   8.117   9.708
70873W        W74834  15.748   7.486   9.177
70874W        W74835  14.811  10.308   7.725
70875W        W74836  16.627   9.672   8.443
70876W        W74837  15.502  10.467  10.322
70877W        W74838  14.979   9.290   8.018
70878W        W74839  14.864   7.833   9.017
70879W        W74840  16.412   9.798   9.074
70880W        W74841  14.664   7.652   8.094
70881W        W74842  17.328   8.858  10.021
70882W        W74843  17.205   8.244   7.593
70883W        W74844  17.722   9.916   9.241
70884W        W74845  16.383  10.400   9.072
70885W        W74846  15.795  10.504   7.983
70886W        W74847  17.077   7.407   7.413
70887W        W74848  14.877  10.667   9.154
70888W        W74849  17.074   8.425  10.789
70889W        W74850  15.057   7.955  10.788
70890W        W74851  14.788   8.555   8.121
70891W        W74852  15.479   8.544   7.846
70892W        W74853  17.242   8.871  10.663
70893W        W74854  15.585   9.152   9.372
70894W        W74855  17.059   7.438   8.492
70895W        W74856  16.190  10.869   8.995
70896W        W74857  17.404  10.331   9.932
70897W        W74858  16.988  10.480   9.043
70898W        W74859  17.007   9.460   8.637
70899W        W74860  16.469   7.685   7.708
70900W        W74861  18.150   7.313   8.430
70901W        W74862  15.838   8.948   7.593
70902W        W74863  18.004   8.285   8.583
70903W        W74864  16.696   9.455   7.460
70904W        W74865  17.632   9.655  10.208
70905W        W74866  17.286  10.356   7.675
70906W        W74867  15.901   8.031  10.581
70907W        W74868  15.721   8.615   9.822
70908W        W74869  17.813  10.110  10.099
70909W        W74870  16.913   8.060  10.476
70910W        W74871  14.757   8.531  10.253
70911W        W74872  16.517   9.008   9.979
70912W        W74873  14.874   9.766   8.636
70913W        W74874  15.021   9.063   9.526
70914W        W74875  17.338   9.349   9.876
70915W        W74876  17.110  10.729  10.687
70916W        W74877  17.006   8.468  10.240
70917W        W74878  17.283  10.522   8.645
70918W        W74879  16.285  10.242   9.968
70919W        W74880  15.770  10.597   9.237
70920W        W74881  17.575   9.768   9.656
70921W        W74882  16.625   9.840  10.793
70922W        W74883  15.230   9.793   9.132
70923W        W74884  17.576   9.552   8.777
70924W        W74885  17.217  10.618   9.528
70925W        W74886  15.195  10.347   9.398
70926W        W74887  16.216   8.399  10.608
70927W        W74888  16.667  10.565   8.119
70928W        W74889  15.975   9.820  10.757
70929W        W74890  16.101  10.058   8.134
70930W        W74891  15.322   8.798   7.393
70931W        W74892  14.661  10.884  14.292
70932W        W74893  15.037   9.777  13.815
70933W        W74894  17.742   9.507  11.585
70934W        W74895  17.872  10.592  13.612
70935W        W74896  15.790  10.583  11.138
70936W        W74897  15.873   8.735  12.121
70937W        W74898  15.388   8.583  12.285
70938W        W74899  16.379   9.398  11.719
70939W        W74900  16.054  10.490  14.074
70940W        W74901  14.703   8.051  14.037
70941W        W74902  15.465   7.331  13.839
70942W        W74903  17.159   7.719  12.726
70943W        W74904  16.808   8.590  11.296
70944W        W74905  17.378   8.024  14.387
70945W        W74906  14.744   7.816  13.512
70946W        W74907  14.843  10.435  14.533
70947W        W74908  16.365   9.825  11.265
70948W        W74909  14.797   8.608  12.958
70949W        W74910  15.690   8.499  14.195
70950W        W74911  18.149   8.358  12.694
70951W        W74912  17.913   9.401  13.553
70952W        W74913  16.221   8.734  12.580
70953W        W74914  16.767  10.073  12.949
70954W        W74915  15.267   9.507  13.181
70955W        W74916  14.626   9.035  12.752
70956W        W74917  15.662   9.007  13.944
70957W        W74918  17.933   8.790  14.198
70958W        W74919  15.549  10.234  12.643
70959W        W74920  16.670   9.923  13.777
70960W        W74921  15.890   8.563  13.002
70961W        W74922  16.182   9.347  12.645
70962W        W74923  17.179  10.120  14.493
70963W        W74924  16.258   9.440  14.503
70964W        W74925  16.239   9.156  13.981
70965W        W74926  14.648   8.547  14.503
70966W        W74927  17.480  10.082  14.102
70967W        W74928  15.061   7.664  12.100
70968W        W74929  15.588   9.922  13.099
70969W        W74930  18.051   9.705  12.389
70970W        W74931  17.464   8.105  12.956
70971W        W74932  17.749   8.058  11.051
70972W        W74933  18.214   8.859  13.357
70973W        W74934  16.181  10.566  13.110
70974W        W74935  17.955  10.032  11.548
70975W        W74936  15.084  10.818  11.302
70976W        W74937  15.477  10.864  11.978
70977W        W74938  15.274   7.618  13.404
70978W        W74939  17.897   8.636  13.679
70979W        W74940  17.302   9.058  12.138
70980W        W74941  17.268   8.746  11.165
70981W        W74942  16.476   9.890  13.305
70982W        W74943  16.282   8.220  12.504
70983W        W74944  16.882  10.307  13.498
70984W        W74945  17.753   9.098  11.920
70985W        W74946  16.655   7.756  11.936
70986W        W74947  15.312  10.450  11.619
70987W        W74948  14.683   7.949  12.218
70988W        W74949  17.469   8.556  12.692
70989W        W74950  14.927  10.173  12.607
70990W        W74951  16.268  10.523  11.477
70991W        W74952  17.660   8.549  10.941
70992W        W74953  14.683  10.307  13.105
70993W        W74954  15.474   9.879  13.585
70994W        W74955  15.847   9.239  12.204
70995W        W74956  15.869   7.644  13.297
70996W        W74957  18.098   7.406  12.594
70997W        W74958  15.317   9.278  11.062
70998W        W74959  14.972   8.311  11.241
70999W        W74960  15.034  10.267  12.035
71000W        W74961  16.165   9.750  12.283
71001W        W74962  17.497  10.609  13.997
71002W        W74963  16.423   8.251  11.681
71003W        W74964  17.806  10.649  12.453
71004W        W74965  17.483   8.502  14.051
71005W        W74966  18.196  10.158  12.185
71006W        W74967  16.823   9.450  13.669
71007W        W74968  14.589   9.001  11.875
71008W        W74969  15.700   9.416  13.448
71009W        W74970  16.904   8.680  11.826
71010W        W74971  16.781   9.170  11.930
71011W        W74972  15.124   8.590  13.404
71012W        W74973  15.109   8.466  14.326
71013W        W74974  14.999   7.383  12.485
71014W        W74975  16.767   7.730  13.046
71015W        W74976  16.415   7.915  14.209
71016W        W74977  16.770   8.064  11.387
71017W        W74978  17.953  10.457  14.141
71018W        W74979  16.920   7.538  14.180
71019W        W74980  17.939   9.839  14.302
71020W        W74981  17.369   8.006  13.898
71021W        W74982  17.169   7.944  12.168
71022W        W74983  17.562   9.078  14.572
71023W        W74984  15.302  10.654  12.558
71024W        W74985  15.960   8.371  11.544
71025W        W74986  15.529   7.655  14.208
71026W        W74987  17.581   8.139  11.889
71027W        W74988  17.948   8.621  11.834
71028W        W74989  15.691  10.838  14.305
71029W        W74990  15.617   7.374  11.540
71030W        W74991  17.938   7.908  12.575
71031W        W74992  18.088  10.157  11.020
71032W        W74993  14.995   9.360  12.722
71033W        W74994  16.912   7.947  10.952
71034W        W74995  18.046  10.279  12.672
71035W        W74996  18.085   7.473  13.422
71036W        W74997  16.530   8.685  13.976
71037W        W74998  16.623  10.024  11.679
71038W        W74999  17.023   9.318  14.419
71039W        W75000  16.697   7.295  12.728
71040W        W75001  15.309   8.198  12.791
71041W        W75002  14.863   9.398  13.565
71042W        W75003  16.722  10.591  12.271
71043W        W75004  17.916   8.188  13.143
71044W        W75005  16.553  10.535  13.910
71045W        W75006  17.896   9.594  11.115
71046W        W75007  16.331   9.077  12.176
71047W        W75008  18.183   7.588  13.917
71048W        W75009  16.332   9.423  13.511
71049W        W75010  16.549   8.309  12.956
71050W        W75011  17.401   8.607  11.794
71051W        W75012  17.688   8.340  11.436
71052W        W75013  17.497  10.380  11.825
71053W        W75014  17.331   9.983  12.621
71054W        W75015  17.227   9.062  11.599
71055W        W75016  16.660   9.272  12.585
71056W        W75017  17.541   9.060  12.652
71057W        W75018  14.916   8.075  13.076
71058W        W75019  17.694   9.127  13.903
71059W        W75020  18.045  10.745  13.049
71060W        W75021  15.975  10.189  12.451
71061W        W75022  16.982  10.722  13.775
71062W        W75023  16.976   8.052  13.539
71063W        W75024  16.183  10.760  13.600
71064W        W75025  17.880   7.714  12.066
71065W        W75026  17.671   9.033  13.367
71066W        W75027  14.654   8.354  13.405
71067W        W75028  17.514   8.149  12.423
71068W        W75029  17.925   8.300  14.200
71069W        W75030  16.810   9.999  12.418
71070W        W75031  16.066  10.590  12.031
71071W        W75032  15.181   7.770  11.289
71072W        W75033  16.285   7.424  13.099
71073W        W75034  15.313  10.544  10.947
71074W        W75035  15.687   9.010  11.698
71075W        W75036  16.341   9.639  14.011
71076W        W75037  16.171   7.997  12.001
71077W        W75038  17.527   7.594  12.429
71078W        W75039  17.247  10.876  12.757
71079W        W75040  16.659  10.524  13.097
71080W        W75041  16.055   9.561  13.058
71081W        W75042  17.825  10.284  13.184
71082W        W75043  15.519   7.787  11.953
71083W        W75044  16.041  10.084  12.913
71084W        W75045  15.524   8.015  10.978
71085W        W75046  16.325   8.624  13.372
71086W        W75047  17.173   7.490  13.242
71087W        W75048  14.593   9.333  13.127
71088W        W75049  16.297   9.151  11.285
71089W        W75050  15.565   7.466  11.055
71090W        W75051  16.303   8.547  12.106
71091W        W75052  17.273   7.523  13.805
71092W        W75053  15.861   9.535  13.914
71093W        W75054  16.665   9.317  14.131
71094W        W75055  17.282   9.347  14.024
71095W        W75056  16.566   7.487  14.529
71096W        W75057  15.788   8.103  12.922
71097W        W75058  15.214   8.059  12.320
71098W        W75059  15.000  10.771  11.996
71099W        W75060  16.332  10.101  14.121
71100W        W75061  15.367   9.586  11.480
71101W        W75062  17.047   8.971  12.701
71102W        W75063  17.327   8.770  13.100
71103W        W75064  16.532   9.444  13.034
71104W        W75065  17.002   9.818  11.166
71105W        W75066  16.674   7.839  12.494
71106W        W75067  18.153   8.117  11.762
71107W        W75068  14.647  10.706  13.793
71108W        W75069  15.064   9.932  13.325
71109W        W75070  14.631  10.778  11.557
71110W        W75071  16.530   8.048  13.363
71111W        W75072  15.893  10.071  11.212
71112W        W75073  17.798  10.453  11.398
71113W        W75074  16.773   9.106  11.412
71114W        W75075  15.616   8.297  11.929
71115W        W75076  16.448   8.207  10.981
71116W        W75077  17.032   9.772  14.159
71117W        W75078  17.385   7.678  11.776
71118W        W75079  14.715   7.526  11.224
71119W        W75080  16.001   9.845  13.514
71120W        W75081  15.800   9.761  12.606
71121W        W75082  15.542   9.713  11.004
71122W        W75083  14.783   9.954  11.772
71123W        W75084  15.287   9.024  14.214
71124W        W75085  15.991   7.584  14.400
71125W        W75086  16.700   7.726  13.756
71126W        W75087  15.895   7.494  12.037
71127W        W75088  16.954   7.571  11.542
71128W        W75089  14.899   7.503  13.119
71129W        W75090  14.947   8.466  12.489
71130W        W75091  17.636   7.574  12.895
71131W        W75092  15.058   8.072  11.709
71132W        W75093  17.629   7.760  13.325
71133W        W75094  18.025   8.963  11.010
71134W        W75095  15.317   7.721  12.829
71135W        W75096  16.431   8.293  13.769
71136W        W75097  14.579   7.983  11.247
71137W        W75098  15.365   9.372  13.808
71138W        W75099  16.723   8.770  12.987
71139W        W75100  16.590  10.849  11.283
71140W        W75101  14.736   9.356  10.980
71141W        W75102  15.471   9.767  14.106
71142W        W75103  14.992   8.934  13.737
71143W        W75104  15.983   9.039  13.531
71144W        W75105  17.751   7.398  13.793
71145W        W75106  18.149   9.008  13.784
71146W        W75107  18.137   9.208  11.470
71147W        W75108  17.000   9.540  11.569
71148W        W75109  17.474  10.840  11.264
71149W        W75110  16.651   8.830  14.406
71150W        W75111  14.981   9.797  14.446
71151W        W75112  18.187   7.719  14.398
71152W        W75113  17.905   8.647  13.019
71153W        W75114  16.213  10.777  14.496
71154W        W75115  16.068   7.406  11.223
71155W        W75116  17.607  10.005  11.166
71156W        W75117  15.376   8.098  14.052
71157W        W75118  15.810  10.092  13.914
71158W        W75119  17.936   8.083  13.712
71159W        W75120  17.147  10.742  11.680
71160W        W75121  17.386   9.361  13.047
71161W        W75122  15.636   7.777  13.714
71162W        W75123  16.105   8.846  14.471
71163W        W75124  15.608  10.025  11.665
71164W        W75125  17.363   9.523  11.929
71165W        W75126  15.131   8.149  13.653
71166W        W75127  16.460  10.211  12.117
71167W        W75128  18.210   8.771  12.298
71168W        W75129  16.432   7.404  14.017
71169W        W75130  17.212  10.109  13.096
71170W        W75131  17.515  10.453  12.804
71171W        W75132  16.734  10.255  11.232
71172W        W75133  14.744  10.147  14.074
71173W        W75134  15.487   8.139  13.312
71174W        W75135  15.457   7.487  12.422
71175W        W75136  17.078   8.329  13.114
71176W        W75137  15.876   9.500  11.314
71177W        W75138  17.874   9.442  12.813
71178W        W75139  15.201  10.200  14.236
71179W        W75140  17.588  10.882  12.033
71180W        W75141  15.687   7.902  12.478
71181W        W75142  15.456   9.395  12.568
71182W        W75143  15.769  10.806  13.318
71183W        W75144  17.836  10.902  14.350
71184W        W75145  16.995   9.090  13.283
71185W        W75146  14.844   8.888  11.198
71186W        W75147  17.978  10.546  11.895
71187W        W75148  17.815   7.870  11.514
71188W        W75149  15.954   7.389  13.917
71189W        W75150  17.660  10.191  12.375
71190W        W75151  17.689   8.747  12.280
71191W        W75152  15.806   8.420  12.496
71192W        W75153  16.051   8.682  13.820
71193W        W75154  17.162   9.835  13.683
71194W        W75155  15.812   8.289  13.795
71195W        W75156  15.791  10.755  12.411
71196W        W75157  15.108  10.714  14.045
71197W        W75158  15.220  10.075  11.175
71198W        W75159  17.737   9.833  11.985
71199W        W75160  15.341   8.625  13.871
71200W        W75161  18.114   8.555  11.352
71201W        W75162  15.859   9.612  11.823
71202W        W75163  16.958   8.994  13.904
71203W        W75164  16.849   8.622  13.448
71204W        W75165  15.409   8.994  13.477
71205W        W75166  17.619  10.882  13.306
71206W        W75167  17.410   7.516  14.300
71207W        W75168  15.074   7.666  13.887
71208W        W75169  15.413   8.689  12.940
71209W        W75170  15.782   8.503  11.062
71210W        W75171  14.585  10.262  13.607
71211W        W75172  16.170   8.971  13.050
71212W        W75173  15.993   7.996  11.155
71213W        W75174  15.128   8.812  11.936
71214W        W75175  14.899  10.664  13.373
71215W        W75176  17.694   8.890  11.481
71216W        W75177  17.789   7.806  14.167
71217W        W75178  17.225  10.015  12.130
71218W        W75179  14.823   8.939  14.307
71219W        W75180  17.789   7.403  11.603
71220W        W75181  17.309   9.878  11.614
71221W        W75182  16.211   8.936  11.699
71222W        W75183  17.398   7.740  11.222
71223W        W75184  17.463   8.347  13.408
71224W        W75185  15.172   8.940  12.615
71225W        W75186  15.466   9.879  12.264
71226W        W75187  17.229   8.499  12.229
71227W        W75188  16.252   7.878  12.925
71228W        W75189  18.214   9.789  13.436
71229W        W75190  18.132   7.776  12.997
71230W        W75191  14.671  10.606  12.373
71231W        W75192  15.180   9.793  11.909
71232W        W75193  15.095   7.410  14.462
71233W        W75194  16.214  10.263  14.564
71234W        W75195  17.969   9.231  12.354
71235W        W75196  17.323   9.408  11.234
71236W        W75197  16.618  10.929  13.446
71237W        W75198  17.475   9.651  14.483
71238W        W75199  16.290   7.361  11.763
71239W        W75200  17.003   8.230  12.622
71240W        W75201  14.689   9.817  12.954
71241W        W75202  15.942   7.779  11.595
71242W        W75203  15.746   9.263  14.444
71243W        W75204  16.740   8.244  12.158
71244W        W75205  16.945   9.654  13.280
71245W        W75206  15.099  10.259  13.715
71246W        W75207  15.690  10.242  14.438
71247W        W75208  15.541   8.039  11.452
71248W        W75209  17.058   8.181  11.777
71249W        W75210  17.016  10.289  14.014
71250W        W75211  15.701   8.881  12.613
71251W        W75212  15.356  10.579  13.478
71252W        W75213  18.101  10.696  11.079
71253W        W75214  14.964   9.368  14.075
71254W        W75215  16.959   9.630  12.763
71255W        W75216  15.395   9.279  12.005
71256W        W75217  15.766  10.286  13.400
71257W        W75218  16.144   7.705  12.441
71258W        W75219  14.755   9.689  11.371
71259W        W75220  16.274   8.640  11.241
71260W        W75221  14.920   9.189  12.260
71261W        W75222  16.210   7.831  13.724
71262W        W75223  17.882   7.540  11.151
71263W        W75224  17.975   9.286  14.250
71264W        W75225  16.629  10.543  14.402
71265W        W75226  18.187   9.637  13.924
71266W        W75227  17.595  10.435  14.535
71267W        W75228  15.334  10.891  13.013
71268W        W75229  18.193   9.513  11.887
71269W        W75230  16.723   8.780  12.400
71270W        W75231  16.490   7.392  12.290
71271W        W75232  15.549  10.376  12.127
71272W        W75233  16.048   8.117  13.352
71273W        W75234  15.748   7.486  12.821
71274W        W75235  14.811  10.308  11.369
71275W        W75236  16.627   9.672  12.087
71276W        W75237  15.502  10.467  13.966
71277W        W75238  14.979   9.290  11.662
71278W        W75239  14.864   7.833  12.661
71279W        W75240  16.412   9.798  12.718
71280W        W75241  14.664   7.652  11.738
71281W        W75242  17.328   8.858  13.665
71282W        W75243  17.205   8.244  11.237
71283W        W75244  17.722   9.916  12.885
71284W        W75245  16.383  10.400  12.716
71285W        W75246  15.795  10.504  11.627
71286W        W75247  17.077   7.407  11.057
71287W        W75248  14.877  10.667  12.798
71288W        W75249  17.074   8.425  14.433
71289W        W75250  15.057   7.955  14.432
71290W        W75251  14.788   8.555  11.765
71291W        W75252  15.479   8.544  11.490
71292W        W75253  17.242   8.871  14.307
71293W        W75254  15.585   9.152  13.016
71294W        W75255  17.059   7.438  12.136
71295W        W75256  16.190  10.869  12.639
71296W        W75257  17.404  10.331  13.576
71297W        W75258  16.988  10.480  12.687
71298W        W75259  17.007   9.460  12.281
71299W        W75260  16.469   7.685  11.352
71300W        W75261  18.150   7.313  12.074
71301W        W75262  15.838   8.948  11.237
71302W        W75263  18.004   8.285  12.227
71303W        W75264  16.696   9.455  11.104
71304W        W75265  17.632   9.655  13.852
71305W        W75266  17.286  10.356  11.319
71306W        W75267  15.901   8.031  14.225
71307W        W75268  15.721   8.615  13.466
71308W        W75269  17.813  10.110  13.743
71309W        W75270  16.913   8.060  14.120
71310W        W75271  14.757   8.531  13.897
71311W        W75272  16.517   9.008  13.623
71312W        W75273  14.874   9.766  12.280
71313W        W75274  15.021   9.063  13.170
71314W        W75275  17.338   9.349  13.520
71315W        W75276  17.110  10.729  14.331
71316W        W75277  17.006   8.468  13.884
71317W        W75278  17.283  10.522  12.289
71318W        W75279  16.285  10.242  13.612
71319W        W75280  15.770  10.597  12.881
71320W        W75281  17.575   9.768  13.300
71321W        W75282  16.625   9.840  14.437
71322W        W75283  15.230   9.793  12.776
71323W        W75284  17.576   9.552  12.421
71324W        W75285  17.217  10.618  13.172
71325W        W75286  15.195  10.347  13.042
71326W        W75287  16.216   8.399  14.252
71327W        W75288  16.667  10.565  11.763
71328W        W75289  15.975   9.820  14.401
71329W        W75290  16.101  10.058  11.778
71330W        W75291  15.322   8.798  11.037
71331W        W75292  14.661  10.884  17.936
71332W        W75293  15.037   9.777  17.459
71333W        W75294  17.742   9.507  15.229
71334W        W75295  17.872  10.592  17.256
71335W        W75296  15.790  10.583  14.782
71336W        W75297  15.873   8.735  15.765
71337W        W75298  15.388   8.583  15.929
71338W        W75299  16.379   9.398  15.363
71339W        W75300  16.054  10.490  17.718
71340W        W75301  14.703   8.051  17.681
71341W        W75302  15.465   7.331  17.483
71342W        W75303  17.159   7.719  16.370
71343W        W75304  16.808   8.590  14.940
71344W        W75305  17.378   8.024  18.031
71345W        W75306  14.744   7.816  17.156
71346W        W75307  14.843  10.435  18.177
71347W        W75308  16.365   9.825  14.909
71348W        W75309  14.797   8.608  16.602
71349W        W75310  15.690   8.499  17.839
71350W        W75311  18.149   8.358  16.338
71351W        W75312  17.913   9.401  17.197
71352W        W75313  16.221   8.734  16.224
71353W        W75314  15.267   9.507  16.825
71354W        W75315  14.626   9.035  16.396
71355W        W75316  15.662   9.007  17.588
71356W        W75317  17.933   8.790  17.842
71357W        W75318  15.549  10.234  16.287
71358W        W75319  16.670   9.923  17.421
71359W        W75320  15.890   8.563  16.646
71360W        W75321  16.182   9.347  16.289
71361W        W75322  17.179  10.120  18.137
71362W        W75323  16.258   9.440  18.147
71363W        W75324  16.239   9.156  17.625
71364W        W75325  14.648   8.547  18.147
71365W        W75326  17.480  10.082  17.746
71366W        W75327  15.061   7.664  15.744
71367W        W75328  15.588   9.922  16.743
71368W        W75329  18.051   9.705  16.033
71369W        W75330  17.464   8.105  16.600
71370W        W75331  17.749   8.058  14.695
71371W        W75332  18.214   8.859  17.001
71372W        W75333  16.181  10.566  16.754
71373W        W75334  17.955  10.032  15.192
71374W        W75335  15.084  10.818  14.946
71375W        W75336  15.477  10.864  15.622
71376W        W75337  15.274   7.618  17.048
71377W        W75338  17.897   8.636  17.323
71378W        W75339  17.302   9.058  15.782
71379W        W75340  17.268   8.746  14.809
71380W        W75341  16.476   9.890  16.949
71381W        W75342  16.282   8.220  16.148
71382W        W75343  16.882  10.307  17.142
71383W        W75344  17.753   9.098  15.564
71384W        W75345  16.655   7.756  15.580
71385W        W75346  15.312  10.450  15.263
71386W        W75347  14.683   7.949  15.862
71387W        W75348  17.469   8.556  16.336
71388W        W75349  14.927  10.173  16.251
71389W        W75350  16.268  10.523  15.121
71390W        W75351  17.660   8.549  14.585
71391W        W75352  14.683  10.307  16.749
71392W        W75353  15.474   9.879  17.229
71393W        W75354  15.847   9.239  15.848
71394W        W75355  15.869   7.644  16.941
71395W        W75356  18.098   7.406  16.238
71396W        W75357  15.317   9.278  14.706
71397W        W75358  14.972   8.311  14.885
71398W        W75359  15.034  10.267  15.679
71399W        W75360  17.497  10.609  17.641
71400W        W75361  16.423   8.251  15.325
71401W        W75362  17.806  10.649  16.097
71402W        W75363  17.483   8.502  17.695
71403W        W75364  18.196  10.158  15.829
71404W        W75365  16.823   9.450  17.313
71405W        W75366  14.589   9.001  15.519
71406W        W75367  15.700   9.416  17.092
71407W        W75368  16.904   8.680  15.470
71408W        W75369  16.781   9.170  15.574
71409W        W75370  15.124   8.590  17.048
71410W        W75371  15.109   8.466  17.970
71411W        W75372  14.999   7.383  16.129
71412W        W75373  16.767   7.730  16.690
71413W        W75374  16.415   7.915  17.853
71414W        W75375  16.770   8.064  15.031
71415W        W75376  17.953  10.457  17.785
71416W        W75377  16.920   7.538  17.824
71417W        W75378  17.939   9.839  17.946
71418W        W75379  17.369   8.006  17.542
71419W        W75380  17.169   7.944  15.812
71420W        W75381  17.562   9.078  18.216
71421W        W75382  15.302  10.654  16.202
71422W        W75383  15.960   8.371  15.188
71423W        W75384  15.529   7.655  17.852
71424W        W75385  17.581   8.139  15.533
71425W        W75386  17.948   8.621  15.478
71426W        W75387  15.691  10.838  17.949
71427W        W75388  15.617   7.374  15.184
71428W        W75389  17.938   7.908  16.219
71429W        W75390  18.088  10.157  14.664
71430W        W75391  14.995   9.360  16.366
71431W        W75392  16.912   7.947  14.596
71432W        W75393  18.046  10.279  16.316
71433W        W75394  18.085   7.473  17.066
71434W        W75395  16.530   8.685  17.620
71435W        W75396  16.623  10.024  15.323
71436W        W75397  17.023   9.318  18.063
71437W        W75398  16.697   7.295  16.372
71438W        W75399  15.309   8.198  16.435
71439W        W75400  14.863   9.398  17.209
71440W        W75401  16.722  10.591  15.915
71441W        W75402  17.916   8.188  16.787
71442W        W75403  16.553  10.535  17.554
71443W        W75404  17.896   9.594  14.759
71444W        W75405  16.331   9.077  15.820
71445W        W75406  18.183   7.588  17.561
71446W        W75407  16.332   9.423  17.155
71447W        W75408  16.549   8.309  16.600
71448W        W75409  17.401   8.607  15.438
71449W        W75410  17.688   8.340  15.080
71450W        W75411  17.497  10.380  15.469
71451W        W75412  17.331   9.983  16.265
71452W        W75413  17.227   9.062  15.243
71453W        W75414  16.660   9.272  16.229
71454W        W75415  17.541   9.060  16.296
71455W        W75416  14.916   8.075  16.720
71456W        W75417  17.694   9.127  17.547
71457W        W75418  18.045  10.745  16.693
71458W        W75419  15.975  10.189  16.095
71459W        W75420  16.982  10.722  17.419
71460W        W75421  16.976   8.052  17.183
71461W        W75422  16.183  10.760  17.244
71462W        W75423  17.880   7.714  15.710
71463W        W75424  17.671   9.033  17.011
71464W        W75425  14.654   8.354  17.049
71465W        W75426  17.514   8.149  16.067
71466W        W75427  17.925   8.300  17.844
71467W        W75428  16.066  10.590  15.675
71468W        W75429  15.181   7.770  14.933
71469W        W75430  16.285   7.424  16.743
71470W        W75431  15.313  10.544  14.591
71471W        W75432  15.687   9.010  15.342
71472W        W75433  16.341   9.639  17.655
71473W        W75434  16.171   7.997  15.645
71474W        W75435  17.527   7.594  16.073
71475W        W75436  17.247  10.876  16.401
71476W        W75437  16.659  10.524  16.741
71477W        W75438  16.055   9.561  16.702
71478W        W75439  17.825  10.284  16.828
71479W        W75440  15.519   7.787  15.597
71480W        W75441  16.041  10.084  16.557
71481W        W75442  15.524   8.015  14.622
71482W        W75443  16.325   8.624  17.016
71483W        W75444  17.173   7.490  16.886
71484W        W75445  14.593   9.333  16.771
71485W        W75446  16.297   9.151  14.929
71486W        W75447  15.565   7.466  14.699
71487W        W75448  16.303   8.547  15.750
71488W        W75449  17.273   7.523  17.449
71489W        W75450  15.861   9.535  17.558
71490W        W75451  16.665   9.317  17.775
71491W        W75452  17.282   9.347  17.668
71492W        W75453  16.566   7.487  18.173
71493W        W75454  15.788   8.103  16.566
71494W        W75455  15.214   8.059  15.964
71495W        W75456  15.000  10.771  15.640
71496W        W75457  16.332  10.101  17.765
71497W        W75458  15.367   9.586  15.124
71498W        W75459  17.047   8.971  16.345
71499W        W75460  17.327   8.770  16.744
71500W        W75461  16.532   9.444  16.678
71501W        W75462  17.002   9.818  14.810
71502W        W75463  16.674   7.839  16.138
71503W        W75464  18.153   8.117  15.406
71504W        W75465  14.647  10.706  17.437
71505W        W75466  15.064   9.932  16.969
71506W        W75467  14.631  10.778  15.201
71507W        W75468  16.530   8.048  17.007
71508W        W75469  15.893  10.071  14.856
71509W        W75470  17.798  10.453  15.042
71510W        W75471  16.773   9.106  15.056
71511W        W75472  15.616   8.297  15.573
71512W        W75473  16.448   8.207  14.625
71513W        W75474  17.032   9.772  17.803
71514W        W75475  17.385   7.678  15.420
71515W        W75476  14.715   7.526  14.868
71516W        W75477  16.001   9.845  17.158
71517W        W75478  15.800   9.761  16.250
71518W        W75479  15.542   9.713  14.648
71519W        W75480  14.783   9.954  15.416
71520W        W75481  15.287   9.024  17.858
71521W        W75482  15.991   7.584  18.044
71522W        W75483  16.700   7.726  17.400
71523W        W75484  15.895   7.494  15.681
71524W        W75485  16.954   7.571  15.186
71525W        W75486  14.899   7.503  16.763
71526W        W75487  14.947   8.466  16.133
71527W        W75488  17.636   7.574  16.539
71528W        W75489  15.058   8.072  15.353
71529W        W75490  17.629   7.760  16.969
71530W        W75491  18.025   8.963  14.654
71531W        W75492  15.317   7.721  16.473
71532W        W75493  16.431   8.293  17.413
71533W        W75494  14.579   7.983  14.891
71534W        W75495  15.365   9.372  17.452
71535W        W75496  16.723   8.770  16.631
71536W        W75497  16.590  10.849  14.927
71537W        W75498  14.736   9.356  14.624
71538W        W75499  15.471   9.767  17.750
71539W        W75500  14.992   8.934  17.381
71540W        W75501  15.983   9.039  17.175
71541W        W75502  17.751   7.398  17.437
71542W        W75503  18.149   9.008  17.428
71543W        W75504  18.137   9.208  15.114
71544W        W75505  17.000   9.540  15.213
71545W        W75506  17.474  10.840  14.908
71546W        W75507  16.651   8.830  18.050
71547W        W75508  14.981   9.797  18.090
71548W        W75509  18.187   7.719  18.042
71549W        W75510  17.905   8.647  16.663
71550W        W75511  16.213  10.777  18.140
71551W        W75512  16.068   7.406  14.867
71552W        W75513  17.607  10.005  14.810
71553W        W75514  15.376   8.098  17.696
71554W        W75515  15.810  10.092  17.558
71555W        W75516  17.936   8.083  17.356
71556W        W75517  17.147  10.742  15.324
71557W        W75518  17.386   9.361  16.691
71558W        W75519  15.636   7.777  17.358
71559W        W75520  16.105   8.846  18.115
71560W        W75521  15.608  10.025  15.309
71561W        W75522  17.363   9.523  15.573
71562W        W75523  15.131   8.149  17.297
71563W        W75524  16.460  10.211  15.761
71564W        W75525  18.210   8.771  15.942
71565W        W75526  16.432   7.404  17.661
71566W        W75527  17.212  10.109  16.740
71567W        W75528  17.515  10.453  16.448
71568W        W75529  16.734  10.255  14.876
71569W        W75530  14.744  10.147  17.718
71570W        W75531  15.487   8.139  16.956
71571W        W75532  15.457   7.487  16.066
71572W        W75533  17.078   8.329  16.758
71573W        W75534  15.876   9.500  14.958
71574W        W75535  17.874   9.442  16.457
71575W        W75536  15.201  10.200  17.880
71576W        W75537  17.588  10.882  15.677
71577W        W75538  15.687   7.902  16.122
71578W        W75539  15.456   9.395  16.212
71579W        W75540  15.769  10.806  16.962
71580W        W75541  17.836  10.902  17.994
71581W        W75542  16.995   9.090  16.927
71582W        W75543  14.844   8.888  14.842
71583W        W75544  17.978  10.546  15.539
71584W        W75545  17.815   7.870  15.158
71585W        W75546  15.954   7.389  17.561
71586W        W75547  17.660  10.191  16.019
71587W        W75548  17.689   8.747  15.924
71588W        W75549  15.806   8.420  16.140
71589W        W75550  16.051   8.682  17.464
71590W        W75551  17.162   9.835  17.327
71591W        W75552  15.812   8.289  17.439
71592W        W75553  15.791  10.755  16.055
71593W        W75554  15.108  10.714  17.689
71594W        W75555  15.220  10.075  14.819
71595W        W75556  17.737   9.833  15.629
71596W        W75557  15.341   8.625  17.515
71597W        W75558  18.114   8.555  14.996
71598W        W75559  15.859   9.612  15.467
71599W        W75560  16.958   8.994  17.548
71600W        W75561  16.849   8.622  17.092
71601W        W75562  15.409   8.994  17.121
71602W        W75563  17.619  10.882  16.950
71603W        W75564  17.410   7.516  17.944
71604W        W75565  15.074   7.666  17.531
71605W        W75566  15.413   8.689  16.584
71606W        W75567  15.782   8.503  14.706
71607W        W75568  14.585  10.262  17.251
71608W        W75569  16.170   8.971  16.694
71609W        W75570  15.993   7.996  14.799
71610W        W75571  15.128   8.812  15.580
71611W        W75572  14.899  10.664  17.017
71612W        W75573  17.694   8.890  15.125
71613W        W75574  17.789   7.806  17.811
71614W        W75575  17.225  10.015  15.774
71615W        W75576  14.823   8.939  17.951
71616W        W75577  17.789   7.403  15.247
71617W        W75578  17.309   9.878  15.258
71618W        W75579  16.211   8.936  15.343
71619W        W75580  17.398   7.740  14.866
71620W        W75581  17.463   8.347  17.052
71621W        W75582  15.172   8.940  16.259
71622W        W75583  15.466   9.879  15.908
71623W        W75584  17.229   8.499  15.873
71624W        W75585  16.252   7.878  16.569
71625W        W75586  18.214   9.789  17.080
71626W        W75587  18.132   7.776  16.641
71627W        W75588  14.671  10.606  16.017
71628W        W75589  15.180   9.793  15.553
71629W        W75590  15.095   7.410  18.106
71630W        W75591  16.214  10.263  18.208
71631W        W75592  17.969   9.231  15.998
71632W        W75593  17.323   9.408  14.878
71633W        W75594  16.618  10.929  17.090
71634W        W75595  17.475   9.651  18.127
71635W        W75596  16.290   7.361  15.407
71636W        W75597  17.003   8.230  16.266
71637W        W75598  14.689   9.817  16.598
71638W        W75599  15.942   7.779  15.239
71639W        W75600  15.746   9.263  18.088
71640W        W75601  16.740   8.244  15.802
71641W        W75602  16.945   9.654  16.924
71642W        W75603  15.099  10.259  17.359
71643W        W75604  15.690  10.242  18.082
71644W        W75605  15.541   8.039  15.096
71645W        W75606  17.058   8.181  15.421
71646W        W75607  17.016  10.289  17.658
71647W        W75608  15.701   8.881  16.257
71648W        W75609  15.356  10.579  17.122
71649W        W75610  18.101  10.696  14.723
71650W        W75611  14.964   9.368  17.719
71651W        W75612  16.959   9.630  16.407
71652W        W75613  15.395   9.279  15.649
71653W        W75614  15.766  10.286  17.044
71654W        W75615  16.144   7.705  16.085
71655W        W75616  14.755   9.689  15.015
71656W        W75617  16.274   8.640  14.885
71657W        W75618  14.920   9.189  15.904
71658W        W75619  16.210   7.831  17.368
71659W        W75620  17.882   7.540  14.795
71660W        W75621  17.975   9.286  17.894
71661W        W75622  16.629  10.543  18.046
71662W        W75623  18.187   9.637  17.568
71663W        W75624  17.595  10.435  18.179
71664W        W75625  15.334  10.891  16.657
71665W        W75626  18.193   9.513  15.531
71666W        W75627  16.723   8.780  16.044
71667W        W75628  16.490   7.392  15.934
71668W        W75629  15.549  10.376  15.771
71669W        W75630  16.048   8.117  16.996
71670W        W75631  15.748   7.486  16.465
71671W        W75632  14.811  10.308  15.013
71672W        W75633  16.627   9.672  15.731
71673W        W75634  15.502  10.467  17.610
71674W        W75635  14.979   9.290  15.306
71675W        W75636  14.864   7.833  16.305
71676W        W75637  16.412   9.798  16.362
71677W        W75638  14.664   7.652  15.382
71678W        W75639  17.328   8.858  17.309
71679W        W75640  17.205   8.244  14.881
71680W        W75641  17.722   9.916  16.529
71681W        W75642  16.383  10.400  16.360
71682W        W75643  15.795  10.504  15.271
71683W        W75644  17.077   7.407  14.701
71684W        W75645  14.877  10.667  16.442
71685W        W75646  17.074   8.425  18.077
71686W        W75647  15.057   7.955  18.076
71687W        W75648  14.788   8.555  15.409
71688W        W75649  15.479   8.544  15.134
71689W        W75650  17.242   8.871  17.951
71690W        W75651  15.585   9.152  16.660
71691W        W75652  17.059   7.438  15.780
71692W        W75653  16.190  10.869  16.283
71693W        W75654  17.404  10.331  17.220
71694W        W75655  16.988  10.480  16.331
71695W        W75656  16.469   7.685  14.996
71696W        W75657  18.150   7.313  15.718
71697W        W75658  15.838   8.948  14.881
71698W        W75659  18.004   8.285  15.871
71699W        W75660  16.696   9.455  14.748
71700W        W75661  17.632   9.655  17.496
71701W        W75662  17.286  10.356  14.963
71702W        W75663  15.901   8.031  17.869
71703W        W75664  15.721   8.615  17.110
71704W        W75665  17.813  10.110  17.387
71705W        W75666  16.913   8.060  17.764
71706W        W75667  14.757   8.531  17.541
71707W        W75668  16.517   9.008  17.267
71708W        W75669  14.874   9.766  15.924
71709W        W75670  15.021   9.063  16.814
71710W        W75671  17.338   9.349  17.164
71711W        W75672  17.110  10.729  17.975
71712W        W75673  17.006   8.468  17.528
71713W        W75674  17.283  10.522  15.933
71714W        W75675  16.285  10.242  17.256
71715W        W75676  15.770  10.597  16.525
71716W        W75677  17.575   9.768  16.944
71717W        W75678  16.625   9.840  18.081
71718W        W75679  15.230   9.793  16.420
71719W        W75680  17.576   9.552  16.065
71720W        W75681  17.217  10.618  16.816
71721W        W75682  15.195  10.347  16.686
71722W        W75683  16.216   8.399  17.896
71723W        W75684  16.667  10.565  15.407
71724W        W75685  15.975   9.820  18.045
71725W        W75686  16.101  10.058  15.422
71726W        W75687  15.322   8.798  14.681
71727W        W75688  14.661  10.884  21.580
71728W        W75689  15.037   9.777  21.103
71729W        W75690  17.742   9.507  18.873
71730W        W75691  17.872  10.592  20.900
71731W        W75692  15.790  10.583  18.426
71732W        W75693  15.873   8.735  19.409
71733W        W75694  15.388   8.583  19.573
71734W        W75695  16.379   9.398  19.007
71735W        W75696  16.054  10.490  21.362
71736W        W75697  14.703   8.051  21.325
71737W        W75698  15.465   7.331  21.127
71738W        W75699  17.159   7.719  20.014
71739W        W75700  16.808   8.590  18.584
71740W        W75701  17.378   8.024  21.675
71741W        W75702  14.744   7.816  20.800
71742W        W75703  14.843  10.435  21.821
71743W        W75704  16.365   9.825  18.553
71744W        W75705  14.797   8.608  20.246
71745W        W75706  15.690   8.499  21.483
71746W        W75707  18.149   8.358  19.982
71747W        W75708  17.913   9.401  20.841
71748W        W75709  16.221   8.734  19.868
71749W        W75710  16.767  10.073  20.237
71750W        W75711  15.267   9.507  20.469
71751W        W75712  14.626   9.035  20.040
71752W        W75713  15.662   9.007  21.232
71753W        W75714  17.933   8.790  21.486
71754W        W75715  15.549  10.234  19.931
71755W        W75716  16.670   9.923  21.065
71756W        W75717  15.890   8.563  20.290
71757W        W75718  16.182   9.347  19.933
71758W        W75719  17.179  10.120  21.781
71759W        W75720  16.258   9.440  21.791
71760W        W75721  16.239   9.156  21.269
71761W        W75722  14.648   8.547  21.791
71762W        W75723  17.480  10.082  21.390
71763W        W75724  15.061   7.664  19.388
71764W        W75725  15.588   9.922  20.387
71765W        W75726  18.051   9.705  19.677
71766W        W75727  17.464   8.105  20.244
71767W        W75728  17.749   8.058  18.339
71768W        W75729  18.214   8.859  20.645
71769W        W75730  16.181  10.566  20.398
71770W        W75731  17.955  10.032  18.836
71771W        W75732  15.084  10.818  18.590
71772W        W75733  15.477  10.864  19.266
71773W        W75734  15.274   7.618  20.692
71774W        W75735  17.897   8.636  20.967
71775W        W75736  17.302   9.058  19.426
71776W        W75737  17.268   8.746  18.453
71777W        W75738  16.476   9.890  20.593
71778W        W75739  16.282   8.220  19.792
71779W        W75740  16.882  10.307  20.786
71780W        W75741  17.753   9.098  19.208
71781W        W75742  16.655   7.756  19.224
71782W        W75743  15.312  10.450  18.907
71783W        W75744  14.683   7.949  19.506
71784W        W75745  17.469   8.556  19.980
71785W        W75746  14.927  10.173  19.895
71786W        W75747  16.268  10.523  18.765
71787W        W75748  17.660   8.549  18.229
71788W        W75749  14.683  10.307  20.393
71789W        W75750  15.474   9.879  20.873
71790W        W75751  15.847   9.239  19.492
71791W        W75752  15.869   7.644  20.585
71792W        W75753  18.098   7.406  19.882
71793W        W75754  15.317   9.278  18.350
71794W        W75755  14.972   8.311  18.529
71795W        W75756  15.034  10.267  19.323
71796W        W75757  16.165   9.750  19.571
71797W        W75758  17.497  10.609  21.285
71798W        W75759  16.423   8.251  18.969
71799W        W75760  17.806  10.649  19.741
71800W        W75761  17.483   8.502  21.339
71801W        W75762  18.196  10.158  19.473
71802W        W75763  16.823   9.450  20.957
71803W        W75764  14.589   9.001  19.163
71804W        W75765  15.700   9.416  20.736
71805W        W75766  16.904   8.680  19.114
71806W        W75767  16.781   9.170  19.218
71807W        W75768  15.124   8.590  20.692
71808W        W75769  15.109   8.466  21.614
71809W        W75770  14.999   7.383  19.773
71810W        W75771  16.767   7.730  20.334
71811W        W75772  16.415   7.915  21.497
71812W        W75773  16.770   8.064  18.675
71813W        W75774  17.953  10.457  21.429
71814W        W75775  16.920   7.538  21.468
71815W        W75776  17.939   9.839  21.590
71816W        W75777  17.369   8.006  21.186
71817W        W75778  17.169   7.944  19.456
71818W        W75779  17.562   9.078  21.860
71819W        W75780  15.302  10.654  19.846
71820W        W75781  15.960   8.371  18.832
71821W        W75782  15.529   7.655  21.496
71822W        W75783  17.581   8.139  19.177
71823W        W75784  17.948   8.621  19.122
71824W        W75785  15.691  10.838  21.593
71825W        W75786  15.617   7.374  18.828
71826W        W75787  17.938   7.908  19.863
71827W        W75788  18.088  10.157  18.308
71828W        W75789  14.995   9.360  20.010
71829W        W75790  16.912   7.947  18.240
71830W        W75791  18.046  10.279  19.960
71831W        W75792  18.085   7.473  20.710
71832W        W75793  16.530   8.685  21.264
71833W        W75794  16.623  10.024  18.967
71834W        W75795  17.023   9.318  21.707
71835W        W75796  16.697   7.295  20.016
71836W        W75797  15.309   8.198  20.079
71837W        W75798  14.863   9.398  20.853
71838W        W75799  16.722  10.591  19.559
71839W        W75800  17.916   8.188  20.431
71840W        W75801  16.553  10.535  21.198
71841W        W75802  17.896   9.594  18.403
71842W        W75803  16.331   9.077  19.464
71843W        W75804  18.183   7.588  21.205
71844W        W75805  16.332   9.423  20.799
71845W        W75806  16.549   8.309  20.244
71846W        W75807  17.401   8.607  19.082
71847W        W75808  17.688   8.340  18.724
71848W        W75809  17.497  10.380  19.113
71849W        W75810  17.331   9.983  19.909
71850W        W75811  17.227   9.062  18.887
71851W        W75812  16.660   9.272  19.873
71852W        W75813  17.541   9.060  19.940
71853W        W75814  14.916   8.075  20.364
71854W        W75815  17.694   9.127  21.191
71855W        W75816  18.045  10.745  20.337
71856W        W75817  15.975  10.189  19.739
71857W        W75818  16.982  10.722  21.063
71858W        W75819  16.976   8.052  20.827
71859W        W75820  16.183  10.760  20.888
71860W        W75821  17.880   7.714  19.354
71861W        W75822  17.671   9.033  20.655
71862W        W75823  14.654   8.354  20.693
71863W        W75824  17.514   8.149  19.711
71864W        W75825  17.925   8.300  21.488
71865W        W75826  16.810   9.999  19.706
71866W        W75827  16.066  10.590  19.319
71867W        W75828  15.181   7.770  18.577
71868W        W75829  16.285   7.424  20.387
71869W        W75830  15.313  10.544  18.235
71870W        W75831  15.687   9.010  18.986
71871W        W75832  16.341   9.639  21.299
71872W        W75833  16.171   7.997  19.289
71873W        W75834  17.527   7.594  19.717
71874W        W75835  17.247  10.876  20.045
71875W        W75836  16.659  10.524  20.385
71876W        W75837  16.055   9.561  20.346
71877W        W75838  17.825  10.284  20.472
71878W        W75839  15.519   7.787  19.241
71879W        W75840  16.041  10.084  20.201
71880W        W75841  15.524   8.015  18.266
71881W        W75842  16.325   8.624  20.660
71882W        W75843  17.173   7.490  20.530
71883W        W75844  14.593   9.333  20.415
71884W        W75845  16.297   9.151  18.573
71885W        W75846  15.565   7.466  18.343
71886W        W75847  16.303   8.547  19.394
71887W        W75848  17.273   7.523  21.093
71888W        W75849  15.861   9.535  21.202
71889W        W75850  16.665   9.317  21.419
71890W        W75851  17.282   9.347  21.312
71891W        W75852  16.566   7.487  21.817
71892W        W75853  15.788   8.103  20.210
71893W        W75854  15.214   8.059  19.608
71894W        W75855  15.000  10.771  19.284
71895W        W75856  16.332  10.101  21.409
71896W        W75857  15.367   9.586  18.768
71897W        W75858  17.047   8.971  19.989
71898W        W75859  17.327   8.770  20.388
71899W        W75860  16.532   9.444  20.322
71900W        W75861  17.002   9.818  18.454
71901W        W75862  16.674   7.839  19.782
71902W        W75863  18.153   8.117  19.050
71903W        W75864  14.647  10.706  21.081
71904W        W75865  15.064   9.932  20.613
71905W        W75866  14.631  10.778  18.845
71906W        W75867  16.530   8.048  20.651
71907W        W75868  15.893  10.071  18.500
71908W        W75869  17.798  10.453  18.686
71909W        W75870  16.773   9.106  18.700
71910W        W75871  15.616   8.297  19.217
71911W        W75872  16.448   8.207  18.269
71912W        W75873  17.032   9.772  21.447
71913W        W75874  17.385   7.678  19.064
71914W        W75875  14.715   7.526  18.512
71915W        W75876  16.001   9.845  20.802
71916W        W75877  15.800   9.761  19.894
71917W        W75878  15.542   9.713  18.292
71918W        W75879  14.783   9.954  19.060
71919W        W75880  15.287   9.024  21.502
71920W        W75881  15.991   7.584  21.688
71921W        W75882  16.700   7.726  21.044
71922W        W75883  15.895   7.494  19.325
71923W        W75884  16.954   7.571  18.830
71924W        W75885  14.899   7.503  20.407
71925W        W75886  14.947   8.466  19.777
71926W        W75887  17.636   7.574  20.183
71927W        W75888  15.058   8.072  18.997
71928W        W75889  17.629   7.760  20.613
71929W        W75890  18.025   8.963  18.298
71930W        W75891  15.317   7.721  20.117
71931W        W75892  16.431   8.293  21.057
71932W        W75893  14.579   7.983  18.535
71933W        W75894  15.365   9.372  21.096
71934W        W75895  16.723   8.770  20.275
71935W        W75896  16.590  10.849  18.571
71936W        W75897  14.736   9.356  18.268
71937W        W75898  15.471   9.767  21.394
71938W        W75899  14.992   8.934  21.025
71939W        W75900  15.983   9.039  20.819
71940W        W75901  17.751   7.398  21.081
71941W        W75902  18.149   9.008  21.072
71942W        W75903  18.137   9.208  18.758
71943W        W75904  17.000   9.540  18.857
71944W        W75905  17.474  10.840  18.552
71945W        W75906  16.651   8.830  21.694
71946W        W75907  14.981   9.797  21.734
71947W        W75908  18.187   7.719  21.686
71948W        W75909  17.905   8.647  20.307
71949W        W75910  16.213  10.777  21.784
71950W        W75911  16.068   7.406  18.511
71951W        W75912  17.607  10.005  18.454
71952W        W75913  15.376   8.098  21.340
71953W        W75914  15.810  10.092  21.202
71954W        W75915  17.936   8.083  21.000
71955W        W75916  17.147  10.742  18.968
71956W        W75917  17.386   9.361  20.335
71957W        W75918  15.636   7.777  21.002
71958W        W75919  16.105   8.846  21.759
71959W        W75920  15.608  10.025  18.953
71960W        W75921  17.363   9.523  19.217
71961W        W75922  15.131   8.149  20.941
71962W        W75923  16.460  10.211  19.405
71963W        W75924  18.210   8.771  19.586
71964W        W75925  16.432   7.404  21.305
71965W        W75926  17.212  10.109  20.384
71966W        W75927  17.515  10.453  20.092
71967W        W75928  16.734  10.255  18.520
71968W        W75929  14.744  10.147  21.362
71969W        W75930  15.487   8.139  20.600
71970W        W75931  15.457   7.487  19.710
71971W        W75932  17.078   8.329  20.402
71972W        W75933  15.876   9.500  18.602
71973W        W75934  17.874   9.442  20.101
71974W        W75935  15.201  10.200  21.524
71975W        W75936  17.588  10.882  19.321
71976W        W75937  15.687   7.902  19.766
71977W        W75938  15.456   9.395  19.856
71978W        W75939  15.769  10.806  20.606
71979W        W75940  17.836  10.902  21.638
71980W        W75941  16.995   9.090  20.571
71981W        W75942  14.844   8.888  18.486
71982W        W75943  17.978  10.546  19.183
71983W        W75944  17.815   7.870  18.802
71984W        W75945  15.954   7.389  21.205
71985W        W75946  17.660  10.191  19.663
71986W        W75947  17.689   8.747  19.568
71987W        W75948  15.806   8.420  19.784
71988W        W75949  16.051   8.682  21.108
71989W        W75950  17.162   9.835  20.971
71990W        W75951  15.812   8.289  21.083
71991W        W75952  15.791  10.755  19.699
71992W        W75953  15.108  10.714  21.333
71993W        W75954  15.220  10.075  18.463
71994W        W75955  17.737   9.833  19.273
71995W        W75956  15.341   8.625  21.159
71996W        W75957  18.114   8.555  18.640
71997W        W75958  15.859   9.612  19.111
71998W        W75959  16.958   8.994  21.192
71999W        W75960  16.849   8.622  20.736
72000W        W75961  15.409   8.994  20.765
72001W        W75962  17.619  10.882  20.594
72002W        W75963  17.410   7.516  21.588
72003W        W75964  15.074   7.666  21.175
72004W        W75965  15.413   8.689  20.228
72005W        W75966  15.782   8.503  18.350
72006W        W75967  14.585  10.262  20.895
72007W        W75968  16.170   8.971  20.338
72008W        W75969  15.993   7.996  18.443
72009W        W75970  15.128   8.812  19.224
72010W        W75971  14.899  10.664  20.661
72011W        W75972  17.694   8.890  18.769
72012W        W75973  17.789   7.806  21.455
72013W        W75974  17.225  10.015  19.418
72014W        W75975  14.823   8.939  21.595
72015W        W75976  17.789   7.403  18.891
72016W        W75977  17.309   9.878  18.902
72017W        W75978  16.211   8.936  18.987
72018W        W75979  17.398   7.740  18.510
72019W        W75980  17.463   8.347  20.696
72020W        W75981  15.172   8.940  19.903
72021W        W75982  15.466   9.879  19.552
72022W        W75983  17.229   8.499  19.517
72023W        W75984  16.252   7.878  20.213
72024W        W75985  18.214   9.789  20.724
72025W        W75986  18.132   7.776  20.285
72026W        W75987  14.671  10.606  19.661
72027W        W75988  15.180   9.793  19.197
72028W        W75989  15.095   7.410  21.750
72029W        W75990  16.214  10.263  21.852
72030W        W75991  17.969   9.231  19.642
72031W        W75992  17.323   9.408  18.522
72032W        W75993  16.618  10.929  20.734
72033W        W75994  17.475   9.651  21.771
72034W        W75995  16.290   7.361  19.051
72035W        W75996  17.003   8.230  19.910
72036W        W75997  14.689   9.817  20.242
72037W        W75998  15.942   7.779  18.883
72038W        W75999  15.746   9.263  21.732
72039W        W76000  16.740   8.244  19.446
72040W        W76001  16.945   9.654  20.568
72041W        W76002  15.099  10.259  21.003
72042W        W76003  15.690  10.242  21.726
72043W        W76004  15.541   8.039  18.740
72044W        W76005  17.058   8.181  19.065
72045W        W76006  17.016  10.289  21.302
72046W        W76007  15.701   8.881  19.901
72047W        W76008  15.356  10.579  20.766
72048W        W76009  18.101  10.696  18.367
72049W        W76010  14.964   9.368  21.363
72050W        W76011  16.959   9.630  20.051
72051W        W76012  15.395   9.279  19.293
72052W        W76013  15.766  10.286  20.688
72053W        W76014  16.144   7.705  19.729
72054W        W76015  14.755   9.689  18.659
72055W        W76016  16.274   8.640  18.529
72056W        W76017  14.920   9.189  19.548
72057W        W76018  16.210   7.831  21.012
72058W        W76019  17.882   7.540  18.439
72059W        W76020  17.975   9.286  21.538
72060W        W76021  16.629  10.543  21.690
72061W        W76022  18.187   9.637  21.212
72062W        W76023  17.595  10.435  21.823
72063W        W76024  15.334  10.891  20.301
72064W        W76025  18.193   9.513  19.175
72065W        W76026  16.723   8.780  19.688
72066W        W76027  16.490   7.392  19.578
72067W        W76028  15.549  10.376  19.415
72068W        W76029  16.048   8.117  20.640
72069W        W76030  15.748   7.486  20.109
72070W        W76031  14.811  10.308  18.657
72071W        W76032  16.627   9.672  19.375
72072W        W76033  15.502  10.467  21.254
72073W        W76034  14.979   9.290  18.950
72074W        W76035  14.864   7.833  19.949
72075W        W76036  16.412   9.798  20.006
72076W        W76037  14.664   7.652  19.026
72077W        W76038  17.328   8.858  20.953
72078W        W76039  17.205   8.244  18.525
72079W        W76040  17.722   9.916  20.173
72080W        W76041  16.383  10.400  20.004
72081W        W76042  15.795  10.504  18.915
72082W        W76043  17.077   7.407  18.345
72083W        W76044  14.877  10.667  20.086
72084W        W76045  17.074   8.425  21.721
72085W        W76046  15.057   7.955  21.720
72086W        W76047  14.788   8.555  19.053
72087W        W76048  15.479   8.544  18.778
72088W        W76049  17.242   8.871  21.595
72089W        W76050  15.585   9.152  20.304
72090W        W76051  17.059   7.438  19.424
72091W        W76052  16.190  10.869  19.927
72092W        W76053  17.404  10.331  20.864
72093W        W76054  16.988  10.480  19.975
72094W        W76055  17.007   9.460  19.569
72095W        W76056  16.469   7.685  18.640
72096W        W76057  18.150   7.313  19.362
72097W        W76058  15.838   8.948  18.525
72098W        W76059  18.004   8.285  19.515
72099W        W76060  16.696   9.455  18.392
72100W        W76061  17.632   9.655  21.140
72101W        W76062  17.286  10.356  18.607
72102W        W76063  15.901   8.031  21.513
72103W        W76064  15.721   8.615  20.754
72104W        W76065  17.813  10.110  21.031
72105W        W76066  16.913   8.060  21.408
72106W        W76067  14.757   8.531  21.185
72107W        W76068  16.517   9.008  20.911
72108W        W76069  14.874   9.766  19.568
72109W        W76070  15.021   9.063  20.458
72110W        W76071  17.338   9.349  20.808
72111W        W76072  17.110  10.729  21.619
72112W        W76073  17.006   8.468  21.172
72113W        W76074  17.283  10.522  19.577
72114W        W76075  16.285  10.242  20.900
72115W        W76076  15.770  10.597  20.169
72116W        W76077  17.575   9.768  20.588
72117W        W76078  16.625   9.840  21.725
72118W        W76079  15.230   9.793  20.064
72119W        W76080  17.576   9.552  19.709
72120W        W76081  17.217  10.618  20.460
72121W        W76082  15.195  10.347  20.330
72122W        W76083  16.216   8.399  21.540
72123W        W76084  16.667  10.565  19.051
72124W        W76085  15.975   9.820  21.689
72125W        W76086  16.101  10.058  19.066
72126W        W76087  15.322   8.798  18.325
72127W        W76088  17.742   9.507  22.518
72128W        W76089  15.790  10.583  22.071
72129W        W76090  15.873   8.735  23.054
72130W        W76091  15.388   8.583  23.218
72131W        W76092  16.379   9.398  22.652
72132W        W76093  16.808   8.590  22.229
72133W        W76094  16.365   9.825  22.198
72134W        W76095  15.061   7.664  23.033
72135W        W76096  17.749   8.058  21.984
72136W        W76097  17.955  10.032  22.481
72137W        W76098  15.084  10.818  22.235
72138W        W76099  15.477  10.864  22.911
72139W        W76100  17.302   9.058  23.071
72140W        W76101  17.268   8.746  22.098
72141W        W76102  17.753   9.098  22.853
72142W        W76103  16.655   7.756  22.869
72143W        W76104  15.312  10.450  22.552
72144W        W76105  16.268  10.523  22.410
72145W        W76106  17.660   8.549  21.874
72146W        W76107  15.847   9.239  23.137
72147W        W76108  15.317   9.278  21.995
72148W        W76109  14.972   8.311  22.174
72149W        W76110  15.034  10.267  22.968
72150W        W76111  16.165   9.750  23.216
72151W        W76112  16.423   8.251  22.614
72152W        W76113  14.589   9.001  22.808
72153W        W76114  16.904   8.680  22.759
72154W        W76115  16.781   9.170  22.863
72155W        W76116  16.770   8.064  22.320
72156W        W76117  17.169   7.944  23.101
72157W        W76118  15.960   8.371  22.477
72158W        W76119  17.581   8.139  22.822
72159W        W76120  17.948   8.621  22.767
72160W        W76121  15.617   7.374  22.473
72161W        W76122  18.088  10.157  21.953
72162W        W76123  16.912   7.947  21.885
72163W        W76124  16.623  10.024  22.612
72164W        W76125  16.722  10.591  23.204
72165W        W76126  17.896   9.594  22.048
72166W        W76127  16.331   9.077  23.109
72167W        W76128  17.401   8.607  22.727
72168W        W76129  17.688   8.340  22.369
72169W        W76130  17.497  10.380  22.758
72170W        W76131  17.227   9.062  22.532
72171W        W76132  17.880   7.714  22.999
72172W        W76133  16.066  10.590  22.964
72173W        W76134  15.181   7.770  22.222
72174W        W76135  15.313  10.544  21.880
72175W        W76136  15.687   9.010  22.631
72176W        W76137  16.171   7.997  22.934
72177W        W76138  15.519   7.787  22.886
72178W        W76139  15.524   8.015  21.911
72179W        W76140  16.297   9.151  22.218
72180W        W76141  15.565   7.466  21.988
72181W        W76142  16.303   8.547  23.039
72182W        W76143  15.214   8.059  23.253
72183W        W76144  15.000  10.771  22.929
72184W        W76145  15.367   9.586  22.413
72185W        W76146  17.002   9.818  22.099
72186W        W76147  18.153   8.117  22.695
72187W        W76148  14.631  10.778  22.490
72188W        W76149  15.893  10.071  22.145
72189W        W76150  17.798  10.453  22.331
72190W        W76151  16.773   9.106  22.345
72191W        W76152  15.616   8.297  22.862
72192W        W76153  16.448   8.207  21.914
72193W        W76154  17.385   7.678  22.709
72194W        W76155  14.715   7.526  22.157
72195W        W76156  15.542   9.713  21.937
72196W        W76157  14.783   9.954  22.705
72197W        W76158  15.895   7.494  22.970
72198W        W76159  16.954   7.571  22.475
72199W        W76160  15.058   8.072  22.642
72200W        W76161  18.025   8.963  21.943
72201W        W76162  14.579   7.983  22.180
72202W        W76163  16.590  10.849  22.216
72203W        W76164  14.736   9.356  21.913
72204W        W76165  18.137   9.208  22.403
72205W        W76166  17.000   9.540  22.502
72206W        W76167  17.474  10.840  22.197
72207W        W76168  16.068   7.406  22.156
72208W        W76169  17.607  10.005  22.099
72209W        W76170  17.147  10.742  22.613
72210W        W76171  15.608  10.025  22.598
72211W        W76172  17.363   9.523  22.862
72212W        W76173  16.460  10.211  23.050
72213W        W76174  18.210   8.771  23.231
72214W        W76175  16.734  10.255  22.165
72215W        W76176  15.876   9.500  22.247
72216W        W76177  17.588  10.882  22.966
72217W        W76178  14.844   8.888  22.131
72218W        W76179  17.978  10.546  22.828
72219W        W76180  17.815   7.870  22.447
72220W        W76181  17.689   8.747  23.213
72221W        W76182  15.220  10.075  22.108
72222W        W76183  17.737   9.833  22.918
72223W        W76184  18.114   8.555  22.285
72224W        W76185  15.859   9.612  22.756
72225W        W76186  15.782   8.503  21.995
72226W        W76187  15.993   7.996  22.088
72227W        W76188  15.128   8.812  22.869
72228W        W76189  17.694   8.890  22.414
72229W        W76190  17.225  10.015  23.063
72230W        W76191  17.789   7.403  22.536
72231W        W76192  17.309   9.878  22.547
72232W        W76193  16.211   8.936  22.632
72233W        W76194  17.398   7.740  22.155
72234W        W76195  15.466   9.879  23.197
72235W        W76196  17.229   8.499  23.162
72236W        W76197  14.671  10.606  23.306
72237W        W76198  15.180   9.793  22.842
72238W        W76199  17.969   9.231  23.287
72239W        W76200  17.323   9.408  22.167
72240W        W76201  16.290   7.361  22.696
72241W        W76202  15.942   7.779  22.528
72242W        W76203  16.740   8.244  23.091
72243W        W76204  15.541   8.039  22.385
72244W        W76205  17.058   8.181  22.710
72245W        W76206  18.101  10.696  22.012
72246W        W76207  14.755   9.689  22.304
72247W        W76208  16.274   8.640  22.174
72248W        W76209  14.920   9.189  23.193
72249W        W76210  17.882   7.540  22.084
72250W        W76211  18.193   9.513  22.820
72251W        W76212  16.490   7.392  23.223
72252W        W76213  15.549  10.376  23.060
72253W        W76214  14.811  10.308  22.302
72254W        W76215  16.627   9.672  23.020
72255W        W76216  14.979   9.290  22.595
72256W        W76217  14.664   7.652  22.671
72257W        W76218  17.205   8.244  22.170
72258W        W76219  15.795  10.504  22.560
72259W        W76220  17.077   7.407  21.990
72260W        W76221  14.788   8.555  22.698
72261W        W76222  15.479   8.544  22.423
72262W        W76223  17.007   9.460  23.214
72263W        W76224  16.469   7.685  22.285
72264W        W76225  18.150   7.313  23.007
72265W        W76226  15.838   8.948  22.170
72266W        W76227  18.004   8.285  23.160
72267W        W76228  16.696   9.455  22.037
72268W        W76229  17.286  10.356  22.252
72269W        W76230  14.874   9.766  23.213
72270W        W76231  17.283  10.522  23.222
72271W        W76232  16.667  10.565  22.696
72272W        W76233  16.101  10.058  22.711
72273W        W76234  15.322   8.798  21.970
72274W        W76235  14.661  14.528   3.359
72275W        W76236  15.037  13.421   2.882
72276W        W76237  17.742  13.151   0.652
72277W        W76238  17.872  14.236   2.679
72278W        W76239  15.790  14.227   0.205
72279W        W76240  15.873  12.379   1.188
72280W        W76241  15.388  12.227   1.352
72281W        W76242  16.379  13.042   0.786
72282W        W76243  16.054  14.134   3.141
72283W        W76244  14.703  11.695   3.104
72284W        W76245  15.465  10.975   2.906
72285W        W76246  17.159  11.363   1.793
72286W        W76247  16.808  12.234   0.363
72287W        W76248  17.378  11.668   3.454
72288W        W76249  14.744  11.460   2.579
72289W        W76250  14.843  14.079   3.600
72290W        W76251  16.365  13.469   0.332
72291W        W76252  14.797  12.252   2.025
72292W        W76253  15.690  12.143   3.262
72293W        W76254  18.149  12.002   1.761
72294W        W76255  17.913  13.045   2.620
72295W        W76256  16.221  12.378   1.647
72296W        W76257  16.767  13.717   2.016
72297W        W76258  15.267  13.151   2.248
72298W        W76259  14.626  12.679   1.819
72299W        W76260  15.662  12.651   3.011
72300W        W76261  17.933  12.434   3.265
72301W        W76262  15.549  13.878   1.710
72302W        W76263  16.670  13.567   2.844
72303W        W76264  15.890  12.207   2.069
72304W        W76265  16.182  12.991   1.712
72305W        W76266  17.179  13.764   3.560
72306W        W76267  16.258  13.084   3.570
72307W        W76268  16.239  12.800   3.048
72308W        W76269  14.648  12.191   3.570
72309W        W76270  17.480  13.726   3.169
72310W        W76271  15.061  11.308   1.167
72311W        W76272  15.588  13.566   2.166
72312W        W76273  18.051  13.349   1.456
72313W        W76274  17.464  11.749   2.023
72314W        W76275  17.749  11.702   0.118
72315W        W76276  18.214  12.503   2.424
72316W        W76277  16.181  14.210   2.177
72317W        W76278  17.955  13.676   0.615
72318W        W76279  15.084  14.462   0.369
72319W        W76280  15.477  14.508   1.045
72320W        W76281  15.274  11.262   2.471
72321W        W76282  17.897  12.280   2.746
72322W        W76283  17.302  12.702   1.205
72323W        W76284  17.268  12.390   0.232
72324W        W76285  16.476  13.534   2.372
72325W        W76286  16.282  11.864   1.571
72326W        W76287  16.882  13.951   2.565
72327W        W76288  17.753  12.742   0.987
72328W        W76289  16.655  11.400   1.003
72329W        W76290  15.312  14.094   0.686
72330W        W76291  14.683  11.593   1.285
72331W        W76292  17.469  12.200   1.759
72332W        W76293  14.927  13.817   1.674
72333W        W76294  16.268  14.167   0.544
72334W        W76295  17.660  12.193   0.008
72335W        W76296  14.683  13.951   2.172
72336W        W76297  15.474  13.523   2.652
72337W        W76298  15.847  12.883   1.271
72338W        W76299  15.869  11.288   2.364
72339W        W76300  18.098  11.050   1.661
72340W        W76301  15.317  12.922   0.129
72341W        W76302  14.972  11.955   0.308
72342W        W76303  15.034  13.911   1.102
72343W        W76304  16.165  13.394   1.350
72344W        W76305  17.497  14.253   3.064
72345W        W76306  16.423  11.895   0.748
72346W        W76307  17.806  14.293   1.520
72347W        W76308  17.483  12.146   3.118
72348W        W76309  18.196  13.802   1.252
72349W        W76310  16.823  13.094   2.736
72350W        W76311  14.589  12.645   0.942
72351W        W76312  15.700  13.060   2.515
72352W        W76313  16.904  12.324   0.893
72353W        W76314  16.781  12.814   0.997
72354W        W76315  15.124  12.234   2.471
72355W        W76316  15.109  12.110   3.393
72356W        W76317  14.999  11.027   1.552
72357W        W76318  16.767  11.374   2.113
72358W        W76319  16.415  11.559   3.276
72359W        W76320  16.770  11.708   0.454
72360W        W76321  17.953  14.101   3.208
72361W        W76322  16.920  11.182   3.247
72362W        W76323  17.939  13.483   3.369
72363W        W76324  17.369  11.650   2.965
72364W        W76325  17.169  11.588   1.235
72365W        W76326  17.562  12.722   3.639
72366W        W76327  15.302  14.298   1.625
72367W        W76328  15.960  12.015   0.611
72368W        W76329  15.529  11.299   3.275
72369W        W76330  17.581  11.783   0.956
72370W        W76331  17.948  12.265   0.901
72371W        W76332  15.691  14.482   3.372
72372W        W76333  15.617  11.018   0.607
72373W        W76334  17.938  11.552   1.642
72374W        W76335  18.088  13.801   0.087
72375W        W76336  14.995  13.004   1.789
72376W        W76337  16.912  11.591   0.019
72377W        W76338  18.046  13.923   1.739
72378W        W76339  18.085  11.117   2.489
72379W        W76340  16.530  12.329   3.043
72380W        W76341  16.623  13.668   0.746
72381W        W76342  17.023  12.962   3.486
72382W        W76343  16.697  10.939   1.795
72383W        W76344  15.309  11.842   1.858
72384W        W76345  14.863  13.042   2.632
72385W        W76346  16.722  14.235   1.338
72386W        W76347  17.916  11.832   2.210
72387W        W76348  16.553  14.179   2.977
72388W        W76349  17.896  13.238   0.182
72389W        W76350  16.331  12.721   1.243
72390W        W76351  18.183  11.232   2.984
72391W        W76352  16.332  13.067   2.578
72392W        W76353  16.549  11.953   2.023
72393W        W76354  17.401  12.251   0.861
72394W        W76355  17.688  11.984   0.503
72395W        W76356  17.497  14.024   0.892
72396W        W76357  17.331  13.627   1.688
72397W        W76358  17.227  12.706   0.666
72398W        W76359  16.660  12.916   1.652
72399W        W76360  17.541  12.704   1.719
72400W        W76361  14.916  11.719   2.143
72401W        W76362  17.694  12.771   2.970
72402W        W76363  18.045  14.389   2.116
72403W        W76364  15.975  13.833   1.518
72404W        W76365  16.982  14.366   2.842
72405W        W76366  16.976  11.696   2.606
72406W        W76367  16.183  14.404   2.667
72407W        W76368  17.880  11.358   1.133
72408W        W76369  17.671  12.677   2.434
72409W        W76370  14.654  11.998   2.472
72410W        W76371  17.514  11.793   1.490
72411W        W76372  17.925  11.944   3.267
72412W        W76373  16.810  13.643   1.485
72413W        W76374  16.066  14.234   1.098
72414W        W76375  15.181  11.414   0.356
72415W        W76376  16.285  11.068   2.166
72416W        W76377  15.313  14.188   0.014
72417W        W76378  15.687  12.654   0.765
72418W        W76379  16.341  13.283   3.078
72419W        W76380  16.171  11.641   1.068
72420W        W76381  17.527  11.238   1.496
72421W        W76382  17.247  14.520   1.824
72422W        W76383  16.659  14.168   2.164
72423W        W76384  16.055  13.205   2.125
72424W        W76385  17.825  13.928   2.251
72425W        W76386  15.519  11.431   1.020
72426W        W76387  16.041  13.728   1.980
72427W        W76388  15.524  11.659   0.045
72428W        W76389  16.325  12.268   2.439
72429W        W76390  17.173  11.134   2.309
72430W        W76391  14.593  12.977   2.194
72431W        W76392  16.297  12.795   0.352
72432W        W76393  15.565  11.110   0.122
72433W        W76394  16.303  12.191   1.173
72434W        W76395  17.273  11.167   2.872
72435W        W76396  15.861  13.179   2.981
72436W        W76397  16.665  12.961   3.198
72437W        W76398  17.282  12.991   3.091
72438W        W76399  16.566  11.131   3.596
72439W        W76400  15.788  11.747   1.989
72440W        W76401  15.214  11.703   1.387
72441W        W76402  15.000  14.415   1.063
72442W        W76403  16.332  13.745   3.188
72443W        W76404  15.367  13.230   0.547
72444W        W76405  17.047  12.615   1.768
72445W        W76406  17.327  12.414   2.167
72446W        W76407  16.532  13.088   2.101
72447W        W76408  17.002  13.462   0.233
72448W        W76409  16.674  11.483   1.561
72449W        W76410  18.153  11.761   0.829
72450W        W76411  14.647  14.350   2.860
72451W        W76412  15.064  13.576   2.392
72452W        W76413  14.631  14.422   0.624
72453W        W76414  16.530  11.692   2.430
72454W        W76415  15.893  13.715   0.279
72455W        W76416  17.798  14.097   0.465
72456W        W76417  16.773  12.750   0.479
72457W        W76418  15.616  11.941   0.996
72458W        W76419  16.448  11.851   0.048
72459W        W76420  17.032  13.416   3.226
72460W        W76421  17.385  11.322   0.843
72461W        W76422  14.715  11.170   0.291
72462W        W76423  16.001  13.489   2.581
72463W        W76424  15.800  13.405   1.673
72464W        W76425  15.542  13.357   0.071
72465W        W76426  14.783  13.598   0.839
72466W        W76427  15.287  12.668   3.281
72467W        W76428  15.991  11.228   3.467
72468W        W76429  16.700  11.370   2.823
72469W        W76430  15.895  11.138   1.104
72470W        W76431  16.954  11.215   0.609
72471W        W76432  14.899  11.147   2.186
72472W        W76433  14.947  12.110   1.556
72473W        W76434  17.636  11.218   1.962
72474W        W76435  15.058  11.716   0.776
72475W        W76436  17.629  11.404   2.392
72476W        W76437  18.025  12.607   0.077
72477W        W76438  15.317  11.365   1.896
72478W        W76439  16.431  11.937   2.836
72479W        W76440  14.579  11.627   0.314
72480W        W76441  15.365  13.016   2.875
72481W        W76442  16.723  12.414   2.054
72482W        W76443  16.590  14.493   0.350
72483W        W76444  14.736  13.000   0.047
72484W        W76445  15.471  13.411   3.173
72485W        W76446  14.992  12.578   2.804
72486W        W76447  15.983  12.683   2.598
72487W        W76448  17.751  11.042   2.860
72488W        W76449  18.149  12.652   2.851
72489W        W76450  18.137  12.852   0.537
72490W        W76451  17.000  13.184   0.636
72491W        W76452  17.474  14.484   0.331
72492W        W76453  16.651  12.474   3.473
72493W        W76454  14.981  13.441   3.513
72494W        W76455  18.187  11.363   3.465
72495W        W76456  17.905  12.291   2.086
72496W        W76457  16.213  14.421   3.563
72497W        W76458  16.068  11.050   0.290
72498W        W76459  17.607  13.649   0.233
72499W        W76460  15.376  11.742   3.119
72500W        W76461  15.810  13.736   2.981
72501W        W76462  17.936  11.727   2.779
72502W        W76463  17.147  14.386   0.747
72503W        W76464  17.386  13.005   2.114
72504W        W76465  15.636  11.421   2.781
72505W        W76466  16.105  12.490   3.538
72506W        W76467  15.608  13.669   0.732
72507W        W76468  17.363  13.167   0.996
72508W        W76469  15.131  11.793   2.720
72509W        W76470  16.460  13.855   1.184
72510W        W76471  18.210  12.415   1.365
72511W        W76472  16.432  11.048   3.084
72512W        W76473  17.212  13.753   2.163
72513W        W76474  17.515  14.097   1.871
72514W        W76475  16.734  13.899   0.299
72515W        W76476  14.744  13.791   3.141
72516W        W76477  15.487  11.783   2.379
72517W        W76478  15.457  11.131   1.489
72518W        W76479  17.078  11.973   2.181
72519W        W76480  15.876  13.144   0.381
72520W        W76481  17.874  13.086   1.880
72521W        W76482  15.201  13.844   3.303
72522W        W76483  17.588  14.526   1.100
72523W        W76484  15.687  11.546   1.545
72524W        W76485  15.456  13.039   1.635
72525W        W76486  15.769  14.450   2.385
72526W        W76487  17.836  14.546   3.417
72527W        W76488  16.995  12.734   2.350
72528W        W76489  14.844  12.532   0.265
72529W        W76490  17.978  14.190   0.962
72530W        W76491  17.815  11.514   0.581
72531W        W76492  15.954  11.033   2.984
72532W        W76493  17.660  13.835   1.442
72533W        W76494  17.689  12.391   1.347
72534W        W76495  15.806  12.064   1.563
72535W        W76496  16.051  12.326   2.887
72536W        W76497  17.162  13.479   2.750
72537W        W76498  15.812  11.933   2.862
72538W        W76499  15.791  14.399   1.478
72539W        W76500  15.108  14.358   3.112
72540W        W76501  15.220  13.719   0.242
72541W        W76502  17.737  13.477   1.052
72542W        W76503  15.341  12.269   2.938
72543W        W76504  18.114  12.199   0.419
72544W        W76505  15.859  13.256   0.890
72545W        W76506  16.958  12.638   2.971
72546W        W76507  16.849  12.266   2.515
72547W        W76508  15.409  12.638   2.544
72548W        W76509  17.619  14.526   2.373
72549W        W76510  17.410  11.160   3.367
72550W        W76511  15.074  11.310   2.954
72551W        W76512  15.413  12.333   2.007
72552W        W76513  15.782  12.147   0.129
72553W        W76514  14.585  13.906   2.674
72554W        W76515  16.170  12.615   2.117
72555W        W76516  15.993  11.640   0.222
72556W        W76517  15.128  12.456   1.003
72557W        W76518  14.899  14.308   2.440
72558W        W76519  17.694  12.534   0.548
72559W        W76520  17.789  11.450   3.234
72560W        W76521  17.225  13.659   1.197
72561W        W76522  14.823  12.583   3.374
72562W        W76523  17.789  11.047   0.670
72563W        W76524  17.309  13.522   0.681
72564W        W76525  16.211  12.580   0.766
72565W        W76526  17.398  11.384   0.289
72566W        W76527  17.463  11.991   2.475
72567W        W76528  15.172  12.584   1.682
72568W        W76529  15.466  13.523   1.331
72569W        W76530  17.229  12.143   1.296
72570W        W76531  16.252  11.522   1.992
72571W        W76532  18.214  13.433   2.503
72572W        W76533  18.132  11.420   2.064
72573W        W76534  14.671  14.250   1.440
72574W        W76535  15.180  13.437   0.976
72575W        W76536  15.095  11.054   3.529
72576W        W76537  16.214  13.907   3.631
72577W        W76538  17.969  12.875   1.421
72578W        W76539  17.323  13.052   0.301
72579W        W76540  16.618  14.573   2.513
72580W        W76541  17.475  13.295   3.550
72581W        W76542  16.290  11.005   0.830
72582W        W76543  17.003  11.874   1.689
72583W        W76544  14.689  13.461   2.021
72584W        W76545  15.942  11.423   0.662
72585W        W76546  15.746  12.907   3.511
72586W        W76547  16.740  11.888   1.225
72587W        W76548  16.945  13.298   2.347
72588W        W76549  15.099  13.903   2.782
72589W        W76550  15.690  13.886   3.505
72590W        W76551  15.541  11.683   0.519
72591W        W76552  17.058  11.825   0.844
72592W        W76553  17.016  13.933   3.081
72593W        W76554  15.701  12.525   1.680
72594W        W76555  15.356  14.223   2.545
72595W        W76556  18.101  14.340   0.146
72596W        W76557  14.964  13.012   3.142
72597W        W76558  16.959  13.274   1.830
72598W        W76559  15.395  12.923   1.072
72599W        W76560  15.766  13.930   2.467
72600W        W76561  16.144  11.349   1.508
72601W        W76562  14.755  13.333   0.438
72602W        W76563  16.274  12.284   0.308
72603W        W76564  14.920  12.833   1.327
72604W        W76565  16.210  11.475   2.791
72605W        W76566  17.882  11.184   0.218
72606W        W76567  17.975  12.930   3.317
72607W        W76568  16.629  14.187   3.469
72608W        W76569  18.187  13.281   2.991
72609W        W76570  17.595  14.079   3.602
72610W        W76571  15.334  14.535   2.080
72611W        W76572  18.193  13.157   0.954
72612W        W76573  16.723  12.424   1.467
72613W        W76574  16.490  11.036   1.357
72614W        W76575  15.549  14.020   1.194
72615W        W76576  16.048  11.761   2.419
72616W        W76577  15.748  11.130   1.888
72617W        W76578  14.811  13.952   0.436
72618W        W76579  16.627  13.316   1.154
72619W        W76580  15.502  14.111   3.033
72620W        W76581  14.979  12.934   0.729
72621W        W76582  14.864  11.477   1.728
72622W        W76583  16.412  13.442   1.785
72623W        W76584  14.664  11.296   0.805
72624W        W76585  17.328  12.502   2.732
72625W        W76586  17.205  11.888   0.304
72626W        W76587  17.722  13.560   1.952
72627W        W76588  16.383  14.044   1.783
72628W        W76589  15.795  14.148   0.694
72629W        W76590  17.077  11.051   0.124
72630W        W76591  14.877  14.311   1.865
72631W        W76592  17.074  12.069   3.500
72632W        W76593  15.057  11.599   3.499
72633W        W76594  14.788  12.199   0.832
72634W        W76595  15.479  12.188   0.557
72635W        W76596  17.242  12.515   3.374
72636W        W76597  15.585  12.796   2.083
72637W        W76598  17.059  11.082   1.203
72638W        W76599  16.190  14.513   1.706
72639W        W76600  17.404  13.975   2.643
72640W        W76601  16.988  14.124   1.754
72641W        W76602  17.007  13.104   1.348
72642W        W76603  16.469  11.329   0.419
72643W        W76604  18.150  10.957   1.141
72644W        W76605  15.838  12.592   0.304
72645W        W76606  18.004  11.929   1.294
72646W        W76607  16.696  13.099   0.171
72647W        W76608  17.632  13.299   2.919
72648W        W76609  17.286  14.000   0.386
72649W        W76610  15.901  11.675   3.292
72650W        W76611  15.721  12.259   2.533
72651W        W76612  17.813  13.754   2.810
72652W        W76613  16.913  11.704   3.187
72653W        W76614  14.757  12.175   2.964
72654W        W76615  16.517  12.652   2.690
72655W        W76616  14.874  13.410   1.347
72656W        W76617  15.021  12.707   2.237
72657W        W76618  17.338  12.993   2.587
72658W        W76619  17.110  14.373   3.398
72659W        W76620  17.006  12.112   2.951
72660W        W76621  17.283  14.166   1.356
72661W        W76622  16.285  13.886   2.679
72662W        W76623  15.770  14.241   1.948
72663W        W76624  17.575  13.412   2.367
72664W        W76625  16.625  13.484   3.504
72665W        W76626  15.230  13.437   1.843
72666W        W76627  17.576  13.196   1.488
72667W        W76628  17.217  14.262   2.239
72668W        W76629  15.195  13.991   2.109
72669W        W76630  16.216  12.043   3.319
72670W        W76631  16.667  14.209   0.830
72671W        W76632  15.975  13.464   3.468
72672W        W76633  16.101  13.702   0.845
72673W        W76634  15.322  12.442   0.104
72674W        W76635  14.661  14.528   7.003
72675W        W76636  15.037  13.421   6.526
72676W        W76637  17.742  13.151   4.296
72677W        W76638  17.872  14.236   6.323
72678W        W76639  15.790  14.227   3.849
72679W        W76640  15.873  12.379   4.832
72680W        W76641  15.388  12.227   4.996
72681W        W76642  16.379  13.042   4.430
72682W        W76643  16.054  14.134   6.785
72683W        W76644  14.703  11.695   6.748
72684W        W76645  15.465  10.975   6.550
72685W        W76646  17.159  11.363   5.437
72686W        W76647  16.808  12.234   4.007
72687W        W76648  17.378  11.668   7.098
72688W        W76649  14.744  11.460   6.223
72689W        W76650  14.843  14.079   7.244
72690W        W76651  16.365  13.469   3.976
72691W        W76652  14.797  12.252   5.669
72692W        W76653  15.690  12.143   6.906
72693W        W76654  18.149  12.002   5.405
72694W        W76655  17.913  13.045   6.264
72695W        W76656  16.221  12.378   5.291
72696W        W76657  16.767  13.717   5.660
72697W        W76658  15.267  13.151   5.892
72698W        W76659  14.626  12.679   5.463
72699W        W76660  15.662  12.651   6.655
72700W        W76661  17.933  12.434   6.909
72701W        W76662  15.549  13.878   5.354
72702W        W76663  16.670  13.567   6.488
72703W        W76664  15.890  12.207   5.713
72704W        W76665  16.182  12.991   5.356
72705W        W76666  17.179  13.764   7.204
72706W        W76667  16.258  13.084   7.214
72707W        W76668  16.239  12.800   6.692
72708W        W76669  14.648  12.191   7.214
72709W        W76670  17.480  13.726   6.813
72710W        W76671  15.061  11.308   4.811
72711W        W76672  15.588  13.566   5.810
72712W        W76673  18.051  13.349   5.100
72713W        W76674  17.464  11.749   5.667
72714W        W76675  17.749  11.702   3.762
72715W        W76676  18.214  12.503   6.068
72716W        W76677  16.181  14.210   5.821
72717W        W76678  17.955  13.676   4.259
72718W        W76679  15.084  14.462   4.013
72719W        W76680  15.477  14.508   4.689
72720W        W76681  15.274  11.262   6.115
72721W        W76682  17.897  12.280   6.390
72722W        W76683  17.302  12.702   4.849
72723W        W76684  17.268  12.390   3.876
72724W        W76685  16.476  13.534   6.016
72725W        W76686  16.282  11.864   5.215
72726W        W76687  16.882  13.951   6.209
72727W        W76688  17.753  12.742   4.631
72728W        W76689  16.655  11.400   4.647
72729W        W76690  15.312  14.094   4.330
72730W        W76691  14.683  11.593   4.929
72731W        W76692  17.469  12.200   5.403
72732W        W76693  14.927  13.817   5.318
72733W        W76694  16.268  14.167   4.188
72734W        W76695  17.660  12.193   3.652
72735W        W76696  14.683  13.951   5.816
72736W        W76697  15.474  13.523   6.296
72737W        W76698  15.847  12.883   4.915
72738W        W76699  15.869  11.288   6.008
72739W        W76700  18.098  11.050   5.305
72740W        W76701  15.317  12.922   3.773
72741W        W76702  14.972  11.955   3.952
72742W        W76703  15.034  13.911   4.746
72743W        W76704  16.165  13.394   4.994
72744W        W76705  17.497  14.253   6.708
72745W        W76706  16.423  11.895   4.392
72746W        W76707  17.806  14.293   5.164
72747W        W76708  17.483  12.146   6.762
72748W        W76709  18.196  13.802   4.896
72749W        W76710  16.823  13.094   6.380
72750W        W76711  14.589  12.645   4.586
72751W        W76712  15.700  13.060   6.159
72752W        W76713  16.904  12.324   4.537
72753W        W76714  16.781  12.814   4.641
72754W        W76715  15.124  12.234   6.115
72755W        W76716  15.109  12.110   7.037
72756W        W76717  14.999  11.027   5.196
72757W        W76718  16.767  11.374   5.757
72758W        W76719  16.415  11.559   6.920
72759W        W76720  16.770  11.708   4.098
72760W        W76721  17.953  14.101   6.852
72761W        W76722  16.920  11.182   6.891
72762W        W76723  17.939  13.483   7.013
72763W        W76724  17.369  11.650   6.609
72764W        W76725  17.169  11.588   4.879
72765W        W76726  17.562  12.722   7.283
72766W        W76727  15.302  14.298   5.269
72767W        W76728  15.960  12.015   4.255
72768W        W76729  15.529  11.299   6.919
72769W        W76730  17.581  11.783   4.600
72770W        W76731  17.948  12.265   4.545
72771W        W76732  15.691  14.482   7.016
72772W        W76733  15.617  11.018   4.251
72773W        W76734  17.938  11.552   5.286
72774W        W76735  18.088  13.801   3.731
72775W        W76736  14.995  13.004   5.433
72776W        W76737  16.912  11.591   3.663
72777W        W76738  18.046  13.923   5.383
72778W        W76739  18.085  11.117   6.133
72779W        W76740  16.530  12.329   6.687
72780W        W76741  16.623  13.668   4.390
72781W        W76742  17.023  12.962   7.130
72782W        W76743  16.697  10.939   5.439
72783W        W76744  15.309  11.842   5.502
72784W        W76745  14.863  13.042   6.276
72785W        W76746  16.722  14.235   4.982
72786W        W76747  17.916  11.832   5.854
72787W        W76748  16.553  14.179   6.621
72788W        W76749  17.896  13.238   3.826
72789W        W76750  16.331  12.721   4.887
72790W        W76751  18.183  11.232   6.628
72791W        W76752  16.332  13.067   6.222
72792W        W76753  16.549  11.953   5.667
72793W        W76754  17.401  12.251   4.505
72794W        W76755  17.688  11.984   4.147
72795W        W76756  17.497  14.024   4.536
72796W        W76757  17.331  13.627   5.332
72797W        W76758  17.227  12.706   4.310
72798W        W76759  16.660  12.916   5.296
72799W        W76760  17.541  12.704   5.363
72800W        W76761  14.916  11.719   5.787
72801W        W76762  17.694  12.771   6.614
72802W        W76763  18.045  14.389   5.760
72803W        W76764  15.975  13.833   5.162
72804W        W76765  16.982  14.366   6.486
72805W        W76766  16.976  11.696   6.250
72806W        W76767  16.183  14.404   6.311
72807W        W76768  17.880  11.358   4.777
72808W        W76769  17.671  12.677   6.078
72809W        W76770  14.654  11.998   6.116
72810W        W76771  17.514  11.793   5.134
72811W        W76772  17.925  11.944   6.911
72812W        W76773  16.810  13.643   5.129
72813W        W76774  16.066  14.234   4.742
72814W        W76775  15.181  11.414   4.000
72815W        W76776  16.285  11.068   5.810
72816W        W76777  15.313  14.188   3.658
72817W        W76778  15.687  12.654   4.409
72818W        W76779  16.341  13.283   6.722
72819W        W76780  16.171  11.641   4.712
72820W        W76781  17.527  11.238   5.140
72821W        W76782  17.247  14.520   5.468
72822W        W76783  16.659  14.168   5.808
72823W        W76784  16.055  13.205   5.769
72824W        W76785  17.825  13.928   5.895
72825W        W76786  15.519  11.431   4.664
72826W        W76787  16.041  13.728   5.624
72827W        W76788  15.524  11.659   3.689
72828W        W76789  16.325  12.268   6.083
72829W        W76790  17.173  11.134   5.953
72830W        W76791  14.593  12.977   5.838
72831W        W76792  16.297  12.795   3.996
72832W        W76793  15.565  11.110   3.766
72833W        W76794  16.303  12.191   4.817
72834W        W76795  17.273  11.167   6.516
72835W        W76796  15.861  13.179   6.625
72836W        W76797  16.665  12.961   6.842
72837W        W76798  17.282  12.991   6.735
72838W        W76799  16.566  11.131   7.240
72839W        W76800  15.788  11.747   5.633
72840W        W76801  15.214  11.703   5.031
72841W        W76802  15.000  14.415   4.707
72842W        W76803  16.332  13.745   6.832
72843W        W76804  15.367  13.230   4.191
72844W        W76805  17.047  12.615   5.412
72845W        W76806  17.327  12.414   5.811
72846W        W76807  16.532  13.088   5.745
72847W        W76808  17.002  13.462   3.877
72848W        W76809  16.674  11.483   5.205
72849W        W76810  18.153  11.761   4.473
72850W        W76811  14.647  14.350   6.504
72851W        W76812  15.064  13.576   6.036
72852W        W76813  14.631  14.422   4.268
72853W        W76814  16.530  11.692   6.074
72854W        W76815  15.893  13.715   3.923
72855W        W76816  17.798  14.097   4.109
72856W        W76817  16.773  12.750   4.123
72857W        W76818  15.616  11.941   4.640
72858W        W76819  16.448  11.851   3.692
72859W        W76820  17.032  13.416   6.870
72860W        W76821  17.385  11.322   4.487
72861W        W76822  14.715  11.170   3.935
72862W        W76823  16.001  13.489   6.225
72863W        W76824  15.800  13.405   5.317
72864W        W76825  15.542  13.357   3.715
72865W        W76826  14.783  13.598   4.483
72866W        W76827  15.287  12.668   6.925
72867W        W76828  15.991  11.228   7.111
72868W        W76829  16.700  11.370   6.467
72869W        W76830  15.895  11.138   4.748
72870W        W76831  16.954  11.215   4.253
72871W        W76832  14.899  11.147   5.830
72872W        W76833  14.947  12.110   5.200
72873W        W76834  17.636  11.218   5.606
72874W        W76835  15.058  11.716   4.420
72875W        W76836  17.629  11.404   6.036
72876W        W76837  18.025  12.607   3.721
72877W        W76838  15.317  11.365   5.540
72878W        W76839  16.431  11.937   6.480
72879W        W76840  14.579  11.627   3.958
72880W        W76841  15.365  13.016   6.519
72881W        W76842  16.723  12.414   5.698
72882W        W76843  16.590  14.493   3.994
72883W        W76844  14.736  13.000   3.691
72884W        W76845  15.471  13.411   6.817
72885W        W76846  14.992  12.578   6.448
72886W        W76847  15.983  12.683   6.242
72887W        W76848  17.751  11.042   6.504
72888W        W76849  18.149  12.652   6.495
72889W        W76850  18.137  12.852   4.181
72890W        W76851  17.000  13.184   4.280
72891W        W76852  17.474  14.484   3.975
72892W        W76853  16.651  12.474   7.117
72893W        W76854  14.981  13.441   7.157
72894W        W76855  18.187  11.363   7.109
72895W        W76856  17.905  12.291   5.730
72896W        W76857  16.213  14.421   7.207
72897W        W76858  16.068  11.050   3.934
72898W        W76859  17.607  13.649   3.877
72899W        W76860  15.376  11.742   6.763
72900W        W76861  15.810  13.736   6.625
72901W        W76862  17.936  11.727   6.423
72902W        W76863  17.147  14.386   4.391
72903W        W76864  17.386  13.005   5.758
72904W        W76865  15.636  11.421   6.425
72905W        W76866  16.105  12.490   7.182
72906W        W76867  15.608  13.669   4.376
72907W        W76868  17.363  13.167   4.640
72908W        W76869  15.131  11.793   6.364
72909W        W76870  16.460  13.855   4.828
72910W        W76871  18.210  12.415   5.009
72911W        W76872  16.432  11.048   6.728
72912W        W76873  17.212  13.753   5.807
72913W        W76874  17.515  14.097   5.515
72914W        W76875  16.734  13.899   3.943
72915W        W76876  14.744  13.791   6.785
72916W        W76877  15.487  11.783   6.023
72917W        W76878  15.457  11.131   5.133
72918W        W76879  17.078  11.973   5.825
72919W        W76880  15.876  13.144   4.025
72920W        W76881  17.874  13.086   5.524
72921W        W76882  15.201  13.844   6.947
72922W        W76883  17.588  14.526   4.744
72923W        W76884  15.687  11.546   5.189
72924W        W76885  15.456  13.039   5.279
72925W        W76886  15.769  14.450   6.029
72926W        W76887  17.836  14.546   7.061
72927W        W76888  16.995  12.734   5.994
72928W        W76889  14.844  12.532   3.909
72929W        W76890  17.978  14.190   4.606
72930W        W76891  17.815  11.514   4.225
72931W        W76892  15.954  11.033   6.628
72932W        W76893  17.660  13.835   5.086
72933W        W76894  17.689  12.391   4.991
72934W        W76895  15.806  12.064   5.207
72935W        W76896  16.051  12.326   6.531
72936W        W76897  17.162  13.479   6.394
72937W        W76898  15.812  11.933   6.506
72938W        W76899  15.791  14.399   5.122
72939W        W76900  15.108  14.358   6.756
72940W        W76901  15.220  13.719   3.886
72941W        W76902  17.737  13.477   4.696
72942W        W76903  15.341  12.269   6.582
72943W        W76904  18.114  12.199   4.063
72944W        W76905  15.859  13.256   4.534
72945W        W76906  16.958  12.638   6.615
72946W        W76907  16.849  12.266   6.159
72947W        W76908  15.409  12.638   6.188
72948W        W76909  17.619  14.526   6.017
72949W        W76910  17.410  11.160   7.011
72950W        W76911  15.074  11.310   6.598
72951W        W76912  15.413  12.333   5.651
72952W        W76913  15.782  12.147   3.773
72953W        W76914  14.585  13.906   6.318
72954W        W76915  16.170  12.615   5.761
72955W        W76916  15.993  11.640   3.866
72956W        W76917  15.128  12.456   4.647
72957W        W76918  14.899  14.308   6.084
72958W        W76919  17.694  12.534   4.192
72959W        W76920  17.789  11.450   6.878
72960W        W76921  17.225  13.659   4.841
72961W        W76922  14.823  12.583   7.018
72962W        W76923  17.789  11.047   4.314
72963W        W76924  17.309  13.522   4.325
72964W        W76925  16.211  12.580   4.410
72965W        W76926  17.398  11.384   3.933
72966W        W76927  17.463  11.991   6.119
72967W        W76928  15.172  12.584   5.326
72968W        W76929  15.466  13.523   4.975
72969W        W76930  17.229  12.143   4.940
72970W        W76931  16.252  11.522   5.636
72971W        W76932  18.214  13.433   6.147
72972W        W76933  18.132  11.420   5.708
72973W        W76934  14.671  14.250   5.084
72974W        W76935  15.180  13.437   4.620
72975W        W76936  15.095  11.054   7.173
72976W        W76937  16.214  13.907   7.275
72977W        W76938  17.969  12.875   5.065
72978W        W76939  17.323  13.052   3.945
72979W        W76940  16.618  14.573   6.157
72980W        W76941  17.475  13.295   7.194
72981W        W76942  16.290  11.005   4.474
72982W        W76943  17.003  11.874   5.333
72983W        W76944  14.689  13.461   5.665
72984W        W76945  15.942  11.423   4.306
72985W        W76946  15.746  12.907   7.155
72986W        W76947  16.740  11.888   4.869
72987W        W76948  16.945  13.298   5.991
72988W        W76949  15.099  13.903   6.426
72989W        W76950  15.690  13.886   7.149
72990W        W76951  15.541  11.683   4.163
72991W        W76952  17.058  11.825   4.488
72992W        W76953  17.016  13.933   6.725
72993W        W76954  15.701  12.525   5.324
72994W        W76955  15.356  14.223   6.189
72995W        W76956  18.101  14.340   3.790
72996W        W76957  14.964  13.012   6.786
72997W        W76958  16.959  13.274   5.474
72998W        W76959  15.395  12.923   4.716
72999W        W76960  15.766  13.930   6.111
73000W        W76961  16.144  11.349   5.152
73001W        W76962  14.755  13.333   4.082
73002W        W76963  16.274  12.284   3.952
73003W        W76964  14.920  12.833   4.971
73004W        W76965  16.210  11.475   6.435
73005W        W76966  17.882  11.184   3.862
73006W        W76967  17.975  12.930   6.961
73007W        W76968  16.629  14.187   7.113
73008W        W76969  18.187  13.281   6.635
73009W        W76970  17.595  14.079   7.246
73010W        W76971  15.334  14.535   5.724
73011W        W76972  18.193  13.157   4.598
73012W        W76973  16.723  12.424   5.111
73013W        W76974  16.490  11.036   5.001
73014W        W76975  15.549  14.020   4.838
73015W        W76976  16.048  11.761   6.063
73016W        W76977  15.748  11.130   5.532
73017W        W76978  14.811  13.952   4.080
73018W        W76979  16.627  13.316   4.798
73019W        W76980  15.502  14.111   6.677
73020W        W76981  14.979  12.934   4.373
73021W        W76982  14.864  11.477   5.372
73022W        W76983  16.412  13.442   5.429
73023W        W76984  14.664  11.296   4.449
73024W        W76985  17.328  12.502   6.376
73025W        W76986  17.205  11.888   3.948
73026W        W76987  17.722  13.560   5.596
73027W        W76988  16.383  14.044   5.427
73028W        W76989  15.795  14.148   4.338
73029W        W76990  17.077  11.051   3.768
73030W        W76991  14.877  14.311   5.509
73031W        W76992  17.074  12.069   7.144
73032W        W76993  15.057  11.599   7.143
73033W        W76994  14.788  12.199   4.476
73034W        W76995  15.479  12.188   4.201
73035W        W76996  17.242  12.515   7.018
73036W        W76997  15.585  12.796   5.727
73037W        W76998  17.059  11.082   4.847
73038W        W76999  16.190  14.513   5.350
73039W        W77000  17.404  13.975   6.287
73040W        W77001  16.988  14.124   5.398
73041W        W77002  17.007  13.104   4.992
73042W        W77003  16.469  11.329   4.063
73043W        W77004  18.150  10.957   4.785
73044W        W77005  15.838  12.592   3.948
73045W        W77006  18.004  11.929   4.938
73046W        W77007  16.696  13.099   3.815
73047W        W77008  17.632  13.299   6.563
73048W        W77009  17.286  14.000   4.030
73049W        W77010  15.901  11.675   6.936
73050W        W77011  15.721  12.259   6.177
73051W        W77012  17.813  13.754   6.454
73052W        W77013  16.913  11.704   6.831
73053W        W77014  14.757  12.175   6.608
73054W        W77015  16.517  12.652   6.334
73055W        W77016  14.874  13.410   4.991
73056W        W77017  15.021  12.707   5.881
73057W        W77018  17.338  12.993   6.231
73058W        W77019  17.110  14.373   7.042
73059W        W77020  17.006  12.112   6.595
73060W        W77021  17.283  14.166   5.000
73061W        W77022  16.285  13.886   6.323
73062W        W77023  15.770  14.241   5.592
73063W        W77024  17.575  13.412   6.011
73064W        W77025  16.625  13.484   7.148
73065W        W77026  15.230  13.437   5.487
73066W        W77027  17.576  13.196   5.132
73067W        W77028  17.217  14.262   5.883
73068W        W77029  15.195  13.991   5.753
73069W        W77030  16.216  12.043   6.963
73070W        W77031  16.667  14.209   4.474
73071W        W77032  15.975  13.464   7.112
73072W        W77033  16.101  13.702   4.489
73073W        W77034  15.322  12.442   3.748
73074W        W77035  14.661  14.528  10.648
73075W        W77036  15.037  13.421  10.171
73076W        W77037  17.742  13.151   7.941
73077W        W77038  15.790  14.227   7.494
73078W        W77039  15.873  12.379   8.477
73079W        W77040  15.388  12.227   8.641
73080W        W77041  16.379  13.042   8.075
73081W        W77042  16.054  14.134  10.430
73082W        W77043  14.703  11.695  10.393
73083W        W77044  15.465  10.975  10.195
73084W        W77045  17.159  11.363   9.082
73085W        W77046  16.808  12.234   7.652
73086W        W77047  17.378  11.668  10.743
73087W        W77048  14.744  11.460   9.868
73088W        W77049  14.843  14.079  10.889
73089W        W77050  16.365  13.469   7.621
73090W        W77051  14.797  12.252   9.314
73091W        W77052  15.690  12.143  10.551
73092W        W77053  18.149  12.002   9.050
73093W        W77054  17.913  13.045   9.909
73094W        W77055  16.221  12.378   8.936
73095W        W77056  16.767  13.717   9.305
73096W        W77057  15.267  13.151   9.537
73097W        W77058  14.626  12.679   9.108
73098W        W77059  15.662  12.651  10.300
73099W        W77060  17.933  12.434  10.554
73100W        W77061  15.549  13.878   8.999
73101W        W77062  16.670  13.567  10.133
73102W        W77063  15.890  12.207   9.358
73103W        W77064  16.182  12.991   9.001
73104W        W77065  17.179  13.764  10.849
73105W        W77066  16.258  13.084  10.859
73106W        W77067  16.239  12.800  10.337
73107W        W77068  14.648  12.191  10.859
73108W        W77069  17.480  13.726  10.458
73109W        W77070  15.061  11.308   8.456
73110W        W77071  15.588  13.566   9.455
73111W        W77072  18.051  13.349   8.745
73112W        W77073  17.464  11.749   9.312
73113W        W77074  17.749  11.702   7.407
73114W        W77075  18.214  12.503   9.713
73115W        W77076  16.181  14.210   9.466
73116W        W77077  17.955  13.676   7.904
73117W        W77078  15.084  14.462   7.658
73118W        W77079  15.477  14.508   8.334
73119W        W77080  15.274  11.262   9.760
73120W        W77081  17.897  12.280  10.035
73121W        W77082  17.302  12.702   8.494
73122W        W77083  17.268  12.390   7.521
73123W        W77084  16.476  13.534   9.661
73124W        W77085  16.282  11.864   8.860
73125W        W77086  16.882  13.951   9.854
73126W        W77087  17.753  12.742   8.276
73127W        W77088  16.655  11.400   8.292
73128W        W77089  15.312  14.094   7.975
73129W        W77090  14.683  11.593   8.574
73130W        W77091  17.469  12.200   9.048
73131W        W77092  14.927  13.817   8.963
73132W        W77093  16.268  14.167   7.833
73133W        W77094  17.660  12.193   7.297
73134W        W77095  14.683  13.951   9.461
73135W        W77096  15.474  13.523   9.941
73136W        W77097  15.847  12.883   8.560
73137W        W77098  15.869  11.288   9.653
73138W        W77099  18.098  11.050   8.950
73139W        W77100  15.317  12.922   7.418
73140W        W77101  14.972  11.955   7.597
73141W        W77102  15.034  13.911   8.391
73142W        W77103  16.165  13.394   8.639
73143W        W77104  17.497  14.253  10.353
73144W        W77105  16.423  11.895   8.037
73145W        W77106  17.806  14.293   8.809
73146W        W77107  17.483  12.146  10.407
73147W        W77108  18.196  13.802   8.541
73148W        W77109  16.823  13.094  10.025
73149W        W77110  14.589  12.645   8.231
73150W        W77111  15.700  13.060   9.804
73151W        W77112  16.904  12.324   8.182
73152W        W77113  16.781  12.814   8.286
73153W        W77114  15.124  12.234   9.760
73154W        W77115  15.109  12.110  10.682
73155W        W77116  14.999  11.027   8.841
73156W        W77117  16.767  11.374   9.402
73157W        W77118  16.415  11.559  10.565
73158W        W77119  16.770  11.708   7.743
73159W        W77120  17.953  14.101  10.497
73160W        W77121  16.920  11.182  10.536
73161W        W77122  17.939  13.483  10.658
73162W        W77123  17.369  11.650  10.254
73163W        W77124  17.169  11.588   8.524
73164W        W77125  17.562  12.722  10.928
73165W        W77126  15.302  14.298   8.914
73166W        W77127  15.960  12.015   7.900
73167W        W77128  15.529  11.299  10.564
73168W        W77129  17.581  11.783   8.245
73169W        W77130  17.948  12.265   8.190
73170W        W77131  15.691  14.482  10.661
73171W        W77132  15.617  11.018   7.896
73172W        W77133  17.938  11.552   8.931
73173W        W77134  18.088  13.801   7.376
73174W        W77135  14.995  13.004   9.078
73175W        W77136  16.912  11.591   7.308
73176W        W77137  18.046  13.923   9.028
73177W        W77138  18.085  11.117   9.778
73178W        W77139  16.530  12.329  10.332
73179W        W77140  16.623  13.668   8.035
73180W        W77141  17.023  12.962  10.775
73181W        W77142  16.697  10.939   9.084
73182W        W77143  15.309  11.842   9.147
73183W        W77144  14.863  13.042   9.921
73184W        W77145  16.722  14.235   8.627
73185W        W77146  17.916  11.832   9.499
73186W        W77147  16.553  14.179  10.266
73187W        W77148  17.896  13.238   7.471
73188W        W77149  16.331  12.721   8.532
73189W        W77150  18.183  11.232  10.273
73190W        W77151  16.332  13.067   9.867
73191W        W77152  16.549  11.953   9.312
73192W        W77153  17.401  12.251   8.150
73193W        W77154  17.688  11.984   7.792
73194W        W77155  17.497  14.024   8.181
73195W        W77156  17.331  13.627   8.977
73196W        W77157  17.227  12.706   7.955
73197W        W77158  16.660  12.916   8.941
73198W        W77159  17.541  12.704   9.008
73199W        W77160  14.916  11.719   9.432
73200W        W77161  17.694  12.771  10.259
73201W        W77162  18.045  14.389   9.405
73202W        W77163  15.975  13.833   8.807
73203W        W77164  16.982  14.366  10.131
73204W        W77165  16.976  11.696   9.895
73205W        W77166  16.183  14.404   9.956
73206W        W77167  17.880  11.358   8.422
73207W        W77168  17.671  12.677   9.723
73208W        W77169  14.654  11.998   9.761
73209W        W77170  17.514  11.793   8.779
73210W        W77171  17.925  11.944  10.556
73211W        W77172  16.810  13.643   8.774
73212W        W77173  16.066  14.234   8.387
73213W        W77174  15.181  11.414   7.645
73214W        W77175  16.285  11.068   9.455
73215W        W77176  15.313  14.188   7.303
73216W        W77177  15.687  12.654   8.054
73217W        W77178  16.341  13.283  10.367
73218W        W77179  16.171  11.641   8.357
73219W        W77180  17.527  11.238   8.785
73220W        W77181  17.247  14.520   9.113
73221W        W77182  16.659  14.168   9.453
73222W        W77183  16.055  13.205   9.414
73223W        W77184  17.825  13.928   9.540
73224W        W77185  15.519  11.431   8.309
73225W        W77186  16.041  13.728   9.269
73226W        W77187  15.524  11.659   7.334
73227W        W77188  16.325  12.268   9.728
73228W        W77189  17.173  11.134   9.598
73229W        W77190  14.593  12.977   9.483
73230W        W77191  16.297  12.795   7.641
73231W        W77192  15.565  11.110   7.411
73232W        W77193  16.303  12.191   8.462
73233W        W77194  17.273  11.167  10.161
73234W        W77195  15.861  13.179  10.270
73235W        W77196  16.665  12.961  10.487
73236W        W77197  17.282  12.991  10.380
73237W        W77198  16.566  11.131  10.885
73238W        W77199  15.788  11.747   9.278
73239W        W77200  15.214  11.703   8.676
73240W        W77201  15.000  14.415   8.352
73241W        W77202  16.332  13.745  10.477
73242W        W77203  15.367  13.230   7.836
73243W        W77204  17.047  12.615   9.057
73244W        W77205  17.327  12.414   9.456
73245W        W77206  16.532  13.088   9.390
73246W        W77207  17.002  13.462   7.522
73247W        W77208  16.674  11.483   8.850
73248W        W77209  18.153  11.761   8.118
73249W        W77210  14.647  14.350  10.149
73250W        W77211  15.064  13.576   9.681
73251W        W77212  14.631  14.422   7.913
73252W        W77213  16.530  11.692   9.719
73253W        W77214  15.893  13.715   7.568
73254W        W77215  17.798  14.097   7.754
73255W        W77216  16.773  12.750   7.768
73256W        W77217  15.616  11.941   8.285
73257W        W77218  16.448  11.851   7.337
73258W        W77219  17.032  13.416  10.515
73259W        W77220  17.385  11.322   8.132
73260W        W77221  14.715  11.170   7.580
73261W        W77222  16.001  13.489   9.870
73262W        W77223  15.800  13.405   8.962
73263W        W77224  15.542  13.357   7.360
73264W        W77225  14.783  13.598   8.128
73265W        W77226  15.287  12.668  10.570
73266W        W77227  15.991  11.228  10.756
73267W        W77228  16.700  11.370  10.112
73268W        W77229  15.895  11.138   8.393
73269W        W77230  16.954  11.215   7.898
73270W        W77231  14.899  11.147   9.475
73271W        W77232  14.947  12.110   8.845
73272W        W77233  17.636  11.218   9.251
73273W        W77234  15.058  11.716   8.065
73274W        W77235  17.629  11.404   9.681
73275W        W77236  18.025  12.607   7.366
73276W        W77237  15.317  11.365   9.185
73277W        W77238  16.431  11.937  10.125
73278W        W77239  14.579  11.627   7.603
73279W        W77240  15.365  13.016  10.164
73280W        W77241  16.723  12.414   9.343
73281W        W77242  16.590  14.493   7.639
73282W        W77243  14.736  13.000   7.336
73283W        W77244  15.471  13.411  10.462
73284W        W77245  14.992  12.578  10.093
73285W        W77246  15.983  12.683   9.887
73286W        W77247  17.751  11.042  10.149
73287W        W77248  18.149  12.652  10.140
73288W        W77249  18.137  12.852   7.826
73289W        W77250  17.000  13.184   7.925
73290W        W77251  17.474  14.484   7.620
73291W        W77252  16.651  12.474  10.762
73292W        W77253  14.981  13.441  10.802
73293W        W77254  18.187  11.363  10.754
73294W        W77255  17.905  12.291   9.375
73295W        W77256  16.213  14.421  10.852
73296W        W77257  16.068  11.050   7.579
73297W        W77258  17.607  13.649   7.522
73298W        W77259  15.376  11.742  10.408
73299W        W77260  15.810  13.736  10.270
73300W        W77261  17.936  11.727  10.068
73301W        W77262  17.147  14.386   8.036
73302W        W77263  17.386  13.005   9.403
73303W        W77264  15.636  11.421  10.070
73304W        W77265  16.105  12.490  10.827
73305W        W77266  15.608  13.669   8.021
73306W        W77267  17.363  13.167   8.285
73307W        W77268  15.131  11.793  10.009
73308W        W77269  16.460  13.855   8.473
73309W        W77270  18.210  12.415   8.654
73310W        W77271  16.432  11.048  10.373
73311W        W77272  17.515  14.097   9.160
73312W        W77273  16.734  13.899   7.588
73313W        W77274  14.744  13.791  10.430
73314W        W77275  15.487  11.783   9.668
73315W        W77276  15.457  11.131   8.778
73316W        W77277  17.078  11.973   9.470
73317W        W77278  15.876  13.144   7.670
73318W        W77279  17.874  13.086   9.169
73319W        W77280  15.201  13.844  10.592
73320W        W77281  17.588  14.526   8.389
73321W        W77282  15.687  11.546   8.834
73322W        W77283  15.456  13.039   8.924
73323W        W77284  15.769  14.450   9.674
73324W        W77285  17.836  14.546  10.706
73325W        W77286  16.995  12.734   9.639
73326W        W77287  14.844  12.532   7.554
73327W        W77288  17.978  14.190   8.251
73328W        W77289  17.815  11.514   7.870
73329W        W77290  15.954  11.033  10.273
73330W        W77291  17.660  13.835   8.731
73331W        W77292  17.689  12.391   8.636
73332W        W77293  15.806  12.064   8.852
73333W        W77294  16.051  12.326  10.176
73334W        W77295  17.162  13.479  10.039
73335W        W77296  15.812  11.933  10.151
73336W        W77297  15.791  14.399   8.767
73337W        W77298  15.108  14.358  10.401
73338W        W77299  15.220  13.719   7.531
73339W        W77300  17.737  13.477   8.341
73340W        W77301  15.341  12.269  10.227
73341W        W77302  18.114  12.199   7.708
73342W        W77303  15.859  13.256   8.179
73343W        W77304  16.958  12.638  10.260
73344W        W77305  16.849  12.266   9.804
73345W        W77306  15.409  12.638   9.833
73346W        W77307  17.619  14.526   9.662
73347W        W77308  17.410  11.160  10.656
73348W        W77309  15.074  11.310  10.243
73349W        W77310  15.413  12.333   9.296
73350W        W77311  15.782  12.147   7.418
73351W        W77312  14.585  13.906   9.963
73352W        W77313  16.170  12.615   9.406
73353W        W77314  15.993  11.640   7.511
73354W        W77315  15.128  12.456   8.292
73355W        W77316  14.899  14.308   9.729
73356W        W77317  17.694  12.534   7.837
73357W        W77318  17.789  11.450  10.523
73358W        W77319  17.225  13.659   8.486
73359W        W77320  14.823  12.583  10.663
73360W        W77321  17.789  11.047   7.959
73361W        W77322  17.309  13.522   7.970
73362W        W77323  16.211  12.580   8.055
73363W        W77324  17.398  11.384   7.578
73364W        W77325  17.463  11.991   9.764
73365W        W77326  15.172  12.584   8.971
73366W        W77327  15.466  13.523   8.620
73367W        W77328  17.229  12.143   8.585
73368W        W77329  16.252  11.522   9.281
73369W        W77330  18.214  13.433   9.792
73370W        W77331  18.132  11.420   9.353
73371W        W77332  14.671  14.250   8.729
73372W        W77333  15.180  13.437   8.265
73373W        W77334  15.095  11.054  10.818
73374W        W77335  16.214  13.907  10.920
73375W        W77336  17.969  12.875   8.710
73376W        W77337  17.323  13.052   7.590
73377W        W77338  16.618  14.573   9.802
73378W        W77339  17.475  13.295  10.839
73379W        W77340  16.290  11.005   8.119
73380W        W77341  17.003  11.874   8.978
73381W        W77342  14.689  13.461   9.310
73382W        W77343  15.942  11.423   7.951
73383W        W77344  15.746  12.907  10.800
73384W        W77345  16.740  11.888   8.514
73385W        W77346  16.945  13.298   9.636
73386W        W77347  15.099  13.903  10.071
73387W        W77348  15.690  13.886  10.794
73388W        W77349  15.541  11.683   7.808
73389W        W77350  17.058  11.825   8.133
73390W        W77351  17.016  13.933  10.370
73391W        W77352  15.701  12.525   8.969
73392W        W77353  15.356  14.223   9.834
73393W        W77354  18.101  14.340   7.435
73394W        W77355  14.964  13.012  10.431
73395W        W77356  16.959  13.274   9.119
73396W        W77357  15.395  12.923   8.361
73397W        W77358  15.766  13.930   9.756
73398W        W77359  16.144  11.349   8.797
73399W        W77360  14.755  13.333   7.727
73400W        W77361  16.274  12.284   7.597
73401W        W77362  14.920  12.833   8.616
73402W        W77363  16.210  11.475  10.080
73403W        W77364  17.882  11.184   7.507
73404W        W77365  17.975  12.930  10.606
73405W        W77366  16.629  14.187  10.758
73406W        W77367  18.187  13.281  10.280
73407W        W77368  15.334  14.535   9.369
73408W        W77369  18.193  13.157   8.243
73409W        W77370  16.723  12.424   8.756
73410W        W77371  16.490  11.036   8.646
73411W        W77372  15.549  14.020   8.483
73412W        W77373  16.048  11.761   9.708
73413W        W77374  15.748  11.130   9.177
73414W        W77375  14.811  13.952   7.725
73415W        W77376  16.627  13.316   8.443
73416W        W77377  15.502  14.111  10.322
73417W        W77378  14.979  12.934   8.018
73418W        W77379  14.864  11.477   9.017
73419W        W77380  16.412  13.442   9.074
73420W        W77381  14.664  11.296   8.094
73421W        W77382  17.328  12.502  10.021
73422W        W77383  17.205  11.888   7.593
73423W        W77384  17.722  13.560   9.241
73424W        W77385  16.383  14.044   9.072
73425W        W77386  15.795  14.148   7.983
73426W        W77387  17.077  11.051   7.413
73427W        W77388  14.877  14.311   9.154
73428W        W77389  17.074  12.069  10.789
73429W        W77390  15.057  11.599  10.788
73430W        W77391  14.788  12.199   8.121
73431W        W77392  15.479  12.188   7.846
73432W        W77393  17.242  12.515  10.663
73433W        W77394  15.585  12.796   9.372
73434W        W77395  17.059  11.082   8.492
73435W        W77396  16.190  14.513   8.995
73436W        W77397  16.988  14.124   9.043
73437W        W77398  17.007  13.104   8.637
73438W        W77399  16.469  11.329   7.708
73439W        W77400  18.150  10.957   8.430
73440W        W77401  15.838  12.592   7.593
73441W        W77402  18.004  11.929   8.583
73442W        W77403  16.696  13.099   7.460
73443W        W77404  17.632  13.299  10.208
73444W        W77405  17.286  14.000   7.675
73445W        W77406  15.901  11.675  10.581
73446W        W77407  15.721  12.259   9.822
73447W        W77408  17.813  13.754  10.099
73448W        W77409  16.913  11.704  10.476
73449W        W77410  14.757  12.175  10.253
73450W        W77411  16.517  12.652   9.979
73451W        W77412  14.874  13.410   8.636
73452W        W77413  15.021  12.707   9.526
73453W        W77414  17.338  12.993   9.876
73454W        W77415  17.110  14.373  10.687
73455W        W77416  17.006  12.112  10.240
73456W        W77417  17.283  14.166   8.645
73457W        W77418  16.285  13.886   9.968
73458W        W77419  15.770  14.241   9.237
73459W        W77420  17.575  13.412   9.656
73460W        W77421  16.625  13.484  10.793
73461W        W77422  15.230  13.437   9.132
73462W        W77423  17.576  13.196   8.777
73463W        W77424  17.217  14.262   9.528
73464W        W77425  15.195  13.991   9.398
73465W        W77426  16.216  12.043  10.608
73466W        W77427  16.667  14.209   8.119
73467W        W77428  15.975  13.464  10.757
73468W        W77429  16.101  13.702   8.134
73469W        W77430  15.322  12.442   7.393
73470W        W77431  14.661  14.528  14.292
73471W        W77432  15.037  13.421  13.815
73472W        W77433  17.742  13.151  11.585
73473W        W77434  17.872  14.236  13.612
73474W        W77435  15.790  14.227  11.138
73475W        W77436  15.873  12.379  12.121
73476W        W77437  15.388  12.227  12.285
73477W        W77438  16.379  13.042  11.719
73478W        W77439  16.054  14.134  14.074
73479W        W77440  14.703  11.695  14.037
73480W        W77441  15.465  10.975  13.839
73481W        W77442  17.159  11.363  12.726
73482W        W77443  16.808  12.234  11.296
73483W        W77444  17.378  11.668  14.387
73484W        W77445  14.744  11.460  13.512
73485W        W77446  14.843  14.079  14.533
73486W        W77447  16.365  13.469  11.265
73487W        W77448  14.797  12.252  12.958
73488W        W77449  15.690  12.143  14.195
73489W        W77450  18.149  12.002  12.694
73490W        W77451  17.913  13.045  13.553
73491W        W77452  16.221  12.378  12.580
73492W        W77453  16.767  13.717  12.949
73493W        W77454  15.267  13.151  13.181
73494W        W77455  14.626  12.679  12.752
73495W        W77456  15.662  12.651  13.944
73496W        W77457  17.933  12.434  14.198
73497W        W77458  15.549  13.878  12.643
73498W        W77459  16.670  13.567  13.777
73499W        W77460  15.890  12.207  13.002
73500W        W77461  16.182  12.991  12.645
73501W        W77462  17.179  13.764  14.493
73502W        W77463  16.258  13.084  14.503
73503W        W77464  16.239  12.800  13.981
73504W        W77465  14.648  12.191  14.503
73505W        W77466  17.480  13.726  14.102
73506W        W77467  15.061  11.308  12.100
73507W        W77468  15.588  13.566  13.099
73508W        W77469  18.051  13.349  12.389
73509W        W77470  17.464  11.749  12.956
73510W        W77471  17.749  11.702  11.051
73511W        W77472  18.214  12.503  13.357
73512W        W77473  16.181  14.210  13.110
73513W        W77474  17.955  13.676  11.548
73514W        W77475  15.084  14.462  11.302
73515W        W77476  15.477  14.508  11.978
73516W        W77477  15.274  11.262  13.404
73517W        W77478  17.897  12.280  13.679
73518W        W77479  17.302  12.702  12.138
73519W        W77480  17.268  12.390  11.165
73520W        W77481  16.476  13.534  13.305
73521W        W77482  16.282  11.864  12.504
73522W        W77483  16.882  13.951  13.498
73523W        W77484  17.753  12.742  11.920
73524W        W77485  16.655  11.400  11.936
73525W        W77486  15.312  14.094  11.619
73526W        W77487  14.683  11.593  12.218
73527W        W77488  17.469  12.200  12.692
73528W        W77489  14.927  13.817  12.607
73529W        W77490  16.268  14.167  11.477
73530W        W77491  17.660  12.193  10.941
73531W        W77492  14.683  13.951  13.105
73532W        W77493  15.474  13.523  13.585
73533W        W77494  15.847  12.883  12.204
73534W        W77495  15.869  11.288  13.297
73535W        W77496  18.098  11.050  12.594
73536W        W77497  15.317  12.922  11.062
73537W        W77498  14.972  11.955  11.241
73538W        W77499  15.034  13.911  12.035
73539W        W77500  16.165  13.394  12.283
73540W        W77501  17.497  14.253  13.997
73541W        W77502  16.423  11.895  11.681
73542W        W77503  17.806  14.293  12.453
73543W        W77504  17.483  12.146  14.051
73544W        W77505  18.196  13.802  12.185
73545W        W77506  16.823  13.094  13.669
73546W        W77507  14.589  12.645  11.875
73547W        W77508  15.700  13.060  13.448
73548W        W77509  16.904  12.324  11.826
73549W        W77510  16.781  12.814  11.930
73550W        W77511  15.124  12.234  13.404
73551W        W77512  15.109  12.110  14.326
73552W        W77513  14.999  11.027  12.485
73553W        W77514  16.767  11.374  13.046
73554W        W77515  16.415  11.559  14.209
73555W        W77516  17.953  14.101  14.141
73556W        W77517  16.920  11.182  14.180
73557W        W77518  17.939  13.483  14.302
73558W        W77519  17.369  11.650  13.898
73559W        W77520  17.169  11.588  12.168
73560W        W77521  17.562  12.722  14.572
73561W        W77522  15.302  14.298  12.558
73562W        W77523  15.960  12.015  11.544
73563W        W77524  15.529  11.299  14.208
73564W        W77525  17.581  11.783  11.889
73565W        W77526  17.948  12.265  11.834
73566W        W77527  15.691  14.482  14.305
73567W        W77528  15.617  11.018  11.540
73568W        W77529  17.938  11.552  12.575
73569W        W77530  18.088  13.801  11.020
73570W        W77531  14.995  13.004  12.722
73571W        W77532  16.912  11.591  10.952
73572W        W77533  18.046  13.923  12.672
73573W        W77534  18.085  11.117  13.422
73574W        W77535  16.530  12.329  13.976
73575W        W77536  16.623  13.668  11.679
73576W        W77537  17.023  12.962  14.419
73577W        W77538  16.697  10.939  12.728
73578W        W77539  15.309  11.842  12.791
73579W        W77540  14.863  13.042  13.565
73580W        W77541  16.722  14.235  12.271
73581W        W77542  17.916  11.832  13.143
73582W        W77543  16.553  14.179  13.910
73583W        W77544  17.896  13.238  11.115
73584W        W77545  16.331  12.721  12.176
73585W        W77546  18.183  11.232  13.917
73586W        W77547  16.332  13.067  13.511
73587W        W77548  16.549  11.953  12.956
73588W        W77549  17.401  12.251  11.794
73589W        W77550  17.688  11.984  11.436
73590W        W77551  17.497  14.024  11.825
73591W        W77552  17.331  13.627  12.621
73592W        W77553  17.227  12.706  11.599
73593W        W77554  16.660  12.916  12.585
73594W        W77555  17.541  12.704  12.652
73595W        W77556  14.916  11.719  13.076
73596W        W77557  17.694  12.771  13.903
73597W        W77558  18.045  14.389  13.049
73598W        W77559  15.975  13.833  12.451
73599W        W77560  16.982  14.366  13.775
73600W        W77561  16.976  11.696  13.539
73601W        W77562  16.183  14.404  13.600
73602W        W77563  17.880  11.358  12.066
73603W        W77564  17.671  12.677  13.367
73604W        W77565  14.654  11.998  13.405
73605W        W77566  17.514  11.793  12.423
73606W        W77567  17.925  11.944  14.200
73607W        W77568  16.810  13.643  12.418
73608W        W77569  16.066  14.234  12.031
73609W        W77570  15.181  11.414  11.289
73610W        W77571  16.285  11.068  13.099
73611W        W77572  15.313  14.188  10.947
73612W        W77573  15.687  12.654  11.698
73613W        W77574  16.341  13.283  14.011
73614W        W77575  16.171  11.641  12.001
73615W        W77576  17.527  11.238  12.429
73616W        W77577  17.247  14.520  12.757
73617W        W77578  16.659  14.168  13.097
73618W        W77579  16.055  13.205  13.058
73619W        W77580  17.825  13.928  13.184
73620W        W77581  15.519  11.431  11.953
73621W        W77582  16.041  13.728  12.913
73622W        W77583  15.524  11.659  10.978
73623W        W77584  16.325  12.268  13.372
73624W        W77585  17.173  11.134  13.242
73625W        W77586  14.593  12.977  13.127
73626W        W77587  16.297  12.795  11.285
73627W        W77588  15.565  11.110  11.055
73628W        W77589  16.303  12.191  12.106
73629W        W77590  17.273  11.167  13.805
73630W        W77591  15.861  13.179  13.914
73631W        W77592  16.665  12.961  14.131
73632W        W77593  17.282  12.991  14.024
73633W        W77594  16.566  11.131  14.529
73634W        W77595  15.788  11.747  12.922
73635W        W77596  15.214  11.703  12.320
73636W        W77597  15.000  14.415  11.996
73637W        W77598  16.332  13.745  14.121
73638W        W77599  15.367  13.230  11.480
73639W        W77600  17.047  12.615  12.701
73640W        W77601  17.327  12.414  13.100
73641W        W77602  16.532  13.088  13.034
73642W        W77603  17.002  13.462  11.166
73643W        W77604  16.674  11.483  12.494
73644W        W77605  18.153  11.761  11.762
73645W        W77606  14.647  14.350  13.793
73646W        W77607  15.064  13.576  13.325
73647W        W77608  14.631  14.422  11.557
73648W        W77609  16.530  11.692  13.363
73649W        W77610  15.893  13.715  11.212
73650W        W77611  17.798  14.097  11.398
73651W        W77612  16.773  12.750  11.412
73652W        W77613  15.616  11.941  11.929
73653W        W77614  16.448  11.851  10.981
73654W        W77615  17.032  13.416  14.159
73655W        W77616  17.385  11.322  11.776
73656W        W77617  14.715  11.170  11.224
73657W        W77618  16.001  13.489  13.514
73658W        W77619  15.800  13.405  12.606
73659W        W77620  15.542  13.357  11.004
73660W        W77621  14.783  13.598  11.772
73661W        W77622  15.287  12.668  14.214
73662W        W77623  15.991  11.228  14.400
73663W        W77624  16.700  11.370  13.756
73664W        W77625  15.895  11.138  12.037
73665W        W77626  16.954  11.215  11.542
73666W        W77627  14.899  11.147  13.119
73667W        W77628  14.947  12.110  12.489
73668W        W77629  17.636  11.218  12.895
73669W        W77630  15.058  11.716  11.709
73670W        W77631  17.629  11.404  13.325
73671W        W77632  18.025  12.607  11.010
73672W        W77633  15.317  11.365  12.829
73673W        W77634  16.431  11.937  13.769
73674W        W77635  14.579  11.627  11.247
73675W        W77636  15.365  13.016  13.808
73676W        W77637  16.723  12.414  12.987
73677W        W77638  16.590  14.493  11.283
73678W        W77639  14.736  13.000  10.980
73679W        W77640  15.471  13.411  14.106
73680W        W77641  14.992  12.578  13.737
73681W        W77642  15.983  12.683  13.531
73682W        W77643  17.751  11.042  13.793
73683W        W77644  18.149  12.652  13.784
73684W        W77645  18.137  12.852  11.470
73685W        W77646  17.000  13.184  11.569
73686W        W77647  17.474  14.484  11.264
73687W        W77648  16.651  12.474  14.406
73688W        W77649  14.981  13.441  14.446
73689W        W77650  18.187  11.363  14.398
73690W        W77651  17.905  12.291  13.019
73691W        W77652  16.213  14.421  14.496
73692W        W77653  16.068  11.050  11.223
73693W        W77654  17.607  13.649  11.166
73694W        W77655  15.376  11.742  14.052
73695W        W77656  15.810  13.736  13.914
73696W        W77657  17.936  11.727  13.712
73697W        W77658  17.147  14.386  11.680
73698W        W77659  17.386  13.005  13.047
73699W        W77660  15.636  11.421  13.714
73700W        W77661  16.105  12.490  14.471
73701W        W77662  15.608  13.669  11.665
73702W        W77663  17.363  13.167  11.929
73703W        W77664  15.131  11.793  13.653
73704W        W77665  16.460  13.855  12.117
73705W        W77666  18.210  12.415  12.298
73706W        W77667  16.432  11.048  14.017
73707W        W77668  17.212  13.753  13.096
73708W        W77669  17.515  14.097  12.804
73709W        W77670  16.734  13.899  11.232
73710W        W77671  14.744  13.791  14.074
73711W        W77672  15.487  11.783  13.312
73712W        W77673  15.457  11.131  12.422
73713W        W77674  17.078  11.973  13.114
73714W        W77675  15.876  13.144  11.314
73715W        W77676  17.874  13.086  12.813
73716W        W77677  15.201  13.844  14.236
73717W        W77678  17.588  14.526  12.033
73718W        W77679  15.687  11.546  12.478
73719W        W77680  15.456  13.039  12.568
73720W        W77681  15.769  14.450  13.318
73721W        W77682  17.836  14.546  14.350
73722W        W77683  16.995  12.734  13.283
73723W        W77684  14.844  12.532  11.198
73724W        W77685  17.978  14.190  11.895
73725W        W77686  17.815  11.514  11.514
73726W        W77687  15.954  11.033  13.917
73727W        W77688  17.660  13.835  12.375
73728W        W77689  17.689  12.391  12.280
73729W        W77690  15.806  12.064  12.496
73730W        W77691  16.051  12.326  13.820
73731W        W77692  17.162  13.479  13.683
73732W        W77693  15.812  11.933  13.795
73733W        W77694  15.791  14.399  12.411
73734W        W77695  15.108  14.358  14.045
73735W        W77696  15.220  13.719  11.175
73736W        W77697  17.737  13.477  11.985
73737W        W77698  15.341  12.269  13.871
73738W        W77699  18.114  12.199  11.352
73739W        W77700  15.859  13.256  11.823
73740W        W77701  16.958  12.638  13.904
73741W        W77702  16.849  12.266  13.448
73742W        W77703  15.409  12.638  13.477
73743W        W77704  17.619  14.526  13.306
73744W        W77705  17.410  11.160  14.300
73745W        W77706  15.074  11.310  13.887
73746W        W77707  15.413  12.333  12.940
73747W        W77708  15.782  12.147  11.062
73748W        W77709  14.585  13.906  13.607
73749W        W77710  16.170  12.615  13.050
73750W        W77711  15.993  11.640  11.155
73751W        W77712  15.128  12.456  11.936
73752W        W77713  14.899  14.308  13.373
73753W        W77714  17.694  12.534  11.481
73754W        W77715  17.789  11.450  14.167
73755W        W77716  17.225  13.659  12.130
73756W        W77717  14.823  12.583  14.307
73757W        W77718  17.789  11.047  11.603
73758W        W77719  17.309  13.522  11.614
73759W        W77720  16.211  12.580  11.699
73760W        W77721  17.398  11.384  11.222
73761W        W77722  17.463  11.991  13.408
73762W        W77723  15.172  12.584  12.615
73763W        W77724  15.466  13.523  12.264
73764W        W77725  17.229  12.143  12.229
73765W        W77726  16.252  11.522  12.925
73766W        W77727  18.214  13.433  13.436
73767W        W77728  18.132  11.420  12.997
73768W        W77729  14.671  14.250  12.373
73769W        W77730  15.180  13.437  11.909
73770W        W77731  15.095  11.054  14.462
73771W        W77732  16.214  13.907  14.564
73772W        W77733  17.969  12.875  12.354
73773W        W77734  17.323  13.052  11.234
73774W        W77735  16.618  14.573  13.446
73775W        W77736  17.475  13.295  14.483
73776W        W77737  16.290  11.005  11.763
73777W        W77738  17.003  11.874  12.622
73778W        W77739  14.689  13.461  12.954
73779W        W77740  15.942  11.423  11.595
73780W        W77741  15.746  12.907  14.444
73781W        W77742  16.740  11.888  12.158
73782W        W77743  16.945  13.298  13.280
73783W        W77744  15.099  13.903  13.715
73784W        W77745  15.690  13.886  14.438
73785W        W77746  15.541  11.683  11.452
73786W        W77747  17.016  13.933  14.014
73787W        W77748  15.701  12.525  12.613
73788W        W77749  15.356  14.223  13.478
73789W        W77750  18.101  14.340  11.079
73790W        W77751  14.964  13.012  14.075
73791W        W77752  16.959  13.274  12.763
73792W        W77753  15.395  12.923  12.005
73793W        W77754  15.766  13.930  13.400
73794W        W77755  16.144  11.349  12.441
73795W        W77756  14.755  13.333  11.371
73796W        W77757  16.274  12.284  11.241
73797W        W77758  14.920  12.833  12.260
73798W        W77759  16.210  11.475  13.724
73799W        W77760  17.882  11.184  11.151
73800W        W77761  17.975  12.930  14.250
73801W        W77762  16.629  14.187  14.402
73802W        W77763  18.187  13.281  13.924
73803W        W77764  17.595  14.079  14.535
73804W        W77765  15.334  14.535  13.013
73805W        W77766  18.193  13.157  11.887
73806W        W77767  16.723  12.424  12.400
73807W        W77768  16.490  11.036  12.290
73808W        W77769  15.549  14.020  12.127
73809W        W77770  16.048  11.761  13.352
73810W        W77771  15.748  11.130  12.821
73811W        W77772  14.811  13.952  11.369
73812W        W77773  16.627  13.316  12.087
73813W        W77774  15.502  14.111  13.966
73814W        W77775  14.979  12.934  11.662
73815W        W77776  14.864  11.477  12.661
73816W        W77777  16.412  13.442  12.718
73817W        W77778  14.664  11.296  11.738
73818W        W77779  17.328  12.502  13.665
73819W        W77780  17.722  13.560  12.885
73820W        W77781  16.383  14.044  12.716
73821W        W77782  15.795  14.148  11.627
73822W        W77783  17.077  11.051  11.057
73823W        W77784  14.877  14.311  12.798
73824W        W77785  17.074  12.069  14.433
73825W        W77786  15.057  11.599  14.432
73826W        W77787  14.788  12.199  11.765
73827W        W77788  15.479  12.188  11.490
73828W        W77789  17.242  12.515  14.307
73829W        W77790  15.585  12.796  13.016
73830W        W77791  17.059  11.082  12.136
73831W        W77792  16.190  14.513  12.639
73832W        W77793  17.404  13.975  13.576
73833W        W77794  16.988  14.124  12.687
73834W        W77795  17.007  13.104  12.281
73835W        W77796  16.469  11.329  11.352
73836W        W77797  18.150  10.957  12.074
73837W        W77798  15.838  12.592  11.237
73838W        W77799  18.004  11.929  12.227
73839W        W77800  16.696  13.099  11.104
73840W        W77801  17.632  13.299  13.852
73841W        W77802  17.286  14.000  11.319
73842W        W77803  15.901  11.675  14.225
73843W        W77804  15.721  12.259  13.466
73844W        W77805  17.813  13.754  13.743
73845W        W77806  16.913  11.704  14.120
73846W        W77807  14.757  12.175  13.897
73847W        W77808  16.517  12.652  13.623
73848W        W77809  14.874  13.410  12.280
73849W        W77810  15.021  12.707  13.170
73850W        W77811  17.338  12.993  13.520
73851W        W77812  17.110  14.373  14.331
73852W        W77813  17.006  12.112  13.884
73853W        W77814  17.283  14.166  12.289
73854W        W77815  16.285  13.886  13.612
73855W        W77816  15.770  14.241  12.881
73856W        W77817  17.575  13.412  13.300
73857W        W77818  16.625  13.484  14.437
73858W        W77819  15.230  13.437  12.776
73859W        W77820  17.576  13.196  12.421
73860W        W77821  17.217  14.262  13.172
73861W        W77822  15.195  13.991  13.042
73862W        W77823  16.216  12.043  14.252
73863W        W77824  16.667  14.209  11.763
73864W        W77825  15.975  13.464  14.401
73865W        W77826  16.101  13.702  11.778
73866W        W77827  15.322  12.442  11.037
73867W        W77828  14.661  14.528  17.936
73868W        W77829  15.037  13.421  17.459
73869W        W77830  17.742  13.151  15.229
73870W        W77831  17.872  14.236  17.256
73871W        W77832  15.790  14.227  14.782
73872W        W77833  15.873  12.379  15.765
73873W        W77834  15.388  12.227  15.929
73874W        W77835  16.379  13.042  15.363
73875W        W77836  16.054  14.134  17.718
73876W        W77837  14.703  11.695  17.681
73877W        W77838  15.465  10.975  17.483
73878W        W77839  17.159  11.363  16.370
73879W        W77840  16.808  12.234  14.940
73880W        W77841  17.378  11.668  18.031
73881W        W77842  14.744  11.460  17.156
73882W        W77843  14.843  14.079  18.177
73883W        W77844  16.365  13.469  14.909
73884W        W77845  14.797  12.252  16.602
73885W        W77846  15.690  12.143  17.839
73886W        W77847  18.149  12.002  16.338
73887W        W77848  17.913  13.045  17.197
73888W        W77849  16.221  12.378  16.224
73889W        W77850  16.767  13.717  16.593
73890W        W77851  15.267  13.151  16.825
73891W        W77852  14.626  12.679  16.396
73892W        W77853  15.662  12.651  17.588
73893W        W77854  17.933  12.434  17.842
73894W        W77855  15.549  13.878  16.287
73895W        W77856  16.670  13.567  17.421
73896W        W77857  15.890  12.207  16.646
73897W        W77858  16.182  12.991  16.289
73898W        W77859  17.179  13.764  18.137
73899W        W77860  16.258  13.084  18.147
73900W        W77861  16.239  12.800  17.625
73901W        W77862  14.648  12.191  18.147
73902W        W77863  17.480  13.726  17.746
73903W        W77864  15.061  11.308  15.744
73904W        W77865  15.588  13.566  16.743
73905W        W77866  18.051  13.349  16.033
73906W        W77867  17.464  11.749  16.600
73907W        W77868  17.749  11.702  14.695
73908W        W77869  16.181  14.210  16.754
73909W        W77870  17.955  13.676  15.192
73910W        W77871  15.084  14.462  14.946
73911W        W77872  15.477  14.508  15.622
73912W        W77873  15.274  11.262  17.048
73913W        W77874  17.897  12.280  17.323
73914W        W77875  17.302  12.702  15.782
73915W        W77876  17.268  12.390  14.809
73916W        W77877  16.476  13.534  16.949
73917W        W77878  16.282  11.864  16.148
73918W        W77879  16.882  13.951  17.142
73919W        W77880  17.753  12.742  15.564
73920W        W77881  16.655  11.400  15.580
73921W        W77882  15.312  14.094  15.263
73922W        W77883  14.683  11.593  15.862
73923W        W77884  17.469  12.200  16.336
73924W        W77885  14.927  13.817  16.251
73925W        W77886  16.268  14.167  15.121
73926W        W77887  17.660  12.193  14.585
73927W        W77888  14.683  13.951  16.749
73928W        W77889  15.474  13.523  17.229
73929W        W77890  15.847  12.883  15.848
73930W        W77891  15.869  11.288  16.941
73931W        W77892  18.098  11.050  16.238
73932W        W77893  15.317  12.922  14.706
73933W        W77894  14.972  11.955  14.885
73934W        W77895  15.034  13.911  15.679
73935W        W77896  16.165  13.394  15.927
73936W        W77897  17.497  14.253  17.641
73937W        W77898  16.423  11.895  15.325
73938W        W77899  17.806  14.293  16.097
73939W        W77900  17.483  12.146  17.695
73940W        W77901  16.823  13.094  17.313
73941W        W77902  14.589  12.645  15.519
73942W        W77903  15.700  13.060  17.092
73943W        W77904  16.904  12.324  15.470
73944W        W77905  15.124  12.234  17.048
73945W        W77906  15.109  12.110  17.970
73946W        W77907  14.999  11.027  16.129
73947W        W77908  16.767  11.374  16.690
73948W        W77909  16.415  11.559  17.853
73949W        W77910  16.770  11.708  15.031
73950W        W77911  17.953  14.101  17.785
73951W        W77912  16.920  11.182  17.824
73952W        W77913  17.939  13.483  17.946
73953W        W77914  17.369  11.650  17.542
73954W        W77915  17.169  11.588  15.812
73955W        W77916  17.562  12.722  18.216
73956W        W77917  15.302  14.298  16.202
73957W        W77918  15.960  12.015  15.188
73958W        W77919  15.529  11.299  17.852
73959W        W77920  17.581  11.783  15.533
73960W        W77921  17.948  12.265  15.478
73961W        W77922  15.691  14.482  17.949
73962W        W77923  15.617  11.018  15.184
73963W        W77924  17.938  11.552  16.219
73964W        W77925  18.088  13.801  14.664
73965W        W77926  14.995  13.004  16.366
73966W        W77927  16.912  11.591  14.596
73967W        W77928  18.046  13.923  16.316
73968W        W77929  18.085  11.117  17.066
73969W        W77930  16.530  12.329  17.620
73970W        W77931  16.623  13.668  15.323
73971W        W77932  17.023  12.962  18.063
73972W        W77933  16.697  10.939  16.372
73973W        W77934  15.309  11.842  16.435
73974W        W77935  14.863  13.042  17.209
73975W        W77936  16.722  14.235  15.915
73976W        W77937  17.916  11.832  16.787
73977W        W77938  16.553  14.179  17.554
73978W        W77939  17.896  13.238  14.759
73979W        W77940  18.183  11.232  17.561
73980W        W77941  16.332  13.067  17.155
73981W        W77942  16.549  11.953  16.600
73982W        W77943  17.401  12.251  15.438
73983W        W77944  17.688  11.984  15.080
73984W        W77945  17.497  14.024  15.469
73985W        W77946  17.331  13.627  16.265
73986W        W77947  17.227  12.706  15.243
73987W        W77948  17.541  12.704  16.296
73988W        W77949  14.916  11.719  16.720
73989W        W77950  17.694  12.771  17.547
73990W        W77951  18.045  14.389  16.693
73991W        W77952  15.975  13.833  16.095
73992W        W77953  16.982  14.366  17.419
73993W        W77954  16.976  11.696  17.183
73994W        W77955  16.183  14.404  17.244
73995W        W77956  17.880  11.358  15.710
73996W        W77957  17.671  12.677  17.011
73997W        W77958  14.654  11.998  17.049
73998W        W77959  17.514  11.793  16.067
73999W        W77960  17.925  11.944  17.844
74000W        W77961  16.810  13.643  16.062
74001W        W77962  16.066  14.234  15.675
74002W        W77963  15.181  11.414  14.933
74003W        W77964  16.285  11.068  16.743
74004W        W77965  15.313  14.188  14.591
74005W        W77966  15.687  12.654  15.342
74006W        W77967  16.341  13.283  17.655
74007W        W77968  16.171  11.641  15.645
74008W        W77969  17.527  11.238  16.073
74009W        W77970  17.247  14.520  16.401
74010W        W77971  16.659  14.168  16.741
74011W        W77972  16.055  13.205  16.702
74012W        W77973  17.825  13.928  16.828
74013W        W77974  15.519  11.431  15.597
74014W        W77975  16.041  13.728  16.557
74015W        W77976  15.524  11.659  14.622
74016W        W77977  16.325  12.268  17.016
74017W        W77978  17.173  11.134  16.886
74018W        W77979  14.593  12.977  16.771
74019W        W77980  16.297  12.795  14.929
74020W        W77981  15.565  11.110  14.699
74021W        W77982  16.303  12.191  15.750
74022W        W77983  17.273  11.167  17.449
74023W        W77984  15.861  13.179  17.558
74024W        W77985  16.665  12.961  17.775
74025W        W77986  17.282  12.991  17.668
74026W        W77987  16.566  11.131  18.173
74027W        W77988  15.788  11.747  16.566
74028W        W77989  15.214  11.703  15.964
74029W        W77990  15.000  14.415  15.640
74030W        W77991  16.332  13.745  17.765
74031W        W77992  15.367  13.230  15.124
74032W        W77993  17.047  12.615  16.345
74033W        W77994  17.327  12.414  16.744
74034W        W77995  16.532  13.088  16.678
74035W        W77996  17.002  13.462  14.810
74036W        W77997  16.674  11.483  16.138
74037W        W77998  18.153  11.761  15.406
74038W        W77999  14.647  14.350  17.437
74039W        W78000  15.064  13.576  16.969
74040W        W78001  14.631  14.422  15.201
74041W        W78002  16.530  11.692  17.007
74042W        W78003  15.893  13.715  14.856
74043W        W78004  17.798  14.097  15.042
74044W        W78005  15.616  11.941  15.573
74045W        W78006  16.448  11.851  14.625
74046W        W78007  17.032  13.416  17.803
74047W        W78008  17.385  11.322  15.420
74048W        W78009  14.715  11.170  14.868
74049W        W78010  16.001  13.489  17.158
74050W        W78011  15.800  13.405  16.250
74051W        W78012  15.542  13.357  14.648
74052W        W78013  14.783  13.598  15.416
74053W        W78014  15.287  12.668  17.858
74054W        W78015  15.991  11.228  18.044
74055W        W78016  16.700  11.370  17.400
74056W        W78017  15.895  11.138  15.681
74057W        W78018  16.954  11.215  15.186
74058W        W78019  14.899  11.147  16.763
74059W        W78020  14.947  12.110  16.133
74060W        W78021  17.636  11.218  16.539
74061W        W78022  15.058  11.716  15.353
74062W        W78023  17.629  11.404  16.969
74063W        W78024  18.025  12.607  14.654
74064W        W78025  15.317  11.365  16.473
74065W        W78026  16.431  11.937  17.413
74066W        W78027  14.579  11.627  14.891
74067W        W78028  15.365  13.016  17.452
74068W        W78029  16.723  12.414  16.631
74069W        W78030  14.736  13.000  14.624
74070W        W78031  15.471  13.411  17.750
74071W        W78032  14.992  12.578  17.381
74072W        W78033  15.983  12.683  17.175
74073W        W78034  17.751  11.042  17.437
74074W        W78035  18.149  12.652  17.428
74075W        W78036  17.000  13.184  15.213
74076W        W78037  17.474  14.484  14.908
74077W        W78038  16.651  12.474  18.050
74078W        W78039  14.981  13.441  18.090
74079W        W78040  18.187  11.363  18.042
74080W        W78041  17.905  12.291  16.663
74081W        W78042  16.213  14.421  18.140
74082W        W78043  16.068  11.050  14.867
74083W        W78044  17.607  13.649  14.810
74084W        W78045  15.376  11.742  17.696
74085W        W78046  15.810  13.736  17.558
74086W        W78047  17.936  11.727  17.356
74087W        W78048  17.147  14.386  15.324
74088W        W78049  17.386  13.005  16.691
74089W        W78050  15.636  11.421  17.358
74090W        W78051  16.105  12.490  18.115
74091W        W78052  15.608  13.669  15.309
74092W        W78053  17.363  13.167  15.573
74093W        W78054  15.131  11.793  17.297
74094W        W78055  16.460  13.855  15.761
74095W        W78056  18.210  12.415  15.942
74096W        W78057  16.432  11.048  17.661
74097W        W78058  17.212  13.753  16.740
74098W        W78059  17.515  14.097  16.448
74099W        W78060  16.734  13.899  14.876
74100W        W78061  14.744  13.791  17.718
74101W        W78062  15.487  11.783  16.956
74102W        W78063  15.457  11.131  16.066
74103W        W78064  17.078  11.973  16.758
74104W        W78065  15.876  13.144  14.958
74105W        W78066  17.874  13.086  16.457
74106W        W78067  15.201  13.844  17.880
74107W        W78068  17.588  14.526  15.677
74108W        W78069  15.687  11.546  16.122
74109W        W78070  15.456  13.039  16.212
74110W        W78071  15.769  14.450  16.962
74111W        W78072  17.836  14.546  17.994
74112W        W78073  16.995  12.734  16.927
74113W        W78074  14.844  12.532  14.842
74114W        W78075  17.978  14.190  15.539
74115W        W78076  17.815  11.514  15.158
74116W        W78077  15.954  11.033  17.561
74117W        W78078  17.660  13.835  16.019
74118W        W78079  17.689  12.391  15.924
74119W        W78080  15.806  12.064  16.140
74120W        W78081  16.051  12.326  17.464
74121W        W78082  17.162  13.479  17.327
74122W        W78083  15.812  11.933  17.439
74123W        W78084  15.791  14.399  16.055
74124W        W78085  15.108  14.358  17.689
74125W        W78086  15.220  13.719  14.819
74126W        W78087  17.737  13.477  15.629
74127W        W78088  15.341  12.269  17.515
74128W        W78089  18.114  12.199  14.996
74129W        W78090  15.859  13.256  15.467
74130W        W78091  16.958  12.638  17.548
74131W        W78092  16.849  12.266  17.092
74132W        W78093  15.409  12.638  17.121
74133W        W78094  17.619  14.526  16.950
74134W        W78095  17.410  11.160  17.944
74135W        W78096  15.074  11.310  17.531
74136W        W78097  15.413  12.333  16.584
74137W        W78098  15.782  12.147  14.706
74138W        W78099  14.585  13.906  17.251
74139W        W78100  16.170  12.615  16.694
74140W        W78101  15.993  11.640  14.799
74141W        W78102  15.128  12.456  15.580
74142W        W78103  14.899  14.308  17.017
74143W        W78104  17.694  12.534  15.125
74144W        W78105  17.789  11.450  17.811
74145W        W78106  17.225  13.659  15.774
74146W        W78107  14.823  12.583  17.951
74147W        W78108  17.789  11.047  15.247
74148W        W78109  17.309  13.522  15.258
74149W        W78110  16.211  12.580  15.343
74150W        W78111  17.398  11.384  14.866
74151W        W78112  17.463  11.991  17.052
74152W        W78113  15.172  12.584  16.259
74153W        W78114  15.466  13.523  15.908
74154W        W78115  17.229  12.143  15.873
74155W        W78116  16.252  11.522  16.569
74156W        W78117  18.214  13.433  17.080
74157W        W78118  18.132  11.420  16.641
74158W        W78119  14.671  14.250  16.017
74159W        W78120  15.180  13.437  15.553
74160W        W78121  15.095  11.054  18.106
74161W        W78122  16.214  13.907  18.208
74162W        W78123  17.969  12.875  15.998
74163W        W78124  17.323  13.052  14.878
74164W        W78125  16.618  14.573  17.090
74165W        W78126  17.475  13.295  18.127
74166W        W78127  16.290  11.005  15.407
74167W        W78128  17.003  11.874  16.266
74168W        W78129  14.689  13.461  16.598
74169W        W78130  15.942  11.423  15.239
74170W        W78131  15.746  12.907  18.088
74171W        W78132  16.740  11.888  15.802
74172W        W78133  16.945  13.298  16.924
74173W        W78134  15.099  13.903  17.359
74174W        W78135  15.690  13.886  18.082
74175W        W78136  15.541  11.683  15.096
74176W        W78137  17.058  11.825  15.421
74177W        W78138  17.016  13.933  17.658
74178W        W78139  15.701  12.525  16.257
74179W        W78140  15.356  14.223  17.122
74180W        W78141  18.101  14.340  14.723
74181W        W78142  14.964  13.012  17.719
74182W        W78143  16.959  13.274  16.407
74183W        W78144  15.395  12.923  15.649
74184W        W78145  15.766  13.930  17.044
74185W        W78146  16.144  11.349  16.085
74186W        W78147  14.755  13.333  15.015
74187W        W78148  16.274  12.284  14.885
74188W        W78149  14.920  12.833  15.904
74189W        W78150  16.210  11.475  17.368
74190W        W78151  17.882  11.184  14.795
74191W        W78152  17.975  12.930  17.894
74192W        W78153  16.629  14.187  18.046
74193W        W78154  18.187  13.281  17.568
74194W        W78155  17.595  14.079  18.179
74195W        W78156  15.334  14.535  16.657
74196W        W78157  18.193  13.157  15.531
74197W        W78158  16.490  11.036  15.934
74198W        W78159  15.549  14.020  15.771
74199W        W78160  16.048  11.761  16.996
74200W        W78161  15.748  11.130  16.465
74201W        W78162  14.811  13.952  15.013
74202W        W78163  16.627  13.316  15.731
74203W        W78164  15.502  14.111  17.610
74204W        W78165  14.979  12.934  15.306
74205W        W78166  14.864  11.477  16.305
74206W        W78167  16.412  13.442  16.362
74207W        W78168  14.664  11.296  15.382
74208W        W78169  17.328  12.502  17.309
74209W        W78170  17.205  11.888  14.881
74210W        W78171  17.722  13.560  16.529
74211W        W78172  16.383  14.044  16.360
74212W        W78173  15.795  14.148  15.271
74213W        W78174  17.077  11.051  14.701
74214W        W78175  14.877  14.311  16.442
74215W        W78176  17.074  12.069  18.077
74216W        W78177  15.057  11.599  18.076
74217W        W78178  14.788  12.199  15.409
74218W        W78179  15.479  12.188  15.134
74219W        W78180  17.242  12.515  17.951
74220W        W78181  15.585  12.796  16.660
74221W        W78182  17.059  11.082  15.780
74222W        W78183  16.190  14.513  16.283
74223W        W78184  17.404  13.975  17.220
74224W        W78185  16.988  14.124  16.331
74225W        W78186  17.007  13.104  15.925
74226W        W78187  16.469  11.329  14.996
74227W        W78188  18.150  10.957  15.718
74228W        W78189  15.838  12.592  14.881
74229W        W78190  18.004  11.929  15.871
74230W        W78191  16.696  13.099  14.748
74231W        W78192  17.632  13.299  17.496
74232W        W78193  17.286  14.000  14.963
74233W        W78194  15.901  11.675  17.869
74234W        W78195  15.721  12.259  17.110
74235W        W78196  17.813  13.754  17.387
74236W        W78197  16.913  11.704  17.764
74237W        W78198  14.757  12.175  17.541
74238W        W78199  16.517  12.652  17.267
74239W        W78200  14.874  13.410  15.924
74240W        W78201  15.021  12.707  16.814
74241W        W78202  17.338  12.993  17.164
74242W        W78203  17.110  14.373  17.975
74243W        W78204  17.006  12.112  17.528
74244W        W78205  17.283  14.166  15.933
74245W        W78206  16.285  13.886  17.256
74246W        W78207  15.770  14.241  16.525
74247W        W78208  17.575  13.412  16.944
74248W        W78209  16.625  13.484  18.081
74249W        W78210  15.230  13.437  16.420
74250W        W78211  17.576  13.196  16.065
74251W        W78212  17.217  14.262  16.816
74252W        W78213  15.195  13.991  16.686
74253W        W78214  16.216  12.043  17.896
74254W        W78215  16.667  14.209  15.407
74255W        W78216  15.975  13.464  18.045
74256W        W78217  16.101  13.702  15.422
74257W        W78218  15.322  12.442  14.681
74258W        W78219  14.661  14.528  21.580
74259W        W78220  15.037  13.421  21.103
74260W        W78221  17.742  13.151  18.873
74261W        W78222  17.872  14.236  20.900
74262W        W78223  15.790  14.227  18.426
74263W        W78224  15.873  12.379  19.409
74264W        W78225  15.388  12.227  19.573
74265W        W78226  16.379  13.042  19.007
74266W        W78227  16.054  14.134  21.362
74267W        W78228  14.703  11.695  21.325
74268W        W78229  15.465  10.975  21.127
74269W        W78230  17.159  11.363  20.014
74270W        W78231  16.808  12.234  18.584
74271W        W78232  17.378  11.668  21.675
74272W        W78233  14.744  11.460  20.800
74273W        W78234  14.843  14.079  21.821
74274W        W78235  16.365  13.469  18.553
74275W        W78236  14.797  12.252  20.246
74276W        W78237  15.690  12.143  21.483
74277W        W78238  18.149  12.002  19.982
74278W        W78239  17.913  13.045  20.841
74279W        W78240  16.221  12.378  19.868
74280W        W78241  16.767  13.717  20.237
74281W        W78242  15.267  13.151  20.469
74282W        W78243  14.626  12.679  20.040
74283W        W78244  15.662  12.651  21.232
74284W        W78245  17.933  12.434  21.486
74285W        W78246  15.549  13.878  19.931
74286W        W78247  16.670  13.567  21.065
74287W        W78248  15.890  12.207  20.290
74288W        W78249  16.182  12.991  19.933
74289W        W78250  17.179  13.764  21.781
74290W        W78251  16.258  13.084  21.791
74291W        W78252  16.239  12.800  21.269
74292W        W78253  14.648  12.191  21.791
74293W        W78254  17.480  13.726  21.390
74294W        W78255  15.061  11.308  19.388
74295W        W78256  15.588  13.566  20.387
74296W        W78257  18.051  13.349  19.677
74297W        W78258  17.464  11.749  20.244
74298W        W78259  17.749  11.702  18.339
74299W        W78260  18.214  12.503  20.645
74300W        W78261  16.181  14.210  20.398
74301W        W78262  17.955  13.676  18.836
74302W        W78263  15.084  14.462  18.590
74303W        W78264  15.477  14.508  19.266
74304W        W78265  15.274  11.262  20.692
74305W        W78266  17.897  12.280  20.967
74306W        W78267  17.302  12.702  19.426
74307W        W78268  17.268  12.390  18.453
74308W        W78269  16.476  13.534  20.593
74309W        W78270  16.282  11.864  19.792
74310W        W78271  16.882  13.951  20.786
74311W        W78272  17.753  12.742  19.208
74312W        W78273  16.655  11.400  19.224
74313W        W78274  15.312  14.094  18.907
74314W        W78275  14.683  11.593  19.506
74315W        W78276  17.469  12.200  19.980
74316W        W78277  14.927  13.817  19.895
74317W        W78278  16.268  14.167  18.765
74318W        W78279  17.660  12.193  18.229
74319W        W78280  14.683  13.951  20.393
74320W        W78281  15.474  13.523  20.873
74321W        W78282  15.847  12.883  19.492
74322W        W78283  15.869  11.288  20.585
74323W        W78284  18.098  11.050  19.882
74324W        W78285  15.317  12.922  18.350
74325W        W78286  14.972  11.955  18.529
74326W        W78287  15.034  13.911  19.323
74327W        W78288  16.165  13.394  19.571
74328W        W78289  17.497  14.253  21.285
74329W        W78290  16.423  11.895  18.969
74330W        W78291  17.806  14.293  19.741
74331W        W78292  17.483  12.146  21.339
74332W        W78293  18.196  13.802  19.473
74333W        W78294  16.823  13.094  20.957
74334W        W78295  14.589  12.645  19.163
74335W        W78296  15.700  13.060  20.736
74336W        W78297  16.904  12.324  19.114
74337W        W78298  16.781  12.814  19.218
74338W        W78299  15.124  12.234  20.692
74339W        W78300  15.109  12.110  21.614
74340W        W78301  14.999  11.027  19.773
74341W        W78302  16.767  11.374  20.334
74342W        W78303  16.415  11.559  21.497
74343W        W78304  16.770  11.708  18.675
74344W        W78305  17.953  14.101  21.429
74345W        W78306  16.920  11.182  21.468
74346W        W78307  17.939  13.483  21.590
74347W        W78308  17.369  11.650  21.186
74348W        W78309  17.169  11.588  19.456
74349W        W78310  17.562  12.722  21.860
74350W        W78311  15.302  14.298  19.846
74351W        W78312  15.960  12.015  18.832
74352W        W78313  15.529  11.299  21.496
74353W        W78314  17.581  11.783  19.177
74354W        W78315  17.948  12.265  19.122
74355W        W78316  15.691  14.482  21.593
74356W        W78317  15.617  11.018  18.828
74357W        W78318  17.938  11.552  19.863
74358W        W78319  18.088  13.801  18.308
74359W        W78320  14.995  13.004  20.010
74360W        W78321  16.912  11.591  18.240
74361W        W78322  18.046  13.923  19.960
74362W        W78323  18.085  11.117  20.710
74363W        W78324  16.530  12.329  21.264
74364W        W78325  16.623  13.668  18.967
74365W        W78326  17.023  12.962  21.707
74366W        W78327  16.697  10.939  20.016
74367W        W78328  15.309  11.842  20.079
74368W        W78329  14.863  13.042  20.853
74369W        W78330  16.722  14.235  19.559
74370W        W78331  17.916  11.832  20.431
74371W        W78332  16.553  14.179  21.198
74372W        W78333  17.896  13.238  18.403
74373W        W78334  16.331  12.721  19.464
74374W        W78335  18.183  11.232  21.205
74375W        W78336  16.332  13.067  20.799
74376W        W78337  16.549  11.953  20.244
74377W        W78338  17.401  12.251  19.082
74378W        W78339  17.688  11.984  18.724
74379W        W78340  17.497  14.024  19.113
74380W        W78341  17.331  13.627  19.909
74381W        W78342  17.227  12.706  18.887
74382W        W78343  16.660  12.916  19.873
74383W        W78344  17.541  12.704  19.940
74384W        W78345  14.916  11.719  20.364
74385W        W78346  17.694  12.771  21.191
74386W        W78347  18.045  14.389  20.337
74387W        W78348  15.975  13.833  19.739
74388W        W78349  16.982  14.366  21.063
74389W        W78350  16.976  11.696  20.827
74390W        W78351  16.183  14.404  20.888
74391W        W78352  17.880  11.358  19.354
74392W        W78353  17.671  12.677  20.655
74393W        W78354  14.654  11.998  20.693
74394W        W78355  17.514  11.793  19.711
74395W        W78356  17.925  11.944  21.488
74396W        W78357  16.810  13.643  19.706
74397W        W78358  16.066  14.234  19.319
74398W        W78359  15.181  11.414  18.577
74399W        W78360  16.285  11.068  20.387
74400W        W78361  15.313  14.188  18.235
74401W        W78362  15.687  12.654  18.986
74402W        W78363  16.341  13.283  21.299
74403W        W78364  16.171  11.641  19.289
74404W        W78365  17.527  11.238  19.717
74405W        W78366  17.247  14.520  20.045
74406W        W78367  16.659  14.168  20.385
74407W        W78368  16.055  13.205  20.346
74408W        W78369  17.825  13.928  20.472
74409W        W78370  15.519  11.431  19.241
74410W        W78371  16.041  13.728  20.201
74411W        W78372  15.524  11.659  18.266
74412W        W78373  16.325  12.268  20.660
74413W        W78374  17.173  11.134  20.530
74414W        W78375  14.593  12.977  20.415
74415W        W78376  16.297  12.795  18.573
74416W        W78377  15.565  11.110  18.343
74417W        W78378  16.303  12.191  19.394
74418W        W78379  17.273  11.167  21.093
74419W        W78380  15.861  13.179  21.202
74420W        W78381  16.665  12.961  21.419
74421W        W78382  17.282  12.991  21.312
74422W        W78383  16.566  11.131  21.817
74423W        W78384  15.788  11.747  20.210
74424W        W78385  15.214  11.703  19.608
74425W        W78386  15.000  14.415  19.284
74426W        W78387  16.332  13.745  21.409
74427W        W78388  15.367  13.230  18.768
74428W        W78389  17.047  12.615  19.989
74429W        W78390  17.327  12.414  20.388
74430W        W78391  16.532  13.088  20.322
74431W        W78392  17.002  13.462  18.454
74432W        W78393  16.674  11.483  19.782
74433W        W78394  18.153  11.761  19.050
74434W        W78395  14.647  14.350  21.081
74435W        W78396  15.064  13.576  20.613
74436W        W78397  14.631  14.422  18.845
74437W        W78398  16.530  11.692  20.651
74438W        W78399  15.893  13.715  18.500
74439W        W78400  17.798  14.097  18.686
74440W        W78401  16.773  12.750  18.700
74441W        W78402  15.616  11.941  19.217
74442W        W78403  16.448  11.851  18.269
74443W        W78404  17.032  13.416  21.447
74444W        W78405  17.385  11.322  19.064
74445W        W78406  14.715  11.170  18.512
74446W        W78407  16.001  13.489  20.802
74447W        W78408  15.800  13.405  19.894
74448W        W78409  15.542  13.357  18.292
74449W        W78410  14.783  13.598  19.060
74450W        W78411  15.287  12.668  21.502
74451W        W78412  15.991  11.228  21.688
74452W        W78413  16.700  11.370  21.044
74453W        W78414  15.895  11.138  19.325
74454W        W78415  16.954  11.215  18.830
74455W        W78416  14.899  11.147  20.407
74456W        W78417  14.947  12.110  19.777
74457W        W78418  17.636  11.218  20.183
74458W        W78419  15.058  11.716  18.997
74459W        W78420  17.629  11.404  20.613
74460W        W78421  18.025  12.607  18.298
74461W        W78422  15.317  11.365  20.117
74462W        W78423  16.431  11.937  21.057
74463W        W78424  14.579  11.627  18.535
74464W        W78425  15.365  13.016  21.096
74465W        W78426  16.723  12.414  20.275
74466W        W78427  16.590  14.493  18.571
74467W        W78428  14.736  13.000  18.268
74468W        W78429  15.471  13.411  21.394
74469W        W78430  14.992  12.578  21.025
74470W        W78431  15.983  12.683  20.819
74471W        W78432  17.751  11.042  21.081
74472W        W78433  18.149  12.652  21.072
74473W        W78434  18.137  12.852  18.758
74474W        W78435  17.000  13.184  18.857
74475W        W78436  17.474  14.484  18.552
74476W        W78437  16.651  12.474  21.694
74477W        W78438  14.981  13.441  21.734
74478W        W78439  18.187  11.363  21.686
74479W        W78440  17.905  12.291  20.307
74480W        W78441  16.213  14.421  21.784
74481W        W78442  16.068  11.050  18.511
74482W        W78443  17.607  13.649  18.454
74483W        W78444  15.376  11.742  21.340
74484W        W78445  15.810  13.736  21.202
74485W        W78446  17.936  11.727  21.000
74486W        W78447  17.147  14.386  18.968
74487W        W78448  17.386  13.005  20.335
74488W        W78449  15.636  11.421  21.002
74489W        W78450  16.105  12.490  21.759
74490W        W78451  15.608  13.669  18.953
74491W        W78452  17.363  13.167  19.217
74492W        W78453  15.131  11.793  20.941
74493W        W78454  16.460  13.855  19.405
74494W        W78455  18.210  12.415  19.586
74495W        W78456  16.432  11.048  21.305
74496W        W78457  17.212  13.753  20.384
74497W        W78458  17.515  14.097  20.092
74498W        W78459  16.734  13.899  18.520
74499W        W78460  14.744  13.791  21.362
74500W        W78461  15.487  11.783  20.600
74501W        W78462  15.457  11.131  19.710
74502W        W78463  17.078  11.973  20.402
74503W        W78464  15.876  13.144  18.602
74504W        W78465  17.874  13.086  20.101
74505W        W78466  15.201  13.844  21.524
74506W        W78467  17.588  14.526  19.321
74507W        W78468  15.687  11.546  19.766
74508W        W78469  15.456  13.039  19.856
74509W        W78470  15.769  14.450  20.606
74510W        W78471  17.836  14.546  21.638
74511W        W78472  16.995  12.734  20.571
74512W        W78473  14.844  12.532  18.486
74513W        W78474  17.978  14.190  19.183
74514W        W78475  17.815  11.514  18.802
74515W        W78476  15.954  11.033  21.205
74516W        W78477  17.660  13.835  19.663
74517W        W78478  17.689  12.391  19.568
74518W        W78479  15.806  12.064  19.784
74519W        W78480  16.051  12.326  21.108
74520W        W78481  17.162  13.479  20.971
74521W        W78482  15.812  11.933  21.083
74522W        W78483  15.791  14.399  19.699
74523W        W78484  15.108  14.358  21.333
74524W        W78485  15.220  13.719  18.463
74525W        W78486  17.737  13.477  19.273
74526W        W78487  15.341  12.269  21.159
74527W        W78488  18.114  12.199  18.640
74528W        W78489  15.859  13.256  19.111
74529W        W78490  16.958  12.638  21.192
74530W        W78491  16.849  12.266  20.736
74531W        W78492  15.409  12.638  20.765
74532W        W78493  17.619  14.526  20.594
74533W        W78494  17.410  11.160  21.588
74534W        W78495  15.074  11.310  21.175
74535W        W78496  15.413  12.333  20.228
74536W        W78497  15.782  12.147  18.350
74537W        W78498  14.585  13.906  20.895
74538W        W78499  16.170  12.615  20.338
74539W        W78500  15.993  11.640  18.443
74540W        W78501  15.128  12.456  19.224
74541W        W78502  14.899  14.308  20.661
74542W        W78503  17.694  12.534  18.769
74543W        W78504  17.789  11.450  21.455
74544W        W78505  17.225  13.659  19.418
74545W        W78506  14.823  12.583  21.595
74546W        W78507  17.789  11.047  18.891
74547W        W78508  17.309  13.522  18.902
74548W        W78509  16.211  12.580  18.987
74549W        W78510  17.398  11.384  18.510
74550W        W78511  17.463  11.991  20.696
74551W        W78512  15.172  12.584  19.903
74552W        W78513  15.466  13.523  19.552
74553W        W78514  17.229  12.143  19.517
74554W        W78515  16.252  11.522  20.213
74555W        W78516  18.214  13.433  20.724
74556W        W78517  18.132  11.420  20.285
74557W        W78518  14.671  14.250  19.661
74558W        W78519  15.180  13.437  19.197
74559W        W78520  15.095  11.054  21.750
74560W        W78521  16.214  13.907  21.852
74561W        W78522  17.969  12.875  19.642
74562W        W78523  17.323  13.052  18.522
74563W        W78524  16.618  14.573  20.734
74564W        W78525  17.475  13.295  21.771
74565W        W78526  16.290  11.005  19.051
74566W        W78527  17.003  11.874  19.910
74567W        W78528  14.689  13.461  20.242
74568W        W78529  15.942  11.423  18.883
74569W        W78530  15.746  12.907  21.732
74570W        W78531  16.740  11.888  19.446
74571W        W78532  16.945  13.298  20.568
74572W        W78533  15.099  13.903  21.003
74573W        W78534  15.690  13.886  21.726
74574W        W78535  15.541  11.683  18.740
74575W        W78536  17.058  11.825  19.065
74576W        W78537  17.016  13.933  21.302
74577W        W78538  15.701  12.525  19.901
74578W        W78539  15.356  14.223  20.766
74579W        W78540  18.101  14.340  18.367
74580W        W78541  14.964  13.012  21.363
74581W        W78542  16.959  13.274  20.051
74582W        W78543  15.395  12.923  19.293
74583W        W78544  15.766  13.930  20.688
74584W        W78545  16.144  11.349  19.729
74585W        W78546  14.755  13.333  18.659
74586W        W78547  16.274  12.284  18.529
74587W        W78548  14.920  12.833  19.548
74588W        W78549  16.210  11.475  21.012
74589W        W78550  17.882  11.184  18.439
74590W        W78551  17.975  12.930  21.538
74591W        W78552  16.629  14.187  21.690
74592W        W78553  18.187  13.281  21.212
74593W        W78554  17.595  14.079  21.823
74594W        W78555  15.334  14.535  20.301
74595W        W78556  18.193  13.157  19.175
74596W        W78557  16.723  12.424  19.688
74597W        W78558  16.490  11.036  19.578
74598W        W78559  15.549  14.020  19.415
74599W        W78560  16.048  11.761  20.640
74600W        W78561  15.748  11.130  20.109
74601W        W78562  14.811  13.952  18.657
74602W        W78563  16.627  13.316  19.375
74603W        W78564  15.502  14.111  21.254
74604W        W78565  14.979  12.934  18.950
74605W        W78566  14.864  11.477  19.949
74606W        W78567  16.412  13.442  20.006
74607W        W78568  14.664  11.296  19.026
74608W        W78569  17.328  12.502  20.953
74609W        W78570  17.205  11.888  18.525
74610W        W78571  17.722  13.560  20.173
74611W        W78572  16.383  14.044  20.004
74612W        W78573  15.795  14.148  18.915
74613W        W78574  17.077  11.051  18.345
74614W        W78575  14.877  14.311  20.086
74615W        W78576  17.074  12.069  21.721
74616W        W78577  15.057  11.599  21.720
74617W        W78578  14.788  12.199  19.053
74618W        W78579  15.479  12.188  18.778
74619W        W78580  17.242  12.515  21.595
74620W        W78581  15.585  12.796  20.304
74621W        W78582  17.059  11.082  19.424
74622W        W78583  16.190  14.513  19.927
74623W        W78584  17.404  13.975  20.864
74624W        W78585  16.988  14.124  19.975
74625W        W78586  17.007  13.104  19.569
74626W        W78587  16.469  11.329  18.640
74627W        W78588  18.150  10.957  19.362
74628W        W78589  15.838  12.592  18.525
74629W        W78590  18.004  11.929  19.515
74630W        W78591  16.696  13.099  18.392
74631W        W78592  17.632  13.299  21.140
74632W        W78593  17.286  14.000  18.607
74633W        W78594  15.901  11.675  21.513
74634W        W78595  15.721  12.259  20.754
74635W        W78596  17.813  13.754  21.031
74636W        W78597  16.913  11.704  21.408
74637W        W78598  14.757  12.175  21.185
74638W        W78599  16.517  12.652  20.911
74639W        W78600  14.874  13.410  19.568
74640W        W78601  15.021  12.707  20.458
74641W        W78602  17.338  12.993  20.808
74642W        W78603  17.110  14.373  21.619
74643W        W78604  17.006  12.112  21.172
74644W        W78605  17.283  14.166  19.577
74645W        W78606  16.285  13.886  20.900
74646W        W78607  15.770  14.241  20.169
74647W        W78608  17.575  13.412  20.588
74648W        W78609  16.625  13.484  21.725
74649W        W78610  15.230  13.437  20.064
74650W        W78611  17.576  13.196  19.709
74651W        W78612  17.217  14.262  20.460
74652W        W78613  15.195  13.991  20.330
74653W        W78614  16.216  12.043  21.540
74654W        W78615  16.667  14.209  19.051
74655W        W78616  15.975  13.464  21.689
74656W        W78617  16.101  13.702  19.066
74657W        W78618  15.322  12.442  18.325
74658W        W78619  17.742  13.151  22.518
74659W        W78620  15.790  14.227  22.071
74660W        W78621  15.873  12.379  23.054
74661W        W78622  15.388  12.227  23.218
74662W        W78623  16.379  13.042  22.652
74663W        W78624  16.808  12.234  22.229
74664W        W78625  16.365  13.469  22.198
74665W        W78626  15.061  11.308  23.033
74666W        W78627  17.749  11.702  21.984
74667W        W78628  17.955  13.676  22.481
74668W        W78629  15.084  14.462  22.235
74669W        W78630  15.477  14.508  22.911
74670W        W78631  17.302  12.702  23.071
74671W        W78632  17.268  12.390  22.098
74672W        W78633  17.753  12.742  22.853
74673W        W78634  16.655  11.400  22.869
74674W        W78635  15.312  14.094  22.552
74675W        W78636  16.268  14.167  22.410
74676W        W78637  17.660  12.193  21.874
74677W        W78638  15.847  12.883  23.137
74678W        W78639  15.317  12.922  21.995
74679W        W78640  14.972  11.955  22.174
74680W        W78641  15.034  13.911  22.968
74681W        W78642  16.165  13.394  23.216
74682W        W78643  16.423  11.895  22.614
74683W        W78644  14.589  12.645  22.808
74684W        W78645  16.904  12.324  22.759
74685W        W78646  16.781  12.814  22.863
74686W        W78647  16.770  11.708  22.320
74687W        W78648  17.169  11.588  23.101
74688W        W78649  15.960  12.015  22.477
74689W        W78650  17.581  11.783  22.822
74690W        W78651  17.948  12.265  22.767
74691W        W78652  15.617  11.018  22.473
74692W        W78653  18.088  13.801  21.953
74693W        W78654  16.912  11.591  21.885
74694W        W78655  16.623  13.668  22.612
74695W        W78656  16.722  14.235  23.204
74696W        W78657  17.896  13.238  22.048
74697W        W78658  16.331  12.721  23.109
74698W        W78659  17.401  12.251  22.727
74699W        W78660  17.688  11.984  22.369
74700W        W78661  17.497  14.024  22.758
74701W        W78662  17.227  12.706  22.532
74702W        W78663  17.880  11.358  22.999
74703W        W78664  16.066  14.234  22.964
74704W        W78665  15.181  11.414  22.222
74705W        W78666  15.313  14.188  21.880
74706W        W78667  15.687  12.654  22.631
74707W        W78668  16.171  11.641  22.934
74708W        W78669  15.519  11.431  22.886
74709W        W78670  15.524  11.659  21.911
74710W        W78671  16.297  12.795  22.218
74711W        W78672  15.565  11.110  21.988
74712W        W78673  16.303  12.191  23.039
74713W        W78674  15.214  11.703  23.253
74714W        W78675  15.000  14.415  22.929
74715W        W78676  15.367  13.230  22.413
74716W        W78677  17.002  13.462  22.099
74717W        W78678  18.153  11.761  22.695
74718W        W78679  14.631  14.422  22.490
74719W        W78680  15.893  13.715  22.145
74720W        W78681  17.798  14.097  22.331
74721W        W78682  16.773  12.750  22.345
74722W        W78683  15.616  11.941  22.862
74723W        W78684  16.448  11.851  21.914
74724W        W78685  17.385  11.322  22.709
74725W        W78686  14.715  11.170  22.157
74726W        W78687  15.542  13.357  21.937
74727W        W78688  14.783  13.598  22.705
74728W        W78689  15.895  11.138  22.970
74729W        W78690  16.954  11.215  22.475
74730W        W78691  15.058  11.716  22.642
74731W        W78692  18.025  12.607  21.943
74732W        W78693  14.579  11.627  22.180
74733W        W78694  16.590  14.493  22.216
74734W        W78695  14.736  13.000  21.913
74735W        W78696  18.137  12.852  22.403
74736W        W78697  17.000  13.184  22.502
74737W        W78698  17.474  14.484  22.197
74738W        W78699  16.068  11.050  22.156
74739W        W78700  17.607  13.649  22.099
74740W        W78701  17.147  14.386  22.613
74741W        W78702  15.608  13.669  22.598
74742W        W78703  17.363  13.167  22.862
74743W        W78704  16.460  13.855  23.050
74744W        W78705  18.210  12.415  23.231
74745W        W78706  16.734  13.899  22.165
74746W        W78707  15.876  13.144  22.247
74747W        W78708  17.588  14.526  22.966
74748W        W78709  14.844  12.532  22.131
74749W        W78710  17.978  14.190  22.828
74750W        W78711  17.815  11.514  22.447
74751W        W78712  17.689  12.391  23.213
74752W        W78713  15.220  13.719  22.108
74753W        W78714  17.737  13.477  22.918
74754W        W78715  18.114  12.199  22.285
74755W        W78716  15.859  13.256  22.756
74756W        W78717  15.782  12.147  21.995
74757W        W78718  15.993  11.640  22.088
74758W        W78719  15.128  12.456  22.869
74759W        W78720  17.694  12.534  22.414
74760W        W78721  17.225  13.659  23.063
74761W        W78722  17.789  11.047  22.536
74762W        W78723  17.309  13.522  22.547
74763W        W78724  16.211  12.580  22.632
74764W        W78725  17.398  11.384  22.155
74765W        W78726  15.466  13.523  23.197
74766W        W78727  17.229  12.143  23.162
74767W        W78728  14.671  14.250  23.306
74768W        W78729  15.180  13.437  22.842
74769W        W78730  17.969  12.875  23.287
74770W        W78731  17.323  13.052  22.167
74771W        W78732  16.290  11.005  22.696
74772W        W78733  15.942  11.423  22.528
74773W        W78734  16.740  11.888  23.091
74774W        W78735  15.541  11.683  22.385
74775W        W78736  17.058  11.825  22.710
74776W        W78737  18.101  14.340  22.012
74777W        W78738  14.755  13.333  22.304
74778W        W78739  16.274  12.284  22.174
74779W        W78740  14.920  12.833  23.193
74780W        W78741  17.882  11.184  22.084
74781W        W78742  18.193  13.157  22.820
74782W        W78743  16.490  11.036  23.223
74783W        W78744  15.549  14.020  23.060
74784W        W78745  14.811  13.952  22.302
74785W        W78746  16.627  13.316  23.020
74786W        W78747  14.979  12.934  22.595
74787W        W78748  14.664  11.296  22.671
74788W        W78749  17.205  11.888  22.170
74789W        W78750  15.795  14.148  22.560
74790W        W78751  17.077  11.051  21.990
74791W        W78752  14.788  12.199  22.698
74792W        W78753  15.479  12.188  22.423
74793W        W78754  17.007  13.104  23.214
74794W        W78755  16.469  11.329  22.285
74795W        W78756  18.150  10.957  23.007
74796W        W78757  15.838  12.592  22.170
74797W        W78758  18.004  11.929  23.160
74798W        W78759  16.696  13.099  22.037
74799W        W78760  17.286  14.000  22.252
74800W        W78761  14.874  13.410  23.213
74801W        W78762  17.283  14.166  23.222
74802W        W78763  16.667  14.209  22.696
74803W        W78764  16.101  13.702  22.711
74804W        W78765  15.322  12.442  21.970
74805W        W78766  14.661  18.172   3.359
74806W        W78767  15.037  17.065   2.882
74807W        W78768  17.742  16.795   0.652
74808W        W78769  17.872  17.880   2.679
74809W        W78770  15.790  17.871   0.205
74810W        W78771  15.873  16.023   1.188
74811W        W78772  15.388  15.871   1.352
74812W        W78773  16.379  16.686   0.786
74813W        W78774  16.054  17.778   3.141
74814W        W78775  14.703  15.339   3.104
74815W        W78776  15.465  14.619   2.906
74816W        W78777  17.159  15.007   1.793
74817W        W78778  16.808  15.878   0.363
74818W        W78779  17.378  15.312   3.454
74819W        W78780  14.744  15.104   2.579
74820W        W78781  14.843  17.723   3.600
74821W        W78782  16.365  17.113   0.332
74822W        W78783  14.797  15.896   2.025
74823W        W78784  15.690  15.787   3.262
74824W        W78785  18.149  15.646   1.761
74825W        W78786  17.913  16.689   2.620
74826W        W78787  16.221  16.022   1.647
74827W        W78788  16.767  17.361   2.016
74828W        W78789  15.267  16.795   2.248
74829W        W78790  14.626  16.323   1.819
74830W        W78791  15.662  16.295   3.011
74831W        W78792  17.933  16.078   3.265
74832W        W78793  15.549  17.522   1.710
74833W        W78794  16.670  17.211   2.844
74834W        W78795  15.890  15.851   2.069
74835W        W78796  16.182  16.635   1.712
74836W        W78797  17.179  17.408   3.560
74837W        W78798  16.258  16.728   3.570
74838W        W78799  16.239  16.444   3.048
74839W        W78800  14.648  15.835   3.570
74840W        W78801  17.480  17.370   3.169
74841W        W78802  15.061  14.952   1.167
74842W        W78803  15.588  17.210   2.166
74843W        W78804  18.051  16.993   1.456
74844W        W78805  17.464  15.393   2.023
74845W        W78806  17.749  15.346   0.118
74846W        W78807  18.214  16.147   2.424
74847W        W78808  16.181  17.854   2.177
74848W        W78809  17.955  17.320   0.615
74849W        W78810  15.084  18.106   0.369
74850W        W78811  15.477  18.152   1.045
74851W        W78812  15.274  14.906   2.471
74852W        W78813  17.897  15.924   2.746
74853W        W78814  17.302  16.346   1.205
74854W        W78815  17.268  16.034   0.232
74855W        W78816  16.476  17.178   2.372
74856W        W78817  16.282  15.508   1.571
74857W        W78818  16.882  17.595   2.565
74858W        W78819  17.753  16.386   0.987
74859W        W78820  16.655  15.044   1.003
74860W        W78821  15.312  17.738   0.686
74861W        W78822  14.683  15.237   1.285
74862W        W78823  17.469  15.844   1.759
74863W        W78824  14.927  17.461   1.674
74864W        W78825  16.268  17.811   0.544
74865W        W78826  17.660  15.837   0.008
74866W        W78827  14.683  17.595   2.172
74867W        W78828  15.474  17.167   2.652
74868W        W78829  15.847  16.527   1.271
74869W        W78830  15.869  14.932   2.364
74870W        W78831  18.098  14.694   1.661
74871W        W78832  15.317  16.566   0.129
74872W        W78833  14.972  15.599   0.308
74873W        W78834  15.034  17.555   1.102
74874W        W78835  16.165  17.038   1.350
74875W        W78836  17.497  17.897   3.064
74876W        W78837  16.423  15.539   0.748
74877W        W78838  17.806  17.937   1.520
74878W        W78839  17.483  15.790   3.118
74879W        W78840  18.196  17.446   1.252
74880W        W78841  16.823  16.738   2.736
74881W        W78842  14.589  16.289   0.942
74882W        W78843  15.700  16.704   2.515
74883W        W78844  16.904  15.968   0.893
74884W        W78845  16.781  16.458   0.997
74885W        W78846  15.124  15.878   2.471
74886W        W78847  15.109  15.754   3.393
74887W        W78848  14.999  14.671   1.552
74888W        W78849  16.767  15.018   2.113
74889W        W78850  16.415  15.203   3.276
74890W        W78851  16.770  15.352   0.454
74891W        W78852  17.953  17.745   3.208
74892W        W78853  16.920  14.826   3.247
74893W        W78854  17.939  17.127   3.369
74894W        W78855  17.369  15.294   2.965
74895W        W78856  17.169  15.232   1.235
74896W        W78857  17.562  16.366   3.639
74897W        W78858  15.302  17.942   1.625
74898W        W78859  15.960  15.659   0.611
74899W        W78860  15.529  14.943   3.275
74900W        W78861  17.581  15.427   0.956
74901W        W78862  17.948  15.909   0.901
74902W        W78863  15.691  18.126   3.372
74903W        W78864  15.617  14.662   0.607
74904W        W78865  17.938  15.196   1.642
74905W        W78866  18.088  17.445   0.087
74906W        W78867  14.995  16.648   1.789
74907W        W78868  16.912  15.235   0.019
74908W        W78869  18.046  17.567   1.739
74909W        W78870  18.085  14.761   2.489
74910W        W78871  16.530  15.973   3.043
74911W        W78872  16.623  17.312   0.746
74912W        W78873  17.023  16.606   3.486
74913W        W78874  16.697  14.583   1.795
74914W        W78875  15.309  15.486   1.858
74915W        W78876  14.863  16.686   2.632
74916W        W78877  16.722  17.879   1.338
74917W        W78878  17.916  15.476   2.210
74918W        W78879  16.553  17.823   2.977
74919W        W78880  17.896  16.882   0.182
74920W        W78881  16.331  16.365   1.243
74921W        W78882  18.183  14.876   2.984
74922W        W78883  16.332  16.711   2.578
74923W        W78884  16.549  15.597   2.023
74924W        W78885  17.401  15.895   0.861
74925W        W78886  17.688  15.628   0.503
74926W        W78887  17.497  17.668   0.892
74927W        W78888  17.331  17.271   1.688
74928W        W78889  17.227  16.350   0.666
74929W        W78890  16.660  16.560   1.652
74930W        W78891  17.541  16.348   1.719
74931W        W78892  14.916  15.363   2.143
74932W        W78893  17.694  16.415   2.970
74933W        W78894  18.045  18.033   2.116
74934W        W78895  15.975  17.477   1.518
74935W        W78896  16.982  18.010   2.842
74936W        W78897  16.976  15.340   2.606
74937W        W78898  16.183  18.048   2.667
74938W        W78899  17.880  15.002   1.133
74939W        W78900  17.671  16.321   2.434
74940W        W78901  14.654  15.642   2.472
74941W        W78902  17.514  15.437   1.490
74942W        W78903  17.925  15.588   3.267
74943W        W78904  16.810  17.287   1.485
74944W        W78905  16.066  17.878   1.098
74945W        W78906  15.181  15.058   0.356
74946W        W78907  16.285  14.712   2.166
74947W        W78908  15.313  17.832   0.014
74948W        W78909  15.687  16.298   0.765
74949W        W78910  16.341  16.927   3.078
74950W        W78911  16.171  15.285   1.068
74951W        W78912  17.527  14.882   1.496
74952W        W78913  17.247  18.164   1.824
74953W        W78914  16.659  17.812   2.164
74954W        W78915  16.055  16.849   2.125
74955W        W78916  17.825  17.572   2.251
74956W        W78917  15.519  15.075   1.020
74957W        W78918  16.041  17.372   1.980
74958W        W78919  15.524  15.303   0.045
74959W        W78920  16.325  15.912   2.439
74960W        W78921  17.173  14.778   2.309
74961W        W78922  14.593  16.621   2.194
74962W        W78923  16.297  16.439   0.352
74963W        W78924  15.565  14.754   0.122
74964W        W78925  16.303  15.835   1.173
74965W        W78926  17.273  14.811   2.872
74966W        W78927  15.861  16.823   2.981
74967W        W78928  16.665  16.605   3.198
74968W        W78929  17.282  16.635   3.091
74969W        W78930  16.566  14.775   3.596
74970W        W78931  15.788  15.391   1.989
74971W        W78932  15.214  15.347   1.387
74972W        W78933  15.000  18.059   1.063
74973W        W78934  16.332  17.389   3.188
74974W        W78935  15.367  16.874   0.547
74975W        W78936  17.047  16.259   1.768
74976W        W78937  17.327  16.058   2.167
74977W        W78938  16.532  16.732   2.101
74978W        W78939  17.002  17.106   0.233
74979W        W78940  16.674  15.127   1.561
74980W        W78941  18.153  15.405   0.829
74981W        W78942  14.647  17.994   2.860
74982W        W78943  14.631  18.066   0.624
74983W        W78944  16.530  15.336   2.430
74984W        W78945  15.893  17.359   0.279
74985W        W78946  17.798  17.741   0.465
74986W        W78947  16.773  16.394   0.479
74987W        W78948  15.616  15.585   0.996
74988W        W78949  16.448  15.495   0.048
74989W        W78950  17.032  17.060   3.226
74990W        W78951  17.385  14.966   0.843
74991W        W78952  14.715  14.814   0.291
74992W        W78953  16.001  17.133   2.581
74993W        W78954  15.800  17.049   1.673
74994W        W78955  15.542  17.001   0.071
74995W        W78956  14.783  17.242   0.839
74996W        W78957  15.287  16.312   3.281
74997W        W78958  15.991  14.872   3.467
74998W        W78959  16.700  15.014   2.823
74999W        W78960  15.895  14.782   1.104
75000W        W78961  16.954  14.859   0.609
75001W        W78962  14.899  14.791   2.186
75002W        W78963  14.947  15.754   1.556
75003W        W78964  17.636  14.862   1.962
75004W        W78965  15.058  15.360   0.776
75005W        W78966  17.629  15.048   2.392
75006W        W78967  18.025  16.251   0.077
75007W        W78968  15.317  15.009   1.896
75008W        W78969  16.431  15.581   2.836
75009W        W78970  14.579  15.271   0.314
75010W        W78971  15.365  16.660   2.875
75011W        W78972  16.723  16.058   2.054
75012W        W78973  16.590  18.137   0.350
75013W        W78974  14.736  16.644   0.047
75014W        W78975  15.471  17.055   3.173
75015W        W78976  14.992  16.222   2.804
75016W        W78977  15.983  16.327   2.598
75017W        W78978  17.751  14.686   2.860
75018W        W78979  18.149  16.296   2.851
75019W        W78980  18.137  16.496   0.537
75020W        W78981  17.000  16.828   0.636
75021W        W78982  17.474  18.128   0.331
75022W        W78983  16.651  16.118   3.473
75023W        W78984  14.981  17.085   3.513
75024W        W78985  18.187  15.007   3.465
75025W        W78986  17.905  15.935   2.086
75026W        W78987  16.213  18.065   3.563
75027W        W78988  16.068  14.694   0.290
75028W        W78989  17.607  17.293   0.233
75029W        W78990  15.376  15.386   3.119
75030W        W78991  15.810  17.380   2.981
75031W        W78992  17.936  15.371   2.779
75032W        W78993  17.147  18.030   0.747
75033W        W78994  17.386  16.649   2.114
75034W        W78995  15.636  15.065   2.781
75035W        W78996  16.105  16.134   3.538
75036W        W78997  15.608  17.313   0.732
75037W        W78998  17.363  16.811   0.996
75038W        W78999  15.131  15.437   2.720
75039W        W79000  16.460  17.499   1.184
75040W        W79001  18.210  16.059   1.365
75041W        W79002  16.432  14.692   3.084
75042W        W79003  17.212  17.397   2.163
75043W        W79004  17.515  17.741   1.871
75044W        W79005  16.734  17.543   0.299
75045W        W79006  14.744  17.435   3.141
75046W        W79007  15.487  15.427   2.379
75047W        W79008  15.457  14.775   1.489
75048W        W79009  17.078  15.617   2.181
75049W        W79010  15.876  16.788   0.381
75050W        W79011  17.874  16.730   1.880
75051W        W79012  15.201  17.488   3.303
75052W        W79013  17.588  18.170   1.100
75053W        W79014  15.687  15.190   1.545
75054W        W79015  15.456  16.683   1.635
75055W        W79016  15.769  18.094   2.385
75056W        W79017  17.836  18.190   3.417
75057W        W79018  16.995  16.378   2.350
75058W        W79019  14.844  16.176   0.265
75059W        W79020  17.978  17.834   0.962
75060W        W79021  17.815  15.158   0.581
75061W        W79022  15.954  14.677   2.984
75062W        W79023  17.660  17.479   1.442
75063W        W79024  17.689  16.035   1.347
75064W        W79025  15.806  15.708   1.563
75065W        W79026  16.051  15.970   2.887
75066W        W79027  17.162  17.123   2.750
75067W        W79028  15.812  15.577   2.862
75068W        W79029  15.791  18.043   1.478
75069W        W79030  15.108  18.002   3.112
75070W        W79031  15.220  17.363   0.242
75071W        W79032  17.737  17.121   1.052
75072W        W79033  15.341  15.913   2.938
75073W        W79034  18.114  15.843   0.419
75074W        W79035  15.859  16.900   0.890
75075W        W79036  16.958  16.282   2.971
75076W        W79037  16.849  15.910   2.515
75077W        W79038  15.409  16.282   2.544
75078W        W79039  17.619  18.170   2.373
75079W        W79040  17.410  14.804   3.367
75080W        W79041  15.074  14.954   2.954
75081W        W79042  15.413  15.977   2.007
75082W        W79043  15.782  15.791   0.129
75083W        W79044  14.585  17.550   2.674
75084W        W79045  16.170  16.259   2.117
75085W        W79046  15.993  15.284   0.222
75086W        W79047  15.128  16.100   1.003
75087W        W79048  14.899  17.952   2.440
75088W        W79049  17.694  16.178   0.548
75089W        W79050  17.789  15.094   3.234
75090W        W79051  17.225  17.303   1.197
75091W        W79052  14.823  16.227   3.374
75092W        W79053  17.789  14.691   0.670
75093W        W79054  17.309  17.166   0.681
75094W        W79055  16.211  16.224   0.766
75095W        W79056  17.398  15.028   0.289
75096W        W79057  17.463  15.635   2.475
75097W        W79058  15.172  16.228   1.682
75098W        W79059  15.466  17.167   1.331
75099W        W79060  17.229  15.787   1.296
75100W        W79061  16.252  15.166   1.992
75101W        W79062  18.214  17.077   2.503
75102W        W79063  18.132  15.064   2.064
75103W        W79064  14.671  17.894   1.440
75104W        W79065  15.180  17.081   0.976
75105W        W79066  15.095  14.698   3.529
75106W        W79067  16.214  17.551   3.631
75107W        W79068  17.969  16.519   1.421
75108W        W79069  17.323  16.696   0.301
75109W        W79070  16.618  18.217   2.513
75110W        W79071  17.475  16.939   3.550
75111W        W79072  16.290  14.649   0.830
75112W        W79073  17.003  15.518   1.689
75113W        W79074  14.689  17.105   2.021
75114W        W79075  15.942  15.067   0.662
75115W        W79076  15.746  16.551   3.511
75116W        W79077  16.740  15.532   1.225
75117W        W79078  16.945  16.942   2.347
75118W        W79079  15.099  17.547   2.782
75119W        W79080  15.690  17.530   3.505
75120W        W79081  15.541  15.327   0.519
75121W        W79082  17.058  15.469   0.844
75122W        W79083  17.016  17.577   3.081
75123W        W79084  15.701  16.169   1.680
75124W        W79085  15.356  17.867   2.545
75125W        W79086  18.101  17.984   0.146
75126W        W79087  14.964  16.656   3.142
75127W        W79088  16.959  16.918   1.830
75128W        W79089  15.395  16.567   1.072
75129W        W79090  15.766  17.574   2.467
75130W        W79091  16.144  14.993   1.508
75131W        W79092  14.755  16.977   0.438
75132W        W79093  16.274  15.928   0.308
75133W        W79094  14.920  16.477   1.327
75134W        W79095  16.210  15.119   2.791
75135W        W79096  17.882  14.828   0.218
75136W        W79097  17.975  16.574   3.317
75137W        W79098  16.629  17.831   3.469
75138W        W79099  18.187  16.925   2.991
75139W        W79100  17.595  17.723   3.602
75140W        W79101  15.334  18.179   2.080
75141W        W79102  18.193  16.801   0.954
75142W        W79103  16.723  16.068   1.467
75143W        W79104  16.490  14.680   1.357
75144W        W79105  15.549  17.664   1.194
75145W        W79106  16.048  15.405   2.419
75146W        W79107  15.748  14.774   1.888
75147W        W79108  14.811  17.596   0.436
75148W        W79109  16.627  16.960   1.154
75149W        W79110  15.502  17.755   3.033
75150W        W79111  14.979  16.578   0.729
75151W        W79112  14.864  15.121   1.728
75152W        W79113  16.412  17.086   1.785
75153W        W79114  14.664  14.940   0.805
75154W        W79115  17.328  16.146   2.732
75155W        W79116  17.205  15.532   0.304
75156W        W79117  17.722  17.204   1.952
75157W        W79118  16.383  17.688   1.783
75158W        W79119  15.795  17.792   0.694
75159W        W79120  17.077  14.695   0.124
75160W        W79121  14.877  17.955   1.865
75161W        W79122  17.074  15.713   3.500
75162W        W79123  15.057  15.243   3.499
75163W        W79124  14.788  15.843   0.832
75164W        W79125  15.479  15.832   0.557
75165W        W79126  17.242  16.159   3.374
75166W        W79127  15.585  16.440   2.083
75167W        W79128  17.059  14.726   1.203
75168W        W79129  16.190  18.157   1.706
75169W        W79130  17.404  17.619   2.643
75170W        W79131  16.988  17.768   1.754
75171W        W79132  17.007  16.748   1.348
75172W        W79133  16.469  14.973   0.419
75173W        W79134  18.150  14.601   1.141
75174W        W79135  15.838  16.236   0.304
75175W        W79136  18.004  15.573   1.294
75176W        W79137  16.696  16.743   0.171
75177W        W79138  17.632  16.943   2.919
75178W        W79139  17.286  17.644   0.386
75179W        W79140  15.901  15.319   3.292
75180W        W79141  15.721  15.903   2.533
75181W        W79142  17.813  17.398   2.810
75182W        W79143  16.913  15.348   3.187
75183W        W79144  14.757  15.819   2.964
75184W        W79145  16.517  16.296   2.690
75185W        W79146  14.874  17.054   1.347
75186W        W79147  15.021  16.351   2.237
75187W        W79148  17.338  16.637   2.587
75188W        W79149  17.110  18.017   3.398
75189W        W79150  17.006  15.756   2.951
75190W        W79151  17.283  17.810   1.356
75191W        W79152  16.285  17.530   2.679
75192W        W79153  15.770  17.885   1.948
75193W        W79154  17.575  17.056   2.367
75194W        W79155  16.625  17.128   3.504
75195W        W79156  15.230  17.081   1.843
75196W        W79157  17.576  16.840   1.488
75197W        W79158  17.217  17.906   2.239
75198W        W79159  15.195  17.635   2.109
75199W        W79160  16.216  15.687   3.319
75200W        W79161  16.667  17.853   0.830
75201W        W79162  15.975  17.108   3.468
75202W        W79163  16.101  17.346   0.845
75203W        W79164  15.322  16.086   0.104
75204W        W79165  14.661  18.172   7.003
75205W        W79166  15.037  17.065   6.526
75206W        W79167  17.742  16.795   4.296
75207W        W79168  17.872  17.880   6.323
75208W        W79169  15.790  17.871   3.849
75209W        W79170  15.873  16.023   4.832
75210W        W79171  15.388  15.871   4.996
75211W        W79172  16.379  16.686   4.430
75212W        W79173  16.054  17.778   6.785
75213W        W79174  14.703  15.339   6.748
75214W        W79175  15.465  14.619   6.550
75215W        W79176  17.159  15.007   5.437
75216W        W79177  16.808  15.878   4.007
75217W        W79178  17.378  15.312   7.098
75218W        W79179  14.744  15.104   6.223
75219W        W79180  14.843  17.723   7.244
75220W        W79181  16.365  17.113   3.976
75221W        W79182  14.797  15.896   5.669
75222W        W79183  15.690  15.787   6.906
75223W        W79184  18.149  15.646   5.405
75224W        W79185  17.913  16.689   6.264
75225W        W79186  16.221  16.022   5.291
75226W        W79187  16.767  17.361   5.660
75227W        W79188  15.267  16.795   5.892
75228W        W79189  14.626  16.323   5.463
75229W        W79190  15.662  16.295   6.655
75230W        W79191  17.933  16.078   6.909
75231W        W79192  15.549  17.522   5.354
75232W        W79193  16.670  17.211   6.488
75233W        W79194  15.890  15.851   5.713
75234W        W79195  16.182  16.635   5.356
75235W        W79196  17.179  17.408   7.204
75236W        W79197  16.258  16.728   7.214
75237W        W79198  16.239  16.444   6.692
75238W        W79199  14.648  15.835   7.214
75239W        W79200  17.480  17.370   6.813
75240W        W79201  15.061  14.952   4.811
75241W        W79202  15.588  17.210   5.810
75242W        W79203  18.051  16.993   5.100
75243W        W79204  17.464  15.393   5.667
75244W        W79205  17.749  15.346   3.762
75245W        W79206  18.214  16.147   6.068
75246W        W79207  16.181  17.854   5.821
75247W        W79208  17.955  17.320   4.259
75248W        W79209  15.084  18.106   4.013
75249W        W79210  15.477  18.152   4.689
75250W        W79211  15.274  14.906   6.115
75251W        W79212  17.897  15.924   6.390
75252W        W79213  17.302  16.346   4.849
75253W        W79214  17.268  16.034   3.876
75254W        W79215  16.476  17.178   6.016
75255W        W79216  16.282  15.508   5.215
75256W        W79217  16.882  17.595   6.209
75257W        W79218  17.753  16.386   4.631
75258W        W79219  16.655  15.044   4.647
75259W        W79220  15.312  17.738   4.330
75260W        W79221  14.683  15.237   4.929
75261W        W79222  17.469  15.844   5.403
75262W        W79223  14.927  17.461   5.318
75263W        W79224  16.268  17.811   4.188
75264W        W79225  17.660  15.837   3.652
75265W        W79226  14.683  17.595   5.816
75266W        W79227  15.474  17.167   6.296
75267W        W79228  15.847  16.527   4.915
75268W        W79229  15.869  14.932   6.008
75269W        W79230  18.098  14.694   5.305
75270W        W79231  15.317  16.566   3.773
75271W        W79232  14.972  15.599   3.952
75272W        W79233  15.034  17.555   4.746
75273W        W79234  16.165  17.038   4.994
75274W        W79235  17.497  17.897   6.708
75275W        W79236  16.423  15.539   4.392
75276W        W79237  17.806  17.937   5.164
75277W        W79238  17.483  15.790   6.762
75278W        W79239  18.196  17.446   4.896
75279W        W79240  16.823  16.738   6.380
75280W        W79241  14.589  16.289   4.586
75281W        W79242  15.700  16.704   6.159
75282W        W79243  16.904  15.968   4.537
75283W        W79244  16.781  16.458   4.641
75284W        W79245  15.124  15.878   6.115
75285W        W79246  15.109  15.754   7.037
75286W        W79247  14.999  14.671   5.196
75287W        W79248  16.767  15.018   5.757
75288W        W79249  16.415  15.203   6.920
75289W        W79250  16.770  15.352   4.098
75290W        W79251  17.953  17.745   6.852
75291W        W79252  16.920  14.826   6.891
75292W        W79253  17.939  17.127   7.013
75293W        W79254  17.369  15.294   6.609
75294W        W79255  17.169  15.232   4.879
75295W        W79256  17.562  16.366   7.283
75296W        W79257  15.302  17.942   5.269
75297W        W79258  15.960  15.659   4.255
75298W        W79259  15.529  14.943   6.919
75299W        W79260  17.581  15.427   4.600
75300W        W79261  17.948  15.909   4.545
75301W        W79262  15.691  18.126   7.016
75302W        W79263  15.617  14.662   4.251
75303W        W79264  17.938  15.196   5.286
75304W        W79265  18.088  17.445   3.731
75305W        W79266  14.995  16.648   5.433
75306W        W79267  16.912  15.235   3.663
75307W        W79268  18.046  17.567   5.383
75308W        W79269  18.085  14.761   6.133
75309W        W79270  16.530  15.973   6.687
75310W        W79271  16.623  17.312   4.390
75311W        W79272  17.023  16.606   7.130
75312W        W79273  16.697  14.583   5.439
75313W        W79274  15.309  15.486   5.502
75314W        W79275  14.863  16.686   6.276
75315W        W79276  16.722  17.879   4.982
75316W        W79277  17.916  15.476   5.854
75317W        W79278  16.553  17.823   6.621
75318W        W79279  17.896  16.882   3.826
75319W        W79280  16.331  16.365   4.887
75320W        W79281  18.183  14.876   6.628
75321W        W79282  16.332  16.711   6.222
75322W        W79283  16.549  15.597   5.667
75323W        W79284  17.401  15.895   4.505
75324W        W79285  17.688  15.628   4.147
75325W        W79286  17.497  17.668   4.536
75326W        W79287  17.331  17.271   5.332
75327W        W79288  17.227  16.350   4.310
75328W        W79289  16.660  16.560   5.296
75329W        W79290  17.541  16.348   5.363
75330W        W79291  14.916  15.363   5.787
75331W        W79292  17.694  16.415   6.614
75332W        W79293  18.045  18.033   5.760
75333W        W79294  15.975  17.477   5.162
75334W        W79295  16.982  18.010   6.486
75335W        W79296  16.976  15.340   6.250
75336W        W79297  16.183  18.048   6.311
75337W        W79298  17.880  15.002   4.777
75338W        W79299  17.671  16.321   6.078
75339W        W79300  14.654  15.642   6.116
75340W        W79301  17.514  15.437   5.134
75341W        W79302  17.925  15.588   6.911
75342W        W79303  16.810  17.287   5.129
75343W        W79304  16.066  17.878   4.742
75344W        W79305  15.181  15.058   4.000
75345W        W79306  16.285  14.712   5.810
75346W        W79307  15.313  17.832   3.658
75347W        W79308  15.687  16.298   4.409
75348W        W79309  16.341  16.927   6.722
75349W        W79310  16.171  15.285   4.712
75350W        W79311  17.527  14.882   5.140
75351W        W79312  17.247  18.164   5.468
75352W        W79313  16.659  17.812   5.808
75353W        W79314  16.055  16.849   5.769
75354W        W79315  17.825  17.572   5.895
75355W        W79316  15.519  15.075   4.664
75356W        W79317  16.041  17.372   5.624
75357W        W79318  15.524  15.303   3.689
75358W        W79319  16.325  15.912   6.083
75359W        W79320  17.173  14.778   5.953
75360W        W79321  14.593  16.621   5.838
75361W        W79322  16.297  16.439   3.996
75362W        W79323  15.565  14.754   3.766
75363W        W79324  16.303  15.835   4.817
75364W        W79325  17.273  14.811   6.516
75365W        W79326  15.861  16.823   6.625
75366W        W79327  16.665  16.605   6.842
75367W        W79328  17.282  16.635   6.735
75368W        W79329  16.566  14.775   7.240
75369W        W79330  15.788  15.391   5.633
75370W        W79331  15.214  15.347   5.031
75371W        W79332  15.000  18.059   4.707
75372W        W79333  16.332  17.389   6.832
75373W        W79334  15.367  16.874   4.191
75374W        W79335  17.047  16.259   5.412
75375W        W79336  17.327  16.058   5.811
75376W        W79337  16.532  16.732   5.745
75377W        W79338  17.002  17.106   3.877
75378W        W79339  16.674  15.127   5.205
75379W        W79340  18.153  15.405   4.473
75380W        W79341  14.647  17.994   6.504
75381W        W79342  15.064  17.220   6.036
75382W        W79343  14.631  18.066   4.268
75383W        W79344  16.530  15.336   6.074
75384W        W79345  15.893  17.359   3.923
75385W        W79346  17.798  17.741   4.109
75386W        W79347  16.773  16.394   4.123
75387W        W79348  15.616  15.585   4.640
75388W        W79349  16.448  15.495   3.692
75389W        W79350  17.032  17.060   6.870
75390W        W79351  17.385  14.966   4.487
75391W        W79352  14.715  14.814   3.935
75392W        W79353  16.001  17.133   6.225
75393W        W79354  15.800  17.049   5.317
75394W        W79355  15.542  17.001   3.715
75395W        W79356  14.783  17.242   4.483
75396W        W79357  15.287  16.312   6.925
75397W        W79358  15.991  14.872   7.111
75398W        W79359  16.700  15.014   6.467
75399W        W79360  15.895  14.782   4.748
75400W        W79361  16.954  14.859   4.253
75401W        W79362  14.899  14.791   5.830
75402W        W79363  14.947  15.754   5.200
75403W        W79364  17.636  14.862   5.606
75404W        W79365  15.058  15.360   4.420
75405W        W79366  17.629  15.048   6.036
75406W        W79367  18.025  16.251   3.721
75407W        W79368  15.317  15.009   5.540
75408W        W79369  16.431  15.581   6.480
75409W        W79370  14.579  15.271   3.958
75410W        W79371  15.365  16.660   6.519
75411W        W79372  16.723  16.058   5.698
75412W        W79373  16.590  18.137   3.994
75413W        W79374  14.736  16.644   3.691
75414W        W79375  15.471  17.055   6.817
75415W        W79376  14.992  16.222   6.448
75416W        W79377  15.983  16.327   6.242
75417W        W79378  17.751  14.686   6.504
75418W        W79379  18.149  16.296   6.495
75419W        W79380  18.137  16.496   4.181
75420W        W79381  17.000  16.828   4.280
75421W        W79382  17.474  18.128   3.975
75422W        W79383  16.651  16.118   7.117
75423W        W79384  14.981  17.085   7.157
75424W        W79385  18.187  15.007   7.109
75425W        W79386  17.905  15.935   5.730
75426W        W79387  16.213  18.065   7.207
75427W        W79388  16.068  14.694   3.934
75428W        W79389  17.607  17.293   3.877
75429W        W79390  15.376  15.386   6.763
75430W        W79391  15.810  17.380   6.625
75431W        W79392  17.936  15.371   6.423
75432W        W79393  17.147  18.030   4.391
75433W        W79394  17.386  16.649   5.758
75434W        W79395  15.636  15.065   6.425
75435W        W79396  16.105  16.134   7.182
75436W        W79397  15.608  17.313   4.376
75437W        W79398  17.363  16.811   4.640
75438W        W79399  15.131  15.437   6.364
75439W        W79400  16.460  17.499   4.828
75440W        W79401  18.210  16.059   5.009
75441W        W79402  16.432  14.692   6.728
75442W        W79403  17.212  17.397   5.807
75443W        W79404  17.515  17.741   5.515
75444W        W79405  16.734  17.543   3.943
75445W        W79406  14.744  17.435   6.785
75446W        W79407  15.487  15.427   6.023
75447W        W79408  15.457  14.775   5.133
75448W        W79409  17.078  15.617   5.825
75449W        W79410  15.876  16.788   4.025
75450W        W79411  17.874  16.730   5.524
75451W        W79412  15.201  17.488   6.947
75452W        W79413  17.588  18.170   4.744
75453W        W79414  15.687  15.190   5.189
75454W        W79415  15.456  16.683   5.279
75455W        W79416  15.769  18.094   6.029
75456W        W79417  17.836  18.190   7.061
75457W        W79418  16.995  16.378   5.994
75458W        W79419  14.844  16.176   3.909
75459W        W79420  17.978  17.834   4.606
75460W        W79421  17.815  15.158   4.225
75461W        W79422  15.954  14.677   6.628
75462W        W79423  17.660  17.479   5.086
75463W        W79424  17.689  16.035   4.991
75464W        W79425  15.806  15.708   5.207
75465W        W79426  16.051  15.970   6.531
75466W        W79427  17.162  17.123   6.394
75467W        W79428  15.812  15.577   6.506
75468W        W79429  15.791  18.043   5.122
75469W        W79430  15.108  18.002   6.756
75470W        W79431  15.220  17.363   3.886
75471W        W79432  17.737  17.121   4.696
75472W        W79433  15.341  15.913   6.582
75473W        W79434  18.114  15.843   4.063
75474W        W79435  15.859  16.900   4.534
75475W        W79436  16.958  16.282   6.615
75476W        W79437  16.849  15.910   6.159
75477W        W79438  15.409  16.282   6.188
75478W        W79439  17.619  18.170   6.017
75479W        W79440  17.410  14.804   7.011
75480W        W79441  15.074  14.954   6.598
75481W        W79442  15.413  15.977   5.651
75482W        W79443  15.782  15.791   3.773
75483W        W79444  14.585  17.550   6.318
75484W        W79445  16.170  16.259   5.761
75485W        W79446  15.993  15.284   3.866
75486W        W79447  15.128  16.100   4.647
75487W        W79448  14.899  17.952   6.084
75488W        W79449  17.694  16.178   4.192
75489W        W79450  17.789  15.094   6.878
75490W        W79451  17.225  17.303   4.841
75491W        W79452  14.823  16.227   7.018
75492W        W79453  17.789  14.691   4.314
75493W        W79454  17.309  17.166   4.325
75494W        W79455  16.211  16.224   4.410
75495W        W79456  17.398  15.028   3.933
75496W        W79457  17.463  15.635   6.119
75497W        W79458  15.172  16.228   5.326
75498W        W79459  15.466  17.167   4.975
75499W        W79460  17.229  15.787   4.940
75500W        W79461  16.252  15.166   5.636
75501W        W79462  18.214  17.077   6.147
75502W        W79463  18.132  15.064   5.708
75503W        W79464  14.671  17.894   5.084
75504W        W79465  15.180  17.081   4.620
75505W        W79466  15.095  14.698   7.173
75506W        W79467  16.214  17.551   7.275
75507W        W79468  17.969  16.519   5.065
75508W        W79469  17.323  16.696   3.945
75509W        W79470  16.618  18.217   6.157
75510W        W79471  17.475  16.939   7.194
75511W        W79472  16.290  14.649   4.474
75512W        W79473  17.003  15.518   5.333
75513W        W79474  14.689  17.105   5.665
75514W        W79475  15.942  15.067   4.306
75515W        W79476  15.746  16.551   7.155
75516W        W79477  16.740  15.532   4.869
75517W        W79478  16.945  16.942   5.991
75518W        W79479  15.099  17.547   6.426
75519W        W79480  15.690  17.530   7.149
75520W        W79481  15.541  15.327   4.163
75521W        W79482  17.058  15.469   4.488
75522W        W79483  17.016  17.577   6.725
75523W        W79484  15.701  16.169   5.324
75524W        W79485  15.356  17.867   6.189
75525W        W79486  18.101  17.984   3.790
75526W        W79487  14.964  16.656   6.786
75527W        W79488  16.959  16.918   5.474
75528W        W79489  15.395  16.567   4.716
75529W        W79490  15.766  17.574   6.111
75530W        W79491  16.144  14.993   5.152
75531W        W79492  14.755  16.977   4.082
75532W        W79493  16.274  15.928   3.952
75533W        W79494  14.920  16.477   4.971
75534W        W79495  16.210  15.119   6.435
75535W        W79496  17.882  14.828   3.862
75536W        W79497  17.975  16.574   6.961
75537W        W79498  16.629  17.831   7.113
75538W        W79499  18.187  16.925   6.635
75539W        W79500  17.595  17.723   7.246
75540W        W79501  15.334  18.179   5.724
75541W        W79502  18.193  16.801   4.598
75542W        W79503  16.723  16.068   5.111
75543W        W79504  16.490  14.680   5.001
75544W        W79505  15.549  17.664   4.838
75545W        W79506  16.048  15.405   6.063
75546W        W79507  15.748  14.774   5.532
75547W        W79508  14.811  17.596   4.080
75548W        W79509  16.627  16.960   4.798
75549W        W79510  15.502  17.755   6.677
75550W        W79511  14.979  16.578   4.373
75551W        W79512  14.864  15.121   5.372
75552W        W79513  16.412  17.086   5.429
75553W        W79514  14.664  14.940   4.449
75554W        W79515  17.328  16.146   6.376
75555W        W79516  17.205  15.532   3.948
75556W        W79517  17.722  17.204   5.596
75557W        W79518  16.383  17.688   5.427
75558W        W79519  15.795  17.792   4.338
75559W        W79520  17.077  14.695   3.768
75560W        W79521  14.877  17.955   5.509
75561W        W79522  17.074  15.713   7.144
75562W        W79523  15.057  15.243   7.143
75563W        W79524  14.788  15.843   4.476
75564W        W79525  15.479  15.832   4.201
75565W        W79526  17.242  16.159   7.018
75566W        W79527  15.585  16.440   5.727
75567W        W79528  17.059  14.726   4.847
75568W        W79529  16.190  18.157   5.350
75569W        W79530  17.404  17.619   6.287
75570W        W79531  16.988  17.768   5.398
75571W        W79532  17.007  16.748   4.992
75572W        W79533  16.469  14.973   4.063
75573W        W79534  18.150  14.601   4.785
75574W        W79535  15.838  16.236   3.948
75575W        W79536  18.004  15.573   4.938
75576W        W79537  16.696  16.743   3.815
75577W        W79538  17.632  16.943   6.563
75578W        W79539  17.286  17.644   4.030
75579W        W79540  15.901  15.319   6.936
75580W        W79541  15.721  15.903   6.177
75581W        W79542  17.813  17.398   6.454
75582W        W79543  16.913  15.348   6.831
75583W        W79544  14.757  15.819   6.608
75584W        W79545  16.517  16.296   6.334
75585W        W79546  14.874  17.054   4.991
75586W        W79547  15.021  16.351   5.881
75587W        W79548  17.338  16.637   6.231
75588W        W79549  17.110  18.017   7.042
75589W        W79550  17.006  15.756   6.595
75590W        W79551  17.283  17.810   5.000
75591W        W79552  16.285  17.530   6.323
75592W        W79553  15.770  17.885   5.592
75593W        W79554  17.575  17.056   6.011
75594W        W79555  16.625  17.128   7.148
75595W        W79556  15.230  17.081   5.487
75596W        W79557  17.576  16.840   5.132
75597W        W79558  17.217  17.906   5.883
75598W        W79559  15.195  17.635   5.753
75599W        W79560  16.216  15.687   6.963
75600W        W79561  16.667  17.853   4.474
75601W        W79562  15.975  17.108   7.112
75602W        W79563  16.101  17.346   4.489
75603W        W79564  15.322  16.086   3.748
75604W        W79565  14.661  18.172  10.648
75605W        W79566  15.037  17.065  10.171
75606W        W79567  17.742  16.795   7.941
75607W        W79568  17.872  17.880   9.968
75608W        W79569  15.790  17.871   7.494
75609W        W79570  15.873  16.023   8.477
75610W        W79571  15.388  15.871   8.641
75611W        W79572  16.379  16.686   8.075
75612W        W79573  16.054  17.778  10.430
75613W        W79574  15.465  14.619  10.195
75614W        W79575  17.159  15.007   9.082
75615W        W79576  16.808  15.878   7.652
75616W        W79577  17.378  15.312  10.743
75617W        W79578  14.843  17.723  10.889
75618W        W79579  16.365  17.113   7.621
75619W        W79580  14.797  15.896   9.314
75620W        W79581  15.690  15.787  10.551
75621W        W79582  18.149  15.646   9.050
75622W        W79583  17.913  16.689   9.909
75623W        W79584  16.221  16.022   8.936
75624W        W79585  16.767  17.361   9.305
75625W        W79586  15.267  16.795   9.537
75626W        W79587  14.626  16.323   9.108
75627W        W79588  15.662  16.295  10.300
75628W        W79589  17.933  16.078  10.554
75629W        W79590  15.549  17.522   8.999
75630W        W79591  16.670  17.211  10.133
75631W        W79592  15.890  15.851   9.358
75632W        W79593  16.182  16.635   9.001
75633W        W79594  17.179  17.408  10.849
75634W        W79595  16.258  16.728  10.859
75635W        W79596  16.239  16.444  10.337
75636W        W79597  14.648  15.835  10.859
75637W        W79598  17.480  17.370  10.458
75638W        W79599  15.061  14.952   8.456
75639W        W79600  15.588  17.210   9.455
75640W        W79601  18.051  16.993   8.745
75641W        W79602  17.464  15.393   9.312
75642W        W79603  17.749  15.346   7.407
75643W        W79604  18.214  16.147   9.713
75644W        W79605  16.181  17.854   9.466
75645W        W79606  17.955  17.320   7.904
75646W        W79607  15.084  18.106   7.658
75647W        W79608  15.477  18.152   8.334
75648W        W79609  15.274  14.906   9.760
75649W        W79610  17.897  15.924  10.035
75650W        W79611  17.302  16.346   8.494
75651W        W79612  17.268  16.034   7.521
75652W        W79613  16.476  17.178   9.661
75653W        W79614  16.282  15.508   8.860
75654W        W79615  16.882  17.595   9.854
75655W        W79616  17.753  16.386   8.276
75656W        W79617  16.655  15.044   8.292
75657W        W79618  15.312  17.738   7.975
75658W        W79619  14.683  15.237   8.574
75659W        W79620  17.469  15.844   9.048
75660W        W79621  14.927  17.461   8.963
75661W        W79622  16.268  17.811   7.833
75662W        W79623  17.660  15.837   7.297
75663W        W79624  14.683  17.595   9.461
75664W        W79625  15.474  17.167   9.941
75665W        W79626  15.847  16.527   8.560
75666W        W79627  15.869  14.932   9.653
75667W        W79628  18.098  14.694   8.950
75668W        W79629  15.317  16.566   7.418
75669W        W79630  14.972  15.599   7.597
75670W        W79631  15.034  17.555   8.391
75671W        W79632  16.165  17.038   8.639
75672W        W79633  17.497  17.897  10.353
75673W        W79634  16.423  15.539   8.037
75674W        W79635  17.806  17.937   8.809
75675W        W79636  17.483  15.790  10.407
75676W        W79637  18.196  17.446   8.541
75677W        W79638  16.823  16.738  10.025
75678W        W79639  14.589  16.289   8.231
75679W        W79640  15.700  16.704   9.804
75680W        W79641  16.904  15.968   8.182
75681W        W79642  16.781  16.458   8.286
75682W        W79643  15.124  15.878   9.760
75683W        W79644  15.109  15.754  10.682
75684W        W79645  14.999  14.671   8.841
75685W        W79646  16.767  15.018   9.402
75686W        W79647  16.415  15.203  10.565
75687W        W79648  16.770  15.352   7.743
75688W        W79649  17.953  17.745  10.497
75689W        W79650  16.920  14.826  10.536
75690W        W79651  17.939  17.127  10.658
75691W        W79652  17.369  15.294  10.254
75692W        W79653  17.169  15.232   8.524
75693W        W79654  17.562  16.366  10.928
75694W        W79655  15.302  17.942   8.914
75695W        W79656  15.960  15.659   7.900
75696W        W79657  15.529  14.943  10.564
75697W        W79658  17.581  15.427   8.245
75698W        W79659  17.948  15.909   8.190
75699W        W79660  15.691  18.126  10.661
75700W        W79661  15.617  14.662   7.896
75701W        W79662  17.938  15.196   8.931
75702W        W79663  18.088  17.445   7.376
75703W        W79664  14.995  16.648   9.078
75704W        W79665  16.912  15.235   7.308
75705W        W79666  18.046  17.567   9.028
75706W        W79667  18.085  14.761   9.778
75707W        W79668  16.530  15.973  10.332
75708W        W79669  16.623  17.312   8.035
75709W        W79670  17.023  16.606  10.775
75710W        W79671  16.697  14.583   9.084
75711W        W79672  15.309  15.486   9.147
75712W        W79673  14.863  16.686   9.921
75713W        W79674  16.722  17.879   8.627
75714W        W79675  17.916  15.476   9.499
75715W        W79676  16.553  17.823  10.266
75716W        W79677  17.896  16.882   7.471
75717W        W79678  16.331  16.365   8.532
75718W        W79679  18.183  14.876  10.273
75719W        W79680  16.332  16.711   9.867
75720W        W79681  16.549  15.597   9.312
75721W        W79682  17.401  15.895   8.150
75722W        W79683  17.688  15.628   7.792
75723W        W79684  17.497  17.668   8.181
75724W        W79685  17.331  17.271   8.977
75725W        W79686  17.227  16.350   7.955
75726W        W79687  16.660  16.560   8.941
75727W        W79688  17.541  16.348   9.008
75728W        W79689  14.916  15.363   9.432
75729W        W79690  17.694  16.415  10.259
75730W        W79691  18.045  18.033   9.405
75731W        W79692  15.975  17.477   8.807
75732W        W79693  16.982  18.010  10.131
75733W        W79694  16.976  15.340   9.895
75734W        W79695  16.183  18.048   9.956
75735W        W79696  17.880  15.002   8.422
75736W        W79697  17.671  16.321   9.723
75737W        W79698  14.654  15.642   9.761
75738W        W79699  17.514  15.437   8.779
75739W        W79700  17.925  15.588  10.556
75740W        W79701  16.810  17.287   8.774
75741W        W79702  16.066  17.878   8.387
75742W        W79703  15.181  15.058   7.645
75743W        W79704  16.285  14.712   9.455
75744W        W79705  15.313  17.832   7.303
75745W        W79706  15.687  16.298   8.054
75746W        W79707  16.341  16.927  10.367
75747W        W79708  16.171  15.285   8.357
75748W        W79709  17.527  14.882   8.785
75749W        W79710  17.247  18.164   9.113
75750W        W79711  16.659  17.812   9.453
75751W        W79712  16.055  16.849   9.414
75752W        W79713  17.825  17.572   9.540
75753W        W79714  15.519  15.075   8.309
75754W        W79715  16.041  17.372   9.269
75755W        W79716  15.524  15.303   7.334
75756W        W79717  16.325  15.912   9.728
75757W        W79718  17.173  14.778   9.598
75758W        W79719  14.593  16.621   9.483
75759W        W79720  16.297  16.439   7.641
75760W        W79721  15.565  14.754   7.411
75761W        W79722  16.303  15.835   8.462
75762W        W79723  17.273  14.811  10.161
75763W        W79724  15.861  16.823  10.270
75764W        W79725  16.665  16.605  10.487
75765W        W79726  17.282  16.635  10.380
75766W        W79727  16.566  14.775  10.885
75767W        W79728  15.788  15.391   9.278
75768W        W79729  15.214  15.347   8.676
75769W        W79730  15.000  18.059   8.352
75770W        W79731  16.332  17.389  10.477
75771W        W79732  15.367  16.874   7.836
75772W        W79733  17.047  16.259   9.057
75773W        W79734  17.327  16.058   9.456
75774W        W79735  16.532  16.732   9.390
75775W        W79736  17.002  17.106   7.522
75776W        W79737  16.674  15.127   8.850
75777W        W79738  18.153  15.405   8.118
75778W        W79739  14.647  17.994  10.149
75779W        W79740  15.064  17.220   9.681
75780W        W79741  14.631  18.066   7.913
75781W        W79742  16.530  15.336   9.719
75782W        W79743  15.893  17.359   7.568
75783W        W79744  17.798  17.741   7.754
75784W        W79745  16.773  16.394   7.768
75785W        W79746  15.616  15.585   8.285
75786W        W79747  16.448  15.495   7.337
75787W        W79748  17.032  17.060  10.515
75788W        W79749  17.385  14.966   8.132
75789W        W79750  14.715  14.814   7.580
75790W        W79751  16.001  17.133   9.870
75791W        W79752  15.800  17.049   8.962
75792W        W79753  15.542  17.001   7.360
75793W        W79754  14.783  17.242   8.128
75794W        W79755  15.287  16.312  10.570
75795W        W79756  15.991  14.872  10.756
75796W        W79757  16.700  15.014  10.112
75797W        W79758  15.895  14.782   8.393
75798W        W79759  16.954  14.859   7.898
75799W        W79760  14.899  14.791   9.475
75800W        W79761  14.947  15.754   8.845
75801W        W79762  17.636  14.862   9.251
75802W        W79763  15.058  15.360   8.065
75803W        W79764  17.629  15.048   9.681
75804W        W79765  18.025  16.251   7.366
75805W        W79766  15.317  15.009   9.185
75806W        W79767  16.431  15.581  10.125
75807W        W79768  14.579  15.271   7.603
75808W        W79769  15.365  16.660  10.164
75809W        W79770  16.723  16.058   9.343
75810W        W79771  16.590  18.137   7.639
75811W        W79772  14.736  16.644   7.336
75812W        W79773  15.471  17.055  10.462
75813W        W79774  14.992  16.222  10.093
75814W        W79775  15.983  16.327   9.887
75815W        W79776  17.751  14.686  10.149
75816W        W79777  18.149  16.296  10.140
75817W        W79778  18.137  16.496   7.826
75818W        W79779  17.000  16.828   7.925
75819W        W79780  17.474  18.128   7.620
75820W        W79781  16.651  16.118  10.762
75821W        W79782  14.981  17.085  10.802
75822W        W79783  18.187  15.007  10.754
75823W        W79784  17.905  15.935   9.375
75824W        W79785  16.213  18.065  10.852
75825W        W79786  16.068  14.694   7.579
75826W        W79787  17.607  17.293   7.522
75827W        W79788  15.376  15.386  10.408
75828W        W79789  15.810  17.380  10.270
75829W        W79790  17.936  15.371  10.068
75830W        W79791  17.147  18.030   8.036
75831W        W79792  17.386  16.649   9.403
75832W        W79793  15.636  15.065  10.070
75833W        W79794  16.105  16.134  10.827
75834W        W79795  15.608  17.313   8.021
75835W        W79796  17.363  16.811   8.285
75836W        W79797  15.131  15.437  10.009
75837W        W79798  16.460  17.499   8.473
75838W        W79799  18.210  16.059   8.654
75839W        W79800  16.432  14.692  10.373
75840W        W79801  17.212  17.397   9.452
75841W        W79802  17.515  17.741   9.160
75842W        W79803  16.734  17.543   7.588
75843W        W79804  14.744  17.435  10.430
75844W        W79805  15.487  15.427   9.668
75845W        W79806  15.457  14.775   8.778
75846W        W79807  17.078  15.617   9.470
75847W        W79808  15.876  16.788   7.670
75848W        W79809  15.201  17.488  10.592
75849W        W79810  17.588  18.170   8.389
75850W        W79811  15.687  15.190   8.834
75851W        W79812  15.456  16.683   8.924
75852W        W79813  15.769  18.094   9.674
75853W        W79814  17.836  18.190  10.706
75854W        W79815  16.995  16.378   9.639
75855W        W79816  14.844  16.176   7.554
75856W        W79817  17.978  17.834   8.251
75857W        W79818  17.815  15.158   7.870
75858W        W79819  15.954  14.677  10.273
75859W        W79820  17.660  17.479   8.731
75860W        W79821  17.689  16.035   8.636
75861W        W79822  15.806  15.708   8.852
75862W        W79823  16.051  15.970  10.176
75863W        W79824  17.162  17.123  10.039
75864W        W79825  15.812  15.577  10.151
75865W        W79826  15.791  18.043   8.767
75866W        W79827  15.108  18.002  10.401
75867W        W79828  15.220  17.363   7.531
75868W        W79829  17.737  17.121   8.341
75869W        W79830  15.341  15.913  10.227
75870W        W79831  18.114  15.843   7.708
75871W        W79832  15.859  16.900   8.179
75872W        W79833  16.958  16.282  10.260
75873W        W79834  16.849  15.910   9.804
75874W        W79835  15.409  16.282   9.833
75875W        W79836  17.619  18.170   9.662
75876W        W79837  17.410  14.804  10.656
75877W        W79838  15.074  14.954  10.243
75878W        W79839  15.413  15.977   9.296
75879W        W79840  15.782  15.791   7.418
75880W        W79841  14.585  17.550   9.963
75881W        W79842  16.170  16.259   9.406
75882W        W79843  15.993  15.284   7.511
75883W        W79844  15.128  16.100   8.292
75884W        W79845  14.899  17.952   9.729
75885W        W79846  17.694  16.178   7.837
75886W        W79847  17.789  15.094  10.523
75887W        W79848  17.225  17.303   8.486
75888W        W79849  14.823  16.227  10.663
75889W        W79850  17.789  14.691   7.959
75890W        W79851  17.309  17.166   7.970
75891W        W79852  16.211  16.224   8.055
75892W        W79853  17.398  15.028   7.578
75893W        W79854  17.463  15.635   9.764
75894W        W79855  15.172  16.228   8.971
75895W        W79856  15.466  17.167   8.620
75896W        W79857  17.229  15.787   8.585
75897W        W79858  16.252  15.166   9.281
75898W        W79859  18.214  17.077   9.792
75899W        W79860  18.132  15.064   9.353
75900W        W79861  14.671  17.894   8.729
75901W        W79862  15.180  17.081   8.265
75902W        W79863  16.214  17.551  10.920
75903W        W79864  17.969  16.519   8.710
75904W        W79865  17.323  16.696   7.590
75905W        W79866  16.618  18.217   9.802
75906W        W79867  17.475  16.939  10.839
75907W        W79868  16.290  14.649   8.119
75908W        W79869  17.003  15.518   8.978
75909W        W79870  14.689  17.105   9.310
75910W        W79871  15.942  15.067   7.951
75911W        W79872  15.746  16.551  10.800
75912W        W79873  16.740  15.532   8.514
75913W        W79874  16.945  16.942   9.636
75914W        W79875  15.099  17.547  10.071
75915W        W79876  15.690  17.530  10.794
75916W        W79877  15.541  15.327   7.808
75917W        W79878  17.058  15.469   8.133
75918W        W79879  17.016  17.577  10.370
75919W        W79880  15.701  16.169   8.969
75920W        W79881  15.356  17.867   9.834
75921W        W79882  18.101  17.984   7.435
75922W        W79883  14.964  16.656  10.431
75923W        W79884  16.959  16.918   9.119
75924W        W79885  15.395  16.567   8.361
75925W        W79886  15.766  17.574   9.756
75926W        W79887  16.144  14.993   8.797
75927W        W79888  14.755  16.977   7.727
75928W        W79889  16.274  15.928   7.597
75929W        W79890  14.920  16.477   8.616
75930W        W79891  16.210  15.119  10.080
75931W        W79892  17.882  14.828   7.507
75932W        W79893  17.975  16.574  10.606
75933W        W79894  16.629  17.831  10.758
75934W        W79895  18.187  16.925  10.280
75935W        W79896  17.595  17.723  10.891
75936W        W79897  15.334  18.179   9.369
75937W        W79898  18.193  16.801   8.243
75938W        W79899  16.723  16.068   8.756
75939W        W79900  16.490  14.680   8.646
75940W        W79901  15.549  17.664   8.483
75941W        W79902  16.048  15.405   9.708
75942W        W79903  15.748  14.774   9.177
75943W        W79904  14.811  17.596   7.725
75944W        W79905  16.627  16.960   8.443
75945W        W79906  15.502  17.755  10.322
75946W        W79907  14.979  16.578   8.018
75947W        W79908  14.864  15.121   9.017
75948W        W79909  16.412  17.086   9.074
75949W        W79910  14.664  14.940   8.094
75950W        W79911  17.328  16.146  10.021
75951W        W79912  17.205  15.532   7.593
75952W        W79913  17.722  17.204   9.241
75953W        W79914  16.383  17.688   9.072
75954W        W79915  15.795  17.792   7.983
75955W        W79916  17.077  14.695   7.413
75956W        W79917  14.877  17.955   9.154
75957W        W79918  17.074  15.713  10.789
75958W        W79919  15.057  15.243  10.788
75959W        W79920  14.788  15.843   8.121
75960W        W79921  15.479  15.832   7.846
75961W        W79922  17.242  16.159  10.663
75962W        W79923  15.585  16.440   9.372
75963W        W79924  17.059  14.726   8.492
75964W        W79925  16.190  18.157   8.995
75965W        W79926  17.404  17.619   9.932
75966W        W79927  16.988  17.768   9.043
75967W        W79928  17.007  16.748   8.637
75968W        W79929  16.469  14.973   7.708
75969W        W79930  18.150  14.601   8.430
75970W        W79931  15.838  16.236   7.593
75971W        W79932  18.004  15.573   8.583
75972W        W79933  16.696  16.743   7.460
75973W        W79934  17.632  16.943  10.208
75974W        W79935  17.286  17.644   7.675
75975W        W79936  15.901  15.319  10.581
75976W        W79937  15.721  15.903   9.822
75977W        W79938  17.813  17.398  10.099
75978W        W79939  16.913  15.348  10.476
75979W        W79940  14.757  15.819  10.253
75980W        W79941  16.517  16.296   9.979
75981W        W79942  14.874  17.054   8.636
75982W        W79943  15.021  16.351   9.526
75983W        W79944  17.338  16.637   9.876
75984W        W79945  17.110  18.017  10.687
75985W        W79946  17.006  15.756  10.240
75986W        W79947  17.283  17.810   8.645
75987W        W79948  16.285  17.530   9.968
75988W        W79949  15.770  17.885   9.237
75989W        W79950  17.575  17.056   9.656
75990W        W79951  16.625  17.128  10.793
75991W        W79952  15.230  17.081   9.132
75992W        W79953  17.576  16.840   8.777
75993W        W79954  17.217  17.906   9.528
75994W        W79955  15.195  17.635   9.398
75995W        W79956  16.216  15.687  10.608
75996W        W79957  16.667  17.853   8.119
75997W        W79958  15.975  17.108  10.757
75998W        W79959  16.101  17.346   8.134
75999W        W79960  15.322  16.086   7.393
76000W        W79961  14.661  18.172  14.292
76001W        W79962  15.037  17.065  13.815
76002W        W79963  17.742  16.795  11.585
76003W        W79964  17.872  17.880  13.612
76004W        W79965  15.790  17.871  11.138
76005W        W79966  15.873  16.023  12.121
76006W        W79967  15.388  15.871  12.285
76007W        W79968  16.379  16.686  11.719
76008W        W79969  16.054  17.778  14.074
76009W        W79970  14.703  15.339  14.037
76010W        W79971  15.465  14.619  13.839
76011W        W79972  17.159  15.007  12.726
76012W        W79973  16.808  15.878  11.296
76013W        W79974  17.378  15.312  14.387
76014W        W79975  14.744  15.104  13.512
76015W        W79976  14.843  17.723  14.533
76016W        W79977  16.365  17.113  11.265
76017W        W79978  14.797  15.896  12.958
76018W        W79979  15.690  15.787  14.195
76019W        W79980  18.149  15.646  12.694
76020W        W79981  17.913  16.689  13.553
76021W        W79982  16.221  16.022  12.580
76022W        W79983  16.767  17.361  12.949
76023W        W79984  15.267  16.795  13.181
76024W        W79985  14.626  16.323  12.752
76025W        W79986  15.662  16.295  13.944
76026W        W79987  17.933  16.078  14.198
76027W        W79988  15.549  17.522  12.643
76028W        W79989  16.670  17.211  13.777
76029W        W79990  15.890  15.851  13.002
76030W        W79991  16.182  16.635  12.645
76031W        W79992  17.179  17.408  14.493
76032W        W79993  16.258  16.728  14.503
76033W        W79994  16.239  16.444  13.981
76034W        W79995  14.648  15.835  14.503
76035W        W79996  17.480  17.370  14.102
76036W        W79997  15.061  14.952  12.100
76037W        W79998  15.588  17.210  13.099
76038W        W79999  18.051  16.993  12.389
76039W        W80000  17.464  15.393  12.956
76040W        W80001  17.749  15.346  11.051
76041W        W80002  18.214  16.147  13.357
76042W        W80003  16.181  17.854  13.110
76043W        W80004  17.955  17.320  11.548
76044W        W80005  15.084  18.106  11.302
76045W        W80006  15.477  18.152  11.978
76046W        W80007  15.274  14.906  13.404
76047W        W80008  17.897  15.924  13.679
76048W        W80009  17.302  16.346  12.138
76049W        W80010  17.268  16.034  11.165
76050W        W80011  16.476  17.178  13.305
76051W        W80012  16.282  15.508  12.504
76052W        W80013  16.882  17.595  13.498
76053W        W80014  17.753  16.386  11.920
76054W        W80015  16.655  15.044  11.936
76055W        W80016  15.312  17.738  11.619
76056W        W80017  14.683  15.237  12.218
76057W        W80018  17.469  15.844  12.692
76058W        W80019  14.927  17.461  12.607
76059W        W80020  16.268  17.811  11.477
76060W        W80021  17.660  15.837  10.941
76061W        W80022  14.683  17.595  13.105
76062W        W80023  15.474  17.167  13.585
76063W        W80024  15.847  16.527  12.204
76064W        W80025  15.869  14.932  13.297
76065W        W80026  18.098  14.694  12.594
76066W        W80027  15.317  16.566  11.062
76067W        W80028  14.972  15.599  11.241
76068W        W80029  15.034  17.555  12.035
76069W        W80030  16.165  17.038  12.283
76070W        W80031  17.497  17.897  13.997
76071W        W80032  16.423  15.539  11.681
76072W        W80033  17.806  17.937  12.453
76073W        W80034  17.483  15.790  14.051
76074W        W80035  18.196  17.446  12.185
76075W        W80036  16.823  16.738  13.669
76076W        W80037  14.589  16.289  11.875
76077W        W80038  15.700  16.704  13.448
76078W        W80039  16.904  15.968  11.826
76079W        W80040  16.781  16.458  11.930
76080W        W80041  15.124  15.878  13.404
76081W        W80042  15.109  15.754  14.326
76082W        W80043  14.999  14.671  12.485
76083W        W80044  16.767  15.018  13.046
76084W        W80045  16.415  15.203  14.209
76085W        W80046  16.770  15.352  11.387
76086W        W80047  17.953  17.745  14.141
76087W        W80048  16.920  14.826  14.180
76088W        W80049  17.939  17.127  14.302
76089W        W80050  17.369  15.294  13.898
76090W        W80051  17.169  15.232  12.168
76091W        W80052  17.562  16.366  14.572
76092W        W80053  15.302  17.942  12.558
76093W        W80054  15.960  15.659  11.544
76094W        W80055  15.529  14.943  14.208
76095W        W80056  17.581  15.427  11.889
76096W        W80057  17.948  15.909  11.834
76097W        W80058  15.691  18.126  14.305
76098W        W80059  15.617  14.662  11.540
76099W        W80060  17.938  15.196  12.575
76100W        W80061  18.088  17.445  11.020
76101W        W80062  14.995  16.648  12.722
76102W        W80063  16.912  15.235  10.952
76103W        W80064  18.046  17.567  12.672
76104W        W80065  18.085  14.761  13.422
76105W        W80066  16.530  15.973  13.976
76106W        W80067  16.623  17.312  11.679
76107W        W80068  17.023  16.606  14.419
76108W        W80069  16.697  14.583  12.728
76109W        W80070  15.309  15.486  12.791
76110W        W80071  14.863  16.686  13.565
76111W        W80072  16.722  17.879  12.271
76112W        W80073  17.916  15.476  13.143
76113W        W80074  16.553  17.823  13.910
76114W        W80075  17.896  16.882  11.115
76115W        W80076  16.331  16.365  12.176
76116W        W80077  18.183  14.876  13.917
76117W        W80078  16.332  16.711  13.511
76118W        W80079  16.549  15.597  12.956
76119W        W80080  17.401  15.895  11.794
76120W        W80081  17.688  15.628  11.436
76121W        W80082  17.497  17.668  11.825
76122W        W80083  17.331  17.271  12.621
76123W        W80084  17.227  16.350  11.599
76124W        W80085  16.660  16.560  12.585
76125W        W80086  17.541  16.348  12.652
76126W        W80087  14.916  15.363  13.076
76127W        W80088  17.694  16.415  13.903
76128W        W80089  18.045  18.033  13.049
76129W        W80090  15.975  17.477  12.451
76130W        W80091  16.982  18.010  13.775
76131W        W80092  16.976  15.340  13.539
76132W        W80093  16.183  18.048  13.600
76133W        W80094  17.880  15.002  12.066
76134W        W80095  17.671  16.321  13.367
76135W        W80096  14.654  15.642  13.405
76136W        W80097  17.514  15.437  12.423
76137W        W80098  17.925  15.588  14.200
76138W        W80099  16.810  17.287  12.418
76139W        W80100  16.066  17.878  12.031
76140W        W80101  15.181  15.058  11.289
76141W        W80102  16.285  14.712  13.099
76142W        W80103  15.313  17.832  10.947
76143W        W80104  15.687  16.298  11.698
76144W        W80105  16.341  16.927  14.011
76145W        W80106  16.171  15.285  12.001
76146W        W80107  17.527  14.882  12.429
76147W        W80108  17.247  18.164  12.757
76148W        W80109  16.659  17.812  13.097
76149W        W80110  16.055  16.849  13.058
76150W        W80111  17.825  17.572  13.184
76151W        W80112  15.519  15.075  11.953
76152W        W80113  16.041  17.372  12.913
76153W        W80114  15.524  15.303  10.978
76154W        W80115  16.325  15.912  13.372
76155W        W80116  17.173  14.778  13.242
76156W        W80117  14.593  16.621  13.127
76157W        W80118  16.297  16.439  11.285
76158W        W80119  15.565  14.754  11.055
76159W        W80120  16.303  15.835  12.106
76160W        W80121  17.273  14.811  13.805
76161W        W80122  15.861  16.823  13.914
76162W        W80123  16.665  16.605  14.131
76163W        W80124  17.282  16.635  14.024
76164W        W80125  16.566  14.775  14.529
76165W        W80126  15.788  15.391  12.922
76166W        W80127  15.214  15.347  12.320
76167W        W80128  15.000  18.059  11.996
76168W        W80129  16.332  17.389  14.121
76169W        W80130  15.367  16.874  11.480
76170W        W80131  17.047  16.259  12.701
76171W        W80132  17.327  16.058  13.100
76172W        W80133  16.532  16.732  13.034
76173W        W80134  17.002  17.106  11.166
76174W        W80135  16.674  15.127  12.494
76175W        W80136  18.153  15.405  11.762
76176W        W80137  14.647  17.994  13.793
76177W        W80138  15.064  17.220  13.325
76178W        W80139  14.631  18.066  11.557
76179W        W80140  16.530  15.336  13.363
76180W        W80141  15.893  17.359  11.212
76181W        W80142  17.798  17.741  11.398
76182W        W80143  16.773  16.394  11.412
76183W        W80144  15.616  15.585  11.929
76184W        W80145  16.448  15.495  10.981
76185W        W80146  17.032  17.060  14.159
76186W        W80147  17.385  14.966  11.776
76187W        W80148  14.715  14.814  11.224
76188W        W80149  16.001  17.133  13.514
76189W        W80150  15.800  17.049  12.606
76190W        W80151  15.542  17.001  11.004
76191W        W80152  14.783  17.242  11.772
76192W        W80153  15.287  16.312  14.214
76193W        W80154  15.991  14.872  14.400
76194W        W80155  16.700  15.014  13.756
76195W        W80156  15.895  14.782  12.037
76196W        W80157  16.954  14.859  11.542
76197W        W80158  14.899  14.791  13.119
76198W        W80159  14.947  15.754  12.489
76199W        W80160  17.636  14.862  12.895
76200W        W80161  15.058  15.360  11.709
76201W        W80162  17.629  15.048  13.325
76202W        W80163  18.025  16.251  11.010
76203W        W80164  15.317  15.009  12.829
76204W        W80165  16.431  15.581  13.769
76205W        W80166  14.579  15.271  11.247
76206W        W80167  15.365  16.660  13.808
76207W        W80168  16.723  16.058  12.987
76208W        W80169  16.590  18.137  11.283
76209W        W80170  14.736  16.644  10.980
76210W        W80171  15.471  17.055  14.106
76211W        W80172  14.992  16.222  13.737
76212W        W80173  15.983  16.327  13.531
76213W        W80174  17.751  14.686  13.793
76214W        W80175  18.149  16.296  13.784
76215W        W80176  18.137  16.496  11.470
76216W        W80177  17.000  16.828  11.569
76217W        W80178  17.474  18.128  11.264
76218W        W80179  16.651  16.118  14.406
76219W        W80180  14.981  17.085  14.446
76220W        W80181  18.187  15.007  14.398
76221W        W80182  17.905  15.935  13.019
76222W        W80183  16.213  18.065  14.496
76223W        W80184  16.068  14.694  11.223
76224W        W80185  17.607  17.293  11.166
76225W        W80186  15.376  15.386  14.052
76226W        W80187  15.810  17.380  13.914
76227W        W80188  17.936  15.371  13.712
76228W        W80189  17.147  18.030  11.680
76229W        W80190  17.386  16.649  13.047
76230W        W80191  15.636  15.065  13.714
76231W        W80192  16.105  16.134  14.471
76232W        W80193  15.608  17.313  11.665
76233W        W80194  17.363  16.811  11.929
76234W        W80195  15.131  15.437  13.653
76235W        W80196  16.460  17.499  12.117
76236W        W80197  18.210  16.059  12.298
76237W        W80198  16.432  14.692  14.017
76238W        W80199  17.212  17.397  13.096
76239W        W80200  17.515  17.741  12.804
76240W        W80201  16.734  17.543  11.232
76241W        W80202  14.744  17.435  14.074
76242W        W80203  15.487  15.427  13.312
76243W        W80204  15.457  14.775  12.422
76244W        W80205  17.078  15.617  13.114
76245W        W80206  15.876  16.788  11.314
76246W        W80207  17.874  16.730  12.813
76247W        W80208  15.201  17.488  14.236
76248W        W80209  17.588  18.170  12.033
76249W        W80210  15.687  15.190  12.478
76250W        W80211  15.456  16.683  12.568
76251W        W80212  15.769  18.094  13.318
76252W        W80213  17.836  18.190  14.350
76253W        W80214  16.995  16.378  13.283
76254W        W80215  14.844  16.176  11.198
76255W        W80216  17.978  17.834  11.895
76256W        W80217  17.815  15.158  11.514
76257W        W80218  15.954  14.677  13.917
76258W        W80219  17.660  17.479  12.375
76259W        W80220  17.689  16.035  12.280
76260W        W80221  15.806  15.708  12.496
76261W        W80222  16.051  15.970  13.820
76262W        W80223  17.162  17.123  13.683
76263W        W80224  15.812  15.577  13.795
76264W        W80225  15.791  18.043  12.411
76265W        W80226  15.108  18.002  14.045
76266W        W80227  15.220  17.363  11.175
76267W        W80228  17.737  17.121  11.985
76268W        W80229  15.341  15.913  13.871
76269W        W80230  18.114  15.843  11.352
76270W        W80231  15.859  16.900  11.823
76271W        W80232  16.958  16.282  13.904
76272W        W80233  16.849  15.910  13.448
76273W        W80234  15.409  16.282  13.477
76274W        W80235  17.619  18.170  13.306
76275W        W80236  17.410  14.804  14.300
76276W        W80237  15.074  14.954  13.887
76277W        W80238  15.413  15.977  12.940
76278W        W80239  15.782  15.791  11.062
76279W        W80240  14.585  17.550  13.607
76280W        W80241  16.170  16.259  13.050
76281W        W80242  15.993  15.284  11.155
76282W        W80243  15.128  16.100  11.936
76283W        W80244  14.899  17.952  13.373
76284W        W80245  17.694  16.178  11.481
76285W        W80246  17.789  15.094  14.167
76286W        W80247  17.225  17.303  12.130
76287W        W80248  14.823  16.227  14.307
76288W        W80249  17.789  14.691  11.603
76289W        W80250  17.309  17.166  11.614
76290W        W80251  16.211  16.224  11.699
76291W        W80252  17.398  15.028  11.222
76292W        W80253  17.463  15.635  13.408
76293W        W80254  15.172  16.228  12.615
76294W        W80255  15.466  17.167  12.264
76295W        W80256  17.229  15.787  12.229
76296W        W80257  16.252  15.166  12.925
76297W        W80258  18.214  17.077  13.436
76298W        W80259  18.132  15.064  12.997
76299W        W80260  14.671  17.894  12.373
76300W        W80261  15.180  17.081  11.909
76301W        W80262  15.095  14.698  14.462
76302W        W80263  16.214  17.551  14.564
76303W        W80264  17.969  16.519  12.354
76304W        W80265  17.323  16.696  11.234
76305W        W80266  16.618  18.217  13.446
76306W        W80267  17.475  16.939  14.483
76307W        W80268  16.290  14.649  11.763
76308W        W80269  17.003  15.518  12.622
76309W        W80270  14.689  17.105  12.954
76310W        W80271  15.942  15.067  11.595
76311W        W80272  15.746  16.551  14.444
76312W        W80273  16.740  15.532  12.158
76313W        W80274  16.945  16.942  13.280
76314W        W80275  15.099  17.547  13.715
76315W        W80276  15.690  17.530  14.438
76316W        W80277  15.541  15.327  11.452
76317W        W80278  17.058  15.469  11.777
76318W        W80279  17.016  17.577  14.014
76319W        W80280  15.701  16.169  12.613
76320W        W80281  15.356  17.867  13.478
76321W        W80282  18.101  17.984  11.079
76322W        W80283  14.964  16.656  14.075
76323W        W80284  16.959  16.918  12.763
76324W        W80285  15.395  16.567  12.005
76325W        W80286  15.766  17.574  13.400
76326W        W80287  16.144  14.993  12.441
76327W        W80288  14.755  16.977  11.371
76328W        W80289  16.274  15.928  11.241
76329W        W80290  14.920  16.477  12.260
76330W        W80291  16.210  15.119  13.724
76331W        W80292  17.882  14.828  11.151
76332W        W80293  17.975  16.574  14.250
76333W        W80294  16.629  17.831  14.402
76334W        W80295  18.187  16.925  13.924
76335W        W80296  17.595  17.723  14.535
76336W        W80297  15.334  18.179  13.013
76337W        W80298  18.193  16.801  11.887
76338W        W80299  16.723  16.068  12.400
76339W        W80300  16.490  14.680  12.290
76340W        W80301  15.549  17.664  12.127
76341W        W80302  16.048  15.405  13.352
76342W        W80303  15.748  14.774  12.821
76343W        W80304  14.811  17.596  11.369
76344W        W80305  16.627  16.960  12.087
76345W        W80306  15.502  17.755  13.966
76346W        W80307  14.979  16.578  11.662
76347W        W80308  14.864  15.121  12.661
76348W        W80309  16.412  17.086  12.718
76349W        W80310  14.664  14.940  11.738
76350W        W80311  17.328  16.146  13.665
76351W        W80312  17.205  15.532  11.237
76352W        W80313  17.722  17.204  12.885
76353W        W80314  16.383  17.688  12.716
76354W        W80315  15.795  17.792  11.627
76355W        W80316  17.077  14.695  11.057
76356W        W80317  14.877  17.955  12.798
76357W        W80318  17.074  15.713  14.433
76358W        W80319  15.057  15.243  14.432
76359W        W80320  14.788  15.843  11.765
76360W        W80321  15.479  15.832  11.490
76361W        W80322  17.242  16.159  14.307
76362W        W80323  15.585  16.440  13.016
76363W        W80324  17.059  14.726  12.136
76364W        W80325  16.190  18.157  12.639
76365W        W80326  17.404  17.619  13.576
76366W        W80327  16.988  17.768  12.687
76367W        W80328  17.007  16.748  12.281
76368W        W80329  16.469  14.973  11.352
76369W        W80330  18.150  14.601  12.074
76370W        W80331  15.838  16.236  11.237
76371W        W80332  18.004  15.573  12.227
76372W        W80333  16.696  16.743  11.104
76373W        W80334  17.632  16.943  13.852
76374W        W80335  17.286  17.644  11.319
76375W        W80336  15.901  15.319  14.225
76376W        W80337  15.721  15.903  13.466
76377W        W80338  17.813  17.398  13.743
76378W        W80339  16.913  15.348  14.120
76379W        W80340  14.757  15.819  13.897
76380W        W80341  16.517  16.296  13.623
76381W        W80342  14.874  17.054  12.280
76382W        W80343  15.021  16.351  13.170
76383W        W80344  17.338  16.637  13.520
76384W        W80345  17.110  18.017  14.331
76385W        W80346  17.006  15.756  13.884
76386W        W80347  17.283  17.810  12.289
76387W        W80348  16.285  17.530  13.612
76388W        W80349  15.770  17.885  12.881
76389W        W80350  17.575  17.056  13.300
76390W        W80351  16.625  17.128  14.437
76391W        W80352  15.230  17.081  12.776
76392W        W80353  17.576  16.840  12.421
76393W        W80354  17.217  17.906  13.172
76394W        W80355  15.195  17.635  13.042
76395W        W80356  16.216  15.687  14.252
76396W        W80357  16.667  17.853  11.763
76397W        W80358  15.975  17.108  14.401
76398W        W80359  16.101  17.346  11.778
76399W        W80360  15.322  16.086  11.037
76400W        W80361  14.661  18.172  17.936
76401W        W80362  15.037  17.065  17.459
76402W        W80363  17.742  16.795  15.229
76403W        W80364  17.872  17.880  17.256
76404W        W80365  15.790  17.871  14.782
76405W        W80366  15.873  16.023  15.765
76406W        W80367  15.388  15.871  15.929
76407W        W80368  16.379  16.686  15.363
76408W        W80369  16.054  17.778  17.718
76409W        W80370  14.703  15.339  17.681
76410W        W80371  15.465  14.619  17.483
76411W        W80372  17.159  15.007  16.370
76412W        W80373  16.808  15.878  14.940
76413W        W80374  17.378  15.312  18.031
76414W        W80375  14.744  15.104  17.156
76415W        W80376  14.843  17.723  18.177
76416W        W80377  16.365  17.113  14.909
76417W        W80378  14.797  15.896  16.602
76418W        W80379  15.690  15.787  17.839
76419W        W80380  18.149  15.646  16.338
76420W        W80381  17.913  16.689  17.197
76421W        W80382  16.221  16.022  16.224
76422W        W80383  16.767  17.361  16.593
76423W        W80384  15.267  16.795  16.825
76424W        W80385  14.626  16.323  16.396
76425W        W80386  15.662  16.295  17.588
76426W        W80387  17.933  16.078  17.842
76427W        W80388  15.549  17.522  16.287
76428W        W80389  16.670  17.211  17.421
76429W        W80390  15.890  15.851  16.646
76430W        W80391  16.182  16.635  16.289
76431W        W80392  17.179  17.408  18.137
76432W        W80393  16.258  16.728  18.147
76433W        W80394  16.239  16.444  17.625
76434W        W80395  14.648  15.835  18.147
76435W        W80396  17.480  17.370  17.746
76436W        W80397  15.061  14.952  15.744
76437W        W80398  15.588  17.210  16.743
76438W        W80399  18.051  16.993  16.033
76439W        W80400  17.464  15.393  16.600
76440W        W80401  17.749  15.346  14.695
76441W        W80402  18.214  16.147  17.001
76442W        W80403  16.181  17.854  16.754
76443W        W80404  17.955  17.320  15.192
76444W        W80405  15.084  18.106  14.946
76445W        W80406  15.477  18.152  15.622
76446W        W80407  15.274  14.906  17.048
76447W        W80408  17.897  15.924  17.323
76448W        W80409  17.302  16.346  15.782
76449W        W80410  17.268  16.034  14.809
76450W        W80411  16.476  17.178  16.949
76451W        W80412  16.282  15.508  16.148
76452W        W80413  16.882  17.595  17.142
76453W        W80414  17.753  16.386  15.564
76454W        W80415  15.312  17.738  15.263
76455W        W80416  14.683  15.237  15.862
76456W        W80417  17.469  15.844  16.336
76457W        W80418  14.927  17.461  16.251
76458W        W80419  16.268  17.811  15.121
76459W        W80420  17.660  15.837  14.585
76460W        W80421  14.683  17.595  16.749
76461W        W80422  15.474  17.167  17.229
76462W        W80423  15.847  16.527  15.848
76463W        W80424  15.869  14.932  16.941
76464W        W80425  18.098  14.694  16.238
76465W        W80426  15.317  16.566  14.706
76466W        W80427  14.972  15.599  14.885
76467W        W80428  15.034  17.555  15.679
76468W        W80429  16.165  17.038  15.927
76469W        W80430  17.497  17.897  17.641
76470W        W80431  16.423  15.539  15.325
76471W        W80432  17.806  17.937  16.097
76472W        W80433  17.483  15.790  17.695
76473W        W80434  18.196  17.446  15.829
76474W        W80435  16.823  16.738  17.313
76475W        W80436  14.589  16.289  15.519
76476W        W80437  15.700  16.704  17.092
76477W        W80438  16.904  15.968  15.470
76478W        W80439  16.781  16.458  15.574
76479W        W80440  15.124  15.878  17.048
76480W        W80441  15.109  15.754  17.970
76481W        W80442  14.999  14.671  16.129
76482W        W80443  16.767  15.018  16.690
76483W        W80444  16.415  15.203  17.853
76484W        W80445  16.770  15.352  15.031
76485W        W80446  17.953  17.745  17.785
76486W        W80447  16.920  14.826  17.824
76487W        W80448  17.939  17.127  17.946
76488W        W80449  17.369  15.294  17.542
76489W        W80450  17.169  15.232  15.812
76490W        W80451  17.562  16.366  18.216
76491W        W80452  15.302  17.942  16.202
76492W        W80453  15.960  15.659  15.188
76493W        W80454  15.529  14.943  17.852
76494W        W80455  17.581  15.427  15.533
76495W        W80456  17.948  15.909  15.478
76496W        W80457  15.691  18.126  17.949
76497W        W80458  15.617  14.662  15.184
76498W        W80459  17.938  15.196  16.219
76499W        W80460  18.088  17.445  14.664
76500W        W80461  14.995  16.648  16.366
76501W        W80462  16.912  15.235  14.596
76502W        W80463  18.046  17.567  16.316
76503W        W80464  18.085  14.761  17.066
76504W        W80465  16.530  15.973  17.620
76505W        W80466  16.623  17.312  15.323
76506W        W80467  17.023  16.606  18.063
76507W        W80468  16.697  14.583  16.372
76508W        W80469  15.309  15.486  16.435
76509W        W80470  14.863  16.686  17.209
76510W        W80471  16.722  17.879  15.915
76511W        W80472  17.916  15.476  16.787
76512W        W80473  16.553  17.823  17.554
76513W        W80474  17.896  16.882  14.759
76514W        W80475  16.331  16.365  15.820
76515W        W80476  18.183  14.876  17.561
76516W        W80477  16.332  16.711  17.155
76517W        W80478  16.549  15.597  16.600
76518W        W80479  17.401  15.895  15.438
76519W        W80480  17.688  15.628  15.080
76520W        W80481  17.497  17.668  15.469
76521W        W80482  17.331  17.271  16.265
76522W        W80483  17.227  16.350  15.243
76523W        W80484  16.660  16.560  16.229
76524W        W80485  17.541  16.348  16.296
76525W        W80486  14.916  15.363  16.720
76526W        W80487  17.694  16.415  17.547
76527W        W80488  18.045  18.033  16.693
76528W        W80489  15.975  17.477  16.095
76529W        W80490  16.982  18.010  17.419
76530W        W80491  16.976  15.340  17.183
76531W        W80492  16.183  18.048  17.244
76532W        W80493  17.880  15.002  15.710
76533W        W80494  17.671  16.321  17.011
76534W        W80495  14.654  15.642  17.049
76535W        W80496  17.514  15.437  16.067
76536W        W80497  17.925  15.588  17.844
76537W        W80498  16.810  17.287  16.062
76538W        W80499  16.066  17.878  15.675
76539W        W80500  15.181  15.058  14.933
76540W        W80501  16.285  14.712  16.743
76541W        W80502  15.313  17.832  14.591
76542W        W80503  15.687  16.298  15.342
76543W        W80504  16.341  16.927  17.655
76544W        W80505  16.171  15.285  15.645
76545W        W80506  17.527  14.882  16.073
76546W        W80507  17.247  18.164  16.401
76547W        W80508  16.659  17.812  16.741
76548W        W80509  16.055  16.849  16.702
76549W        W80510  17.825  17.572  16.828
76550W        W80511  15.519  15.075  15.597
76551W        W80512  16.041  17.372  16.557
76552W        W80513  15.524  15.303  14.622
76553W        W80514  16.325  15.912  17.016
76554W        W80515  17.173  14.778  16.886
76555W        W80516  14.593  16.621  16.771
76556W        W80517  16.297  16.439  14.929
76557W        W80518  15.565  14.754  14.699
76558W        W80519  16.303  15.835  15.750
76559W        W80520  17.273  14.811  17.449
76560W        W80521  15.861  16.823  17.558
76561W        W80522  16.665  16.605  17.775
76562W        W80523  17.282  16.635  17.668
76563W        W80524  16.566  14.775  18.173
76564W        W80525  15.788  15.391  16.566
76565W        W80526  15.214  15.347  15.964
76566W        W80527  15.000  18.059  15.640
76567W        W80528  16.332  17.389  17.765
76568W        W80529  15.367  16.874  15.124
76569W        W80530  17.047  16.259  16.345
76570W        W80531  17.327  16.058  16.744
76571W        W80532  16.532  16.732  16.678
76572W        W80533  17.002  17.106  14.810
76573W        W80534  16.674  15.127  16.138
76574W        W80535  18.153  15.405  15.406
76575W        W80536  14.647  17.994  17.437
76576W        W80537  15.064  17.220  16.969
76577W        W80538  14.631  18.066  15.201
76578W        W80539  16.530  15.336  17.007
76579W        W80540  15.893  17.359  14.856
76580W        W80541  17.798  17.741  15.042
76581W        W80542  16.773  16.394  15.056
76582W        W80543  15.616  15.585  15.573
76583W        W80544  16.448  15.495  14.625
76584W        W80545  17.032  17.060  17.803
76585W        W80546  17.385  14.966  15.420
76586W        W80547  14.715  14.814  14.868
76587W        W80548  16.001  17.133  17.158
76588W        W80549  15.800  17.049  16.250
76589W        W80550  15.542  17.001  14.648
76590W        W80551  14.783  17.242  15.416
76591W        W80552  15.287  16.312  17.858
76592W        W80553  15.991  14.872  18.044
76593W        W80554  16.700  15.014  17.400
76594W        W80555  16.954  14.859  15.186
76595W        W80556  14.899  14.791  16.763
76596W        W80557  14.947  15.754  16.133
76597W        W80558  17.636  14.862  16.539
76598W        W80559  15.058  15.360  15.353
76599W        W80560  17.629  15.048  16.969
76600W        W80561  18.025  16.251  14.654
76601W        W80562  15.317  15.009  16.473
76602W        W80563  16.431  15.581  17.413
76603W        W80564  14.579  15.271  14.891
76604W        W80565  15.365  16.660  17.452
76605W        W80566  16.723  16.058  16.631
76606W        W80567  16.590  18.137  14.927
76607W        W80568  14.736  16.644  14.624
76608W        W80569  15.471  17.055  17.750
76609W        W80570  14.992  16.222  17.381
76610W        W80571  15.983  16.327  17.175
76611W        W80572  17.751  14.686  17.437
76612W        W80573  18.149  16.296  17.428
76613W        W80574  18.137  16.496  15.114
76614W        W80575  17.000  16.828  15.213
76615W        W80576  17.474  18.128  14.908
76616W        W80577  16.651  16.118  18.050
76617W        W80578  14.981  17.085  18.090
76618W        W80579  18.187  15.007  18.042
76619W        W80580  17.905  15.935  16.663
76620W        W80581  16.213  18.065  18.140
76621W        W80582  16.068  14.694  14.867
76622W        W80583  17.607  17.293  14.810
76623W        W80584  15.376  15.386  17.696
76624W        W80585  15.810  17.380  17.558
76625W        W80586  17.936  15.371  17.356
76626W        W80587  17.147  18.030  15.324
76627W        W80588  17.386  16.649  16.691
76628W        W80589  15.636  15.065  17.358
76629W        W80590  16.105  16.134  18.115
76630W        W80591  15.608  17.313  15.309
76631W        W80592  17.363  16.811  15.573
76632W        W80593  15.131  15.437  17.297
76633W        W80594  16.460  17.499  15.761
76634W        W80595  18.210  16.059  15.942
76635W        W80596  16.432  14.692  17.661
76636W        W80597  17.212  17.397  16.740
76637W        W80598  17.515  17.741  16.448
76638W        W80599  16.734  17.543  14.876
76639W        W80600  14.744  17.435  17.718
76640W        W80601  15.487  15.427  16.956
76641W        W80602  15.457  14.775  16.066
76642W        W80603  17.078  15.617  16.758
76643W        W80604  15.876  16.788  14.958
76644W        W80605  17.874  16.730  16.457
76645W        W80606  15.201  17.488  17.880
76646W        W80607  17.588  18.170  15.677
76647W        W80608  15.687  15.190  16.122
76648W        W80609  15.456  16.683  16.212
76649W        W80610  15.769  18.094  16.962
76650W        W80611  17.836  18.190  17.994
76651W        W80612  16.995  16.378  16.927
76652W        W80613  14.844  16.176  14.842
76653W        W80614  17.978  17.834  15.539
76654W        W80615  17.815  15.158  15.158
76655W        W80616  15.954  14.677  17.561
76656W        W80617  17.660  17.479  16.019
76657W        W80618  17.689  16.035  15.924
76658W        W80619  15.806  15.708  16.140
76659W        W80620  16.051  15.970  17.464
76660W        W80621  17.162  17.123  17.327
76661W        W80622  15.812  15.577  17.439
76662W        W80623  15.791  18.043  16.055
76663W        W80624  15.108  18.002  17.689
76664W        W80625  15.220  17.363  14.819
76665W        W80626  17.737  17.121  15.629
76666W        W80627  15.341  15.913  17.515
76667W        W80628  18.114  15.843  14.996
76668W        W80629  15.859  16.900  15.467
76669W        W80630  16.958  16.282  17.548
76670W        W80631  16.849  15.910  17.092
76671W        W80632  15.409  16.282  17.121
76672W        W80633  17.619  18.170  16.950
76673W        W80634  17.410  14.804  17.944
76674W        W80635  15.074  14.954  17.531
76675W        W80636  15.413  15.977  16.584
76676W        W80637  15.782  15.791  14.706
76677W        W80638  14.585  17.550  17.251
76678W        W80639  16.170  16.259  16.694
76679W        W80640  15.993  15.284  14.799
76680W        W80641  15.128  16.100  15.580
76681W        W80642  14.899  17.952  17.017
76682W        W80643  17.694  16.178  15.125
76683W        W80644  17.789  15.094  17.811
76684W        W80645  17.225  17.303  15.774
76685W        W80646  14.823  16.227  17.951
76686W        W80647  17.789  14.691  15.247
76687W        W80648  17.309  17.166  15.258
76688W        W80649  16.211  16.224  15.343
76689W        W80650  17.398  15.028  14.866
76690W        W80651  17.463  15.635  17.052
76691W        W80652  15.172  16.228  16.259
76692W        W80653  15.466  17.167  15.908
76693W        W80654  17.229  15.787  15.873
76694W        W80655  16.252  15.166  16.569
76695W        W80656  18.214  17.077  17.080
76696W        W80657  18.132  15.064  16.641
76697W        W80658  14.671  17.894  16.017
76698W        W80659  15.180  17.081  15.553
76699W        W80660  15.095  14.698  18.106
76700W        W80661  16.214  17.551  18.208
76701W        W80662  17.969  16.519  15.998
76702W        W80663  17.323  16.696  14.878
76703W        W80664  16.618  18.217  17.090
76704W        W80665  17.475  16.939  18.127
76705W        W80666  16.290  14.649  15.407
76706W        W80667  17.003  15.518  16.266
76707W        W80668  14.689  17.105  16.598
76708W        W80669  15.942  15.067  15.239
76709W        W80670  15.746  16.551  18.088
76710W        W80671  16.740  15.532  15.802
76711W        W80672  16.945  16.942  16.924
76712W        W80673  15.099  17.547  17.359
76713W        W80674  15.690  17.530  18.082
76714W        W80675  15.541  15.327  15.096
76715W        W80676  17.016  17.577  17.658
76716W        W80677  15.701  16.169  16.257
76717W        W80678  15.356  17.867  17.122
76718W        W80679  18.101  17.984  14.723
76719W        W80680  14.964  16.656  17.719
76720W        W80681  16.959  16.918  16.407
76721W        W80682  15.395  16.567  15.649
76722W        W80683  15.766  17.574  17.044
76723W        W80684  16.144  14.993  16.085
76724W        W80685  14.755  16.977  15.015
76725W        W80686  16.274  15.928  14.885
76726W        W80687  14.920  16.477  15.904
76727W        W80688  16.210  15.119  17.368
76728W        W80689  17.882  14.828  14.795
76729W        W80690  17.975  16.574  17.894
76730W        W80691  16.629  17.831  18.046
76731W        W80692  18.187  16.925  17.568
76732W        W80693  17.595  17.723  18.179
76733W        W80694  15.334  18.179  16.657
76734W        W80695  18.193  16.801  15.531
76735W        W80696  16.723  16.068  16.044
76736W        W80697  16.490  14.680  15.934
76737W        W80698  15.549  17.664  15.771
76738W        W80699  16.048  15.405  16.996
76739W        W80700  15.748  14.774  16.465
76740W        W80701  14.811  17.596  15.013
76741W        W80702  16.627  16.960  15.731
76742W        W80703  15.502  17.755  17.610
76743W        W80704  14.979  16.578  15.306
76744W        W80705  14.864  15.121  16.305
76745W        W80706  16.412  17.086  16.362
76746W        W80707  14.664  14.940  15.382
76747W        W80708  17.328  16.146  17.309
76748W        W80709  17.205  15.532  14.881
76749W        W80710  17.722  17.204  16.529
76750W        W80711  16.383  17.688  16.360
76751W        W80712  15.795  17.792  15.271
76752W        W80713  17.077  14.695  14.701
76753W        W80714  14.877  17.955  16.442
76754W        W80715  17.074  15.713  18.077
76755W        W80716  15.057  15.243  18.076
76756W        W80717  14.788  15.843  15.409
76757W        W80718  15.479  15.832  15.134
76758W        W80719  17.242  16.159  17.951
76759W        W80720  15.585  16.440  16.660
76760W        W80721  17.059  14.726  15.780
76761W        W80722  16.190  18.157  16.283
76762W        W80723  17.404  17.619  17.220
76763W        W80724  16.988  17.768  16.331
76764W        W80725  17.007  16.748  15.925
76765W        W80726  16.469  14.973  14.996
76766W        W80727  18.150  14.601  15.718
76767W        W80728  15.838  16.236  14.881
76768W        W80729  18.004  15.573  15.871
76769W        W80730  16.696  16.743  14.748
76770W        W80731  17.632  16.943  17.496
76771W        W80732  17.286  17.644  14.963
76772W        W80733  15.901  15.319  17.869
76773W        W80734  15.721  15.903  17.110
76774W        W80735  17.813  17.398  17.387
76775W        W80736  16.913  15.348  17.764
76776W        W80737  14.757  15.819  17.541
76777W        W80738  16.517  16.296  17.267
76778W        W80739  14.874  17.054  15.924
76779W        W80740  15.021  16.351  16.814
76780W        W80741  17.338  16.637  17.164
76781W        W80742  17.110  18.017  17.975
76782W        W80743  17.006  15.756  17.528
76783W        W80744  17.283  17.810  15.933
76784W        W80745  16.285  17.530  17.256
76785W        W80746  15.770  17.885  16.525
76786W        W80747  17.575  17.056  16.944
76787W        W80748  16.625  17.128  18.081
76788W        W80749  15.230  17.081  16.420
76789W        W80750  17.576  16.840  16.065
76790W        W80751  17.217  17.906  16.816
76791W        W80752  15.195  17.635  16.686
76792W        W80753  16.216  15.687  17.896
76793W        W80754  16.667  17.853  15.407
76794W        W80755  15.975  17.108  18.045
76795W        W80756  16.101  17.346  15.422
76796W        W80757  15.322  16.086  14.681
76797W        W80758  14.661  18.172  21.580
76798W        W80759  15.037  17.065  21.103
76799W        W80760  17.742  16.795  18.873
76800W        W80761  17.872  17.880  20.900
76801W        W80762  15.790  17.871  18.426
76802W        W80763  15.873  16.023  19.409
76803W        W80764  15.388  15.871  19.573
76804W        W80765  16.379  16.686  19.007
76805W        W80766  16.054  17.778  21.362
76806W        W80767  14.703  15.339  21.325
76807W        W80768  15.465  14.619  21.127
76808W        W80769  17.159  15.007  20.014
76809W        W80770  16.808  15.878  18.584
76810W        W80771  17.378  15.312  21.675
76811W        W80772  14.744  15.104  20.800
76812W        W80773  14.843  17.723  21.821
76813W        W80774  16.365  17.113  18.553
76814W        W80775  14.797  15.896  20.246
76815W        W80776  15.690  15.787  21.483
76816W        W80777  18.149  15.646  19.982
76817W        W80778  17.913  16.689  20.841
76818W        W80779  16.221  16.022  19.868
76819W        W80780  16.767  17.361  20.237
76820W        W80781  15.267  16.795  20.469
76821W        W80782  14.626  16.323  20.040
76822W        W80783  15.662  16.295  21.232
76823W        W80784  17.933  16.078  21.486
76824W        W80785  15.549  17.522  19.931
76825W        W80786  16.670  17.211  21.065
76826W        W80787  15.890  15.851  20.290
76827W        W80788  16.182  16.635  19.933
76828W        W80789  17.179  17.408  21.781
76829W        W80790  16.258  16.728  21.791
76830W        W80791  16.239  16.444  21.269
76831W        W80792  14.648  15.835  21.791
76832W        W80793  17.480  17.370  21.390
76833W        W80794  15.061  14.952  19.388
76834W        W80795  15.588  17.210  20.387
76835W        W80796  18.051  16.993  19.677
76836W        W80797  17.464  15.393  20.244
76837W        W80798  17.749  15.346  18.339
76838W        W80799  18.214  16.147  20.645
76839W        W80800  16.181  17.854  20.398
76840W        W80801  17.955  17.320  18.836
76841W        W80802  15.477  18.152  19.266
76842W        W80803  15.274  14.906  20.692
76843W        W80804  17.897  15.924  20.967
76844W        W80805  17.302  16.346  19.426
76845W        W80806  17.268  16.034  18.453
76846W        W80807  16.476  17.178  20.593
76847W        W80808  16.282  15.508  19.792
76848W        W80809  16.882  17.595  20.786
76849W        W80810  17.753  16.386  19.208
76850W        W80811  16.655  15.044  19.224
76851W        W80812  15.312  17.738  18.907
76852W        W80813  14.683  15.237  19.506
76853W        W80814  17.469  15.844  19.980
76854W        W80815  14.927  17.461  19.895
76855W        W80816  16.268  17.811  18.765
76856W        W80817  17.660  15.837  18.229
76857W        W80818  14.683  17.595  20.393
76858W        W80819  15.474  17.167  20.873
76859W        W80820  15.847  16.527  19.492
76860W        W80821  15.869  14.932  20.585
76861W        W80822  18.098  14.694  19.882
76862W        W80823  15.317  16.566  18.350
76863W        W80824  14.972  15.599  18.529
76864W        W80825  15.034  17.555  19.323
76865W        W80826  16.165  17.038  19.571
76866W        W80827  17.497  17.897  21.285
76867W        W80828  16.423  15.539  18.969
76868W        W80829  17.806  17.937  19.741
76869W        W80830  17.483  15.790  21.339
76870W        W80831  18.196  17.446  19.473
76871W        W80832  16.823  16.738  20.957
76872W        W80833  14.589  16.289  19.163
76873W        W80834  15.700  16.704  20.736
76874W        W80835  16.904  15.968  19.114
76875W        W80836  16.781  16.458  19.218
76876W        W80837  15.124  15.878  20.692
76877W        W80838  15.109  15.754  21.614
76878W        W80839  14.999  14.671  19.773
76879W        W80840  16.767  15.018  20.334
76880W        W80841  16.415  15.203  21.497
76881W        W80842  16.770  15.352  18.675
76882W        W80843  17.953  17.745  21.429
76883W        W80844  16.920  14.826  21.468
76884W        W80845  17.939  17.127  21.590
76885W        W80846  17.369  15.294  21.186
76886W        W80847  17.169  15.232  19.456
76887W        W80848  17.562  16.366  21.860
76888W        W80849  15.302  17.942  19.846
76889W        W80850  15.960  15.659  18.832
76890W        W80851  15.529  14.943  21.496
76891W        W80852  17.581  15.427  19.177
76892W        W80853  17.948  15.909  19.122
76893W        W80854  15.691  18.126  21.593
76894W        W80855  15.617  14.662  18.828
76895W        W80856  17.938  15.196  19.863
76896W        W80857  18.088  17.445  18.308
76897W        W80858  14.995  16.648  20.010
76898W        W80859  16.912  15.235  18.240
76899W        W80860  18.046  17.567  19.960
76900W        W80861  18.085  14.761  20.710
76901W        W80862  16.530  15.973  21.264
76902W        W80863  16.623  17.312  18.967
76903W        W80864  17.023  16.606  21.707
76904W        W80865  16.697  14.583  20.016
76905W        W80866  15.309  15.486  20.079
76906W        W80867  14.863  16.686  20.853
76907W        W80868  16.722  17.879  19.559
76908W        W80869  17.916  15.476  20.431
76909W        W80870  16.553  17.823  21.198
76910W        W80871  17.896  16.882  18.403
76911W        W80872  16.331  16.365  19.464
76912W        W80873  18.183  14.876  21.205
76913W        W80874  16.332  16.711  20.799
76914W        W80875  16.549  15.597  20.244
76915W        W80876  17.401  15.895  19.082
76916W        W80877  17.688  15.628  18.724
76917W        W80878  17.497  17.668  19.113
76918W        W80879  17.331  17.271  19.909
76919W        W80880  17.227  16.350  18.887
76920W        W80881  16.660  16.560  19.873
76921W        W80882  17.541  16.348  19.940
76922W        W80883  14.916  15.363  20.364
76923W        W80884  17.694  16.415  21.191
76924W        W80885  18.045  18.033  20.337
76925W        W80886  15.975  17.477  19.739
76926W        W80887  16.982  18.010  21.063
76927W        W80888  16.976  15.340  20.827
76928W        W80889  16.183  18.048  20.888
76929W        W80890  17.880  15.002  19.354
76930W        W80891  17.671  16.321  20.655
76931W        W80892  14.654  15.642  20.693
76932W        W80893  17.514  15.437  19.711
76933W        W80894  17.925  15.588  21.488
76934W        W80895  16.810  17.287  19.706
76935W        W80896  16.066  17.878  19.319
76936W        W80897  15.181  15.058  18.577
76937W        W80898  16.285  14.712  20.387
76938W        W80899  15.313  17.832  18.235
76939W        W80900  15.687  16.298  18.986
76940W        W80901  16.341  16.927  21.299
76941W        W80902  16.171  15.285  19.289
76942W        W80903  17.527  14.882  19.717
76943W        W80904  17.247  18.164  20.045
76944W        W80905  16.659  17.812  20.385
76945W        W80906  16.055  16.849  20.346
76946W        W80907  17.825  17.572  20.472
76947W        W80908  15.519  15.075  19.241
76948W        W80909  16.041  17.372  20.201
76949W        W80910  15.524  15.303  18.266
76950W        W80911  16.325  15.912  20.660
76951W        W80912  17.173  14.778  20.530
76952W        W80913  14.593  16.621  20.415
76953W        W80914  16.297  16.439  18.573
76954W        W80915  15.565  14.754  18.343
76955W        W80916  16.303  15.835  19.394
76956W        W80917  17.273  14.811  21.093
76957W        W80918  15.861  16.823  21.202
76958W        W80919  16.665  16.605  21.419
76959W        W80920  17.282  16.635  21.312
76960W        W80921  16.566  14.775  21.817
76961W        W80922  15.788  15.391  20.210
76962W        W80923  15.214  15.347  19.608
76963W        W80924  15.000  18.059  19.284
76964W        W80925  16.332  17.389  21.409
76965W        W80926  15.367  16.874  18.768
76966W        W80927  17.047  16.259  19.989
76967W        W80928  17.327  16.058  20.388
76968W        W80929  16.532  16.732  20.322
76969W        W80930  17.002  17.106  18.454
76970W        W80931  16.674  15.127  19.782
76971W        W80932  18.153  15.405  19.050
76972W        W80933  14.647  17.994  21.081
76973W        W80934  15.064  17.220  20.613
76974W        W80935  14.631  18.066  18.845
76975W        W80936  16.530  15.336  20.651
76976W        W80937  15.893  17.359  18.500
76977W        W80938  17.798  17.741  18.686
76978W        W80939  16.773  16.394  18.700
76979W        W80940  15.616  15.585  19.217
76980W        W80941  16.448  15.495  18.269
76981W        W80942  17.032  17.060  21.447
76982W        W80943  17.385  14.966  19.064
76983W        W80944  14.715  14.814  18.512
76984W        W80945  16.001  17.133  20.802
76985W        W80946  15.800  17.049  19.894
76986W        W80947  15.542  17.001  18.292
76987W        W80948  14.783  17.242  19.060
76988W        W80949  15.287  16.312  21.502
76989W        W80950  15.991  14.872  21.688
76990W        W80951  16.700  15.014  21.044
76991W        W80952  15.895  14.782  19.325
76992W        W80953  16.954  14.859  18.830
76993W        W80954  14.899  14.791  20.407
76994W        W80955  14.947  15.754  19.777
76995W        W80956  17.636  14.862  20.183
76996W        W80957  15.058  15.360  18.997
76997W        W80958  17.629  15.048  20.613
76998W        W80959  18.025  16.251  18.298
76999W        W80960  15.317  15.009  20.117
77000W        W80961  16.431  15.581  21.057
77001W        W80962  14.579  15.271  18.535
77002W        W80963  15.365  16.660  21.096
77003W        W80964  16.723  16.058  20.275
77004W        W80965  16.590  18.137  18.571
77005W        W80966  14.736  16.644  18.268
77006W        W80967  15.471  17.055  21.394
77007W        W80968  14.992  16.222  21.025
77008W        W80969  15.983  16.327  20.819
77009W        W80970  17.751  14.686  21.081
77010W        W80971  18.149  16.296  21.072
77011W        W80972  18.137  16.496  18.758
77012W        W80973  17.000  16.828  18.857
77013W        W80974  17.474  18.128  18.552
77014W        W80975  16.651  16.118  21.694
77015W        W80976  14.981  17.085  21.734
77016W        W80977  18.187  15.007  21.686
77017W        W80978  17.905  15.935  20.307
77018W        W80979  16.213  18.065  21.784
77019W        W80980  16.068  14.694  18.511
77020W        W80981  17.607  17.293  18.454
77021W        W80982  15.376  15.386  21.340
77022W        W80983  15.810  17.380  21.202
77023W        W80984  17.936  15.371  21.000
77024W        W80985  17.147  18.030  18.968
77025W        W80986  17.386  16.649  20.335
77026W        W80987  15.636  15.065  21.002
77027W        W80988  16.105  16.134  21.759
77028W        W80989  15.608  17.313  18.953
77029W        W80990  17.363  16.811  19.217
77030W        W80991  15.131  15.437  20.941
77031W        W80992  16.460  17.499  19.405
77032W        W80993  18.210  16.059  19.586
77033W        W80994  16.432  14.692  21.305
77034W        W80995  17.212  17.397  20.384
77035W        W80996  17.515  17.741  20.092
77036W        W80997  16.734  17.543  18.520
77037W        W80998  14.744  17.435  21.362
77038W        W80999  15.487  15.427  20.600
77039W        W81000  15.457  14.775  19.710
77040W        W81001  17.078  15.617  20.402
77041W        W81002  15.876  16.788  18.602
77042W        W81003  17.874  16.730  20.101
77043W        W81004  15.201  17.488  21.524
77044W        W81005  17.588  18.170  19.321
77045W        W81006  15.687  15.190  19.766
77046W        W81007  15.456  16.683  19.856
77047W        W81008  15.769  18.094  20.606
77048W        W81009  17.836  18.190  21.638
77049W        W81010  16.995  16.378  20.571
77050W        W81011  14.844  16.176  18.486
77051W        W81012  17.978  17.834  19.183
77052W        W81013  17.815  15.158  18.802
77053W        W81014  15.954  14.677  21.205
77054W        W81015  17.660  17.479  19.663
77055W        W81016  17.689  16.035  19.568
77056W        W81017  15.806  15.708  19.784
77057W        W81018  16.051  15.970  21.108
77058W        W81019  17.162  17.123  20.971
77059W        W81020  15.812  15.577  21.083
77060W        W81021  15.791  18.043  19.699
77061W        W81022  15.108  18.002  21.333
77062W        W81023  15.220  17.363  18.463
77063W        W81024  17.737  17.121  19.273
77064W        W81025  15.341  15.913  21.159
77065W        W81026  18.114  15.843  18.640
77066W        W81027  15.859  16.900  19.111
77067W        W81028  16.958  16.282  21.192
77068W        W81029  16.849  15.910  20.736
77069W        W81030  15.409  16.282  20.765
77070W        W81031  17.619  18.170  20.594
77071W        W81032  17.410  14.804  21.588
77072W        W81033  15.074  14.954  21.175
77073W        W81034  15.413  15.977  20.228
77074W        W81035  15.782  15.791  18.350
77075W        W81036  14.585  17.550  20.895
77076W        W81037  16.170  16.259  20.338
77077W        W81038  15.993  15.284  18.443
77078W        W81039  15.128  16.100  19.224
77079W        W81040  14.899  17.952  20.661
77080W        W81041  17.694  16.178  18.769
77081W        W81042  17.789  15.094  21.455
77082W        W81043  17.225  17.303  19.418
77083W        W81044  14.823  16.227  21.595
77084W        W81045  17.789  14.691  18.891
77085W        W81046  17.309  17.166  18.902
77086W        W81047  16.211  16.224  18.987
77087W        W81048  17.398  15.028  18.510
77088W        W81049  17.463  15.635  20.696
77089W        W81050  15.172  16.228  19.903
77090W        W81051  15.466  17.167  19.552
77091W        W81052  17.229  15.787  19.517
77092W        W81053  16.252  15.166  20.213
77093W        W81054  18.214  17.077  20.724
77094W        W81055  18.132  15.064  20.285
77095W        W81056  14.671  17.894  19.661
77096W        W81057  15.180  17.081  19.197
77097W        W81058  15.095  14.698  21.750
77098W        W81059  16.214  17.551  21.852
77099W        W81060  17.969  16.519  19.642
77100W        W81061  17.323  16.696  18.522
77101W        W81062  16.618  18.217  20.734
77102W        W81063  17.475  16.939  21.771
77103W        W81064  16.290  14.649  19.051
77104W        W81065  17.003  15.518  19.910
77105W        W81066  14.689  17.105  20.242
77106W        W81067  15.942  15.067  18.883
77107W        W81068  15.746  16.551  21.732
77108W        W81069  16.740  15.532  19.446
77109W        W81070  16.945  16.942  20.568
77110W        W81071  15.099  17.547  21.003
77111W        W81072  15.690  17.530  21.726
77112W        W81073  15.541  15.327  18.740
77113W        W81074  17.058  15.469  19.065
77114W        W81075  17.016  17.577  21.302
77115W        W81076  15.701  16.169  19.901
77116W        W81077  15.356  17.867  20.766
77117W        W81078  18.101  17.984  18.367
77118W        W81079  14.964  16.656  21.363
77119W        W81080  16.959  16.918  20.051
77120W        W81081  15.395  16.567  19.293
77121W        W81082  15.766  17.574  20.688
77122W        W81083  16.144  14.993  19.729
77123W        W81084  14.755  16.977  18.659
77124W        W81085  16.274  15.928  18.529
77125W        W81086  14.920  16.477  19.548
77126W        W81087  16.210  15.119  21.012
77127W        W81088  17.882  14.828  18.439
77128W        W81089  17.975  16.574  21.538
77129W        W81090  16.629  17.831  21.690
77130W        W81091  18.187  16.925  21.212
77131W        W81092  17.595  17.723  21.823
77132W        W81093  15.334  18.179  20.301
77133W        W81094  18.193  16.801  19.175
77134W        W81095  16.723  16.068  19.688
77135W        W81096  16.490  14.680  19.578
77136W        W81097  15.549  17.664  19.415
77137W        W81098  16.048  15.405  20.640
77138W        W81099  15.748  14.774  20.109
77139W        W81100  14.811  17.596  18.657
77140W        W81101  16.627  16.960  19.375
77141W        W81102  15.502  17.755  21.254
77142W        W81103  14.979  16.578  18.950
77143W        W81104  14.864  15.121  19.949
77144W        W81105  16.412  17.086  20.006
77145W        W81106  14.664  14.940  19.026
77146W        W81107  17.328  16.146  20.953
77147W        W81108  17.205  15.532  18.525
77148W        W81109  17.722  17.204  20.173
77149W        W81110  16.383  17.688  20.004
77150W        W81111  15.795  17.792  18.915
77151W        W81112  17.077  14.695  18.345
77152W        W81113  14.877  17.955  20.086
77153W        W81114  17.074  15.713  21.721
77154W        W81115  15.057  15.243  21.720
77155W        W81116  14.788  15.843  19.053
77156W        W81117  15.479  15.832  18.778
77157W        W81118  17.242  16.159  21.595
77158W        W81119  15.585  16.440  20.304
77159W        W81120  17.059  14.726  19.424
77160W        W81121  16.190  18.157  19.927
77161W        W81122  17.404  17.619  20.864
77162W        W81123  16.988  17.768  19.975
77163W        W81124  17.007  16.748  19.569
77164W        W81125  16.469  14.973  18.640
77165W        W81126  18.150  14.601  19.362
77166W        W81127  15.838  16.236  18.525
77167W        W81128  18.004  15.573  19.515
77168W        W81129  16.696  16.743  18.392
77169W        W81130  17.632  16.943  21.140
77170W        W81131  17.286  17.644  18.607
77171W        W81132  15.901  15.319  21.513
77172W        W81133  15.721  15.903  20.754
77173W        W81134  17.813  17.398  21.031
77174W        W81135  16.913  15.348  21.408
77175W        W81136  14.757  15.819  21.185
77176W        W81137  16.517  16.296  20.911
77177W        W81138  14.874  17.054  19.568
77178W        W81139  15.021  16.351  20.458
77179W        W81140  17.338  16.637  20.808
77180W        W81141  17.110  18.017  21.619
77181W        W81142  17.006  15.756  21.172
77182W        W81143  17.283  17.810  19.577
77183W        W81144  16.285  17.530  20.900
77184W        W81145  15.770  17.885  20.169
77185W        W81146  17.575  17.056  20.588
77186W        W81147  16.625  17.128  21.725
77187W        W81148  15.230  17.081  20.064
77188W        W81149  17.576  16.840  19.709
77189W        W81150  17.217  17.906  20.460
77190W        W81151  15.195  17.635  20.330
77191W        W81152  16.216  15.687  21.540
77192W        W81153  16.667  17.853  19.051
77193W        W81154  15.975  17.108  21.689
77194W        W81155  16.101  17.346  19.066
77195W        W81156  15.322  16.086  18.325
77196W        W81157  17.742  16.795  22.518
77197W        W81158  15.790  17.871  22.071
77198W        W81159  15.873  16.023  23.054
77199W        W81160  15.388  15.871  23.218
77200W        W81161  16.379  16.686  22.652
77201W        W81162  16.808  15.878  22.229
77202W        W81163  16.365  17.113  22.198
77203W        W81164  15.061  14.952  23.033
77204W        W81165  17.749  15.346  21.984
77205W        W81166  17.955  17.320  22.481
77206W        W81167  15.084  18.106  22.235
77207W        W81168  15.477  18.152  22.911
77208W        W81169  17.302  16.346  23.071
77209W        W81170  17.268  16.034  22.098
77210W        W81171  17.753  16.386  22.853
77211W        W81172  16.655  15.044  22.869
77212W        W81173  15.312  17.738  22.552
77213W        W81174  17.660  15.837  21.874
77214W        W81175  15.847  16.527  23.137
77215W        W81176  15.317  16.566  21.995
77216W        W81177  14.972  15.599  22.174
77217W        W81178  15.034  17.555  22.968
77218W        W81179  16.165  17.038  23.216
77219W        W81180  16.423  15.539  22.614
77220W        W81181  14.589  16.289  22.808
77221W        W81182  16.904  15.968  22.759
77222W        W81183  16.781  16.458  22.863
77223W        W81184  16.770  15.352  22.320
77224W        W81185  17.169  15.232  23.101
77225W        W81186  15.960  15.659  22.477
77226W        W81187  17.581  15.427  22.822
77227W        W81188  17.948  15.909  22.767
77228W        W81189  15.617  14.662  22.473
77229W        W81190  18.088  17.445  21.953
77230W        W81191  16.912  15.235  21.885
77231W        W81192  16.623  17.312  22.612
77232W        W81193  16.722  17.879  23.204
77233W        W81194  17.896  16.882  22.048
77234W        W81195  16.331  16.365  23.109
77235W        W81196  17.401  15.895  22.727
77236W        W81197  17.688  15.628  22.369
77237W        W81198  17.497  17.668  22.758
77238W        W81199  17.227  16.350  22.532
77239W        W81200  17.880  15.002  22.999
77240W        W81201  16.066  17.878  22.964
77241W        W81202  15.181  15.058  22.222
77242W        W81203  15.313  17.832  21.880
77243W        W81204  15.687  16.298  22.631
77244W        W81205  16.171  15.285  22.934
77245W        W81206  15.519  15.075  22.886
77246W        W81207  15.524  15.303  21.911
77247W        W81208  16.297  16.439  22.218
77248W        W81209  15.565  14.754  21.988
77249W        W81210  16.303  15.835  23.039
77250W        W81211  15.214  15.347  23.253
77251W        W81212  15.000  18.059  22.929
77252W        W81213  15.367  16.874  22.413
77253W        W81214  17.002  17.106  22.099
77254W        W81215  18.153  15.405  22.695
77255W        W81216  14.631  18.066  22.490
77256W        W81217  15.893  17.359  22.145
77257W        W81218  17.798  17.741  22.331
77258W        W81219  16.773  16.394  22.345
77259W        W81220  15.616  15.585  22.862
77260W        W81221  16.448  15.495  21.914
77261W        W81222  17.385  14.966  22.709
77262W        W81223  14.715  14.814  22.157
77263W        W81224  15.542  17.001  21.937
77264W        W81225  14.783  17.242  22.705
77265W        W81226  15.895  14.782  22.970
77266W        W81227  16.954  14.859  22.475
77267W        W81228  15.058  15.360  22.642
77268W        W81229  18.025  16.251  21.943
77269W        W81230  14.579  15.271  22.180
77270W        W81231  16.590  18.137  22.216
77271W        W81232  14.736  16.644  21.913
77272W        W81233  18.137  16.496  22.403
77273W        W81234  17.000  16.828  22.502
77274W        W81235  17.474  18.128  22.197
77275W        W81236  16.068  14.694  22.156
77276W        W81237  17.607  17.293  22.099
77277W        W81238  17.147  18.030  22.613
77278W        W81239  15.608  17.313  22.598
77279W        W81240  17.363  16.811  22.862
77280W        W81241  16.460  17.499  23.050
77281W        W81242  18.210  16.059  23.231
77282W        W81243  16.734  17.543  22.165
77283W        W81244  15.876  16.788  22.247
77284W        W81245  17.588  18.170  22.966
77285W        W81246  14.844  16.176  22.131
77286W        W81247  17.978  17.834  22.828
77287W        W81248  17.815  15.158  22.447
77288W        W81249  17.689  16.035  23.213
77289W        W81250  15.220  17.363  22.108
77290W        W81251  17.737  17.121  22.918
77291W        W81252  18.114  15.843  22.285
77292W        W81253  15.859  16.900  22.756
77293W        W81254  15.782  15.791  21.995
77294W        W81255  15.993  15.284  22.088
77295W        W81256  15.128  16.100  22.869
77296W        W81257  17.694  16.178  22.414
77297W        W81258  17.225  17.303  23.063
77298W        W81259  17.789  14.691  22.536
77299W        W81260  17.309  17.166  22.547
77300W        W81261  16.211  16.224  22.632
77301W        W81262  17.398  15.028  22.155
77302W        W81263  15.466  17.167  23.197
77303W        W81264  17.229  15.787  23.162
77304W        W81265  14.671  17.894  23.306
77305W        W81266  15.180  17.081  22.842
77306W        W81267  17.969  16.519  23.287
77307W        W81268  17.323  16.696  22.167
77308W        W81269  16.290  14.649  22.696
77309W        W81270  15.942  15.067  22.528
77310W        W81271  16.740  15.532  23.091
77311W        W81272  15.541  15.327  22.385
77312W        W81273  17.058  15.469  22.710
77313W        W81274  14.755  16.977  22.304
77314W        W81275  16.274  15.928  22.174
77315W        W81276  14.920  16.477  23.193
77316W        W81277  17.882  14.828  22.084
77317W        W81278  18.193  16.801  22.820
77318W        W81279  16.490  14.680  23.223
77319W        W81280  15.549  17.664  23.060
77320W        W81281  14.811  17.596  22.302
77321W        W81282  16.627  16.960  23.020
77322W        W81283  14.979  16.578  22.595
77323W        W81284  14.664  14.940  22.671
77324W        W81285  17.205  15.532  22.170
77325W        W81286  15.795  17.792  22.560
77326W        W81287  17.077  14.695  21.990
77327W        W81288  14.788  15.843  22.698
77328W        W81289  15.479  15.832  22.423
77329W        W81290  17.007  16.748  23.214
77330W        W81291  16.469  14.973  22.285
77331W        W81292  18.150  14.601  23.007
77332W        W81293  15.838  16.236  22.170
77333W        W81294  18.004  15.573  23.160
77334W        W81295  16.696  16.743  22.037
77335W        W81296  17.286  17.644  22.252
77336W        W81297  14.874  17.054  23.213
77337W        W81298  17.283  17.810  23.222
77338W        W81299  16.667  17.853  22.696
77339W        W81300  16.101  17.346  22.711
77340W        W81301  15.322  16.086  21.970
77341W        W81302  14.661  21.816   3.359
77342W        W81303  15.037  20.709   2.882
77343W        W81304  17.742  20.439   0.652
77344W        W81305  17.872  21.524   2.679
77345W        W81306  15.790  21.515   0.205
77346W        W81307  15.873  19.667   1.188
77347W        W81308  15.388  19.515   1.352
77348W        W81309  16.379  20.330   0.786
77349W        W81310  16.054  21.422   3.141
77350W        W81311  14.703  18.983   3.104
77351W        W81312  15.465  18.263   2.906
77352W        W81313  17.159  18.651   1.793
77353W        W81314  16.808  19.522   0.363
77354W        W81315  17.378  18.956   3.454
77355W        W81316  14.744  18.748   2.579
77356W        W81317  14.843  21.367   3.600
77357W        W81318  16.365  20.757   0.332
77358W        W81319  14.797  19.540   2.025
77359W        W81320  15.690  19.431   3.262
77360W        W81321  18.149  19.290   1.761
77361W        W81322  17.913  20.333   2.620
77362W        W81323  16.221  19.666   1.647
77363W        W81324  16.767  21.005   2.016
77364W        W81325  15.267  20.439   2.248
77365W        W81326  14.626  19.967   1.819
77366W        W81327  15.662  19.939   3.011
77367W        W81328  17.933  19.722   3.265
77368W        W81329  15.549  21.166   1.710
77369W        W81330  16.670  20.855   2.844
77370W        W81331  15.890  19.495   2.069
77371W        W81332  16.182  20.279   1.712
77372W        W81333  17.179  21.052   3.560
77373W        W81334  16.258  20.372   3.570
77374W        W81335  16.239  20.088   3.048
77375W        W81336  14.648  19.479   3.570
77376W        W81337  17.480  21.014   3.169
77377W        W81338  15.061  18.596   1.167
77378W        W81339  15.588  20.854   2.166
77379W        W81340  18.051  20.637   1.456
77380W        W81341  17.464  19.037   2.023
77381W        W81342  17.749  18.990   0.118
77382W        W81343  18.214  19.791   2.424
77383W        W81344  16.181  21.498   2.177
77384W        W81345  17.955  20.964   0.615
77385W        W81346  15.084  21.750   0.369
77386W        W81347  15.477  21.796   1.045
77387W        W81348  15.274  18.550   2.471
77388W        W81349  17.897  19.568   2.746
77389W        W81350  17.302  19.990   1.205
77390W        W81351  17.268  19.678   0.232
77391W        W81352  16.476  20.822   2.372
77392W        W81353  16.282  19.152   1.571
77393W        W81354  16.882  21.239   2.565
77394W        W81355  17.753  20.030   0.987
77395W        W81356  16.655  18.688   1.003
77396W        W81357  15.312  21.382   0.686
77397W        W81358  14.683  18.881   1.285
77398W        W81359  17.469  19.488   1.759
77399W        W81360  14.927  21.105   1.674
77400W        W81361  16.268  21.455   0.544
77401W        W81362  17.660  19.481   0.008
77402W        W81363  14.683  21.239   2.172
77403W        W81364  15.474  20.811   2.652
77404W        W81365  15.847  20.171   1.271
77405W        W81366  15.869  18.576   2.364
77406W        W81367  18.098  18.338   1.661
77407W        W81368  15.317  20.210   0.129
77408W        W81369  14.972  19.243   0.308
77409W        W81370  15.034  21.199   1.102
77410W        W81371  16.165  20.682   1.350
77411W        W81372  17.497  21.541   3.064
77412W        W81373  16.423  19.183   0.748
77413W        W81374  17.806  21.581   1.520
77414W        W81375  17.483  19.434   3.118
77415W        W81376  18.196  21.090   1.252
77416W        W81377  16.823  20.382   2.736
77417W        W81378  14.589  19.933   0.942
77418W        W81379  15.700  20.348   2.515
77419W        W81380  16.904  19.612   0.893
77420W        W81381  16.781  20.102   0.997
77421W        W81382  15.124  19.522   2.471
77422W        W81383  15.109  19.398   3.393
77423W        W81384  14.999  18.315   1.552
77424W        W81385  16.767  18.662   2.113
77425W        W81386  16.415  18.847   3.276
77426W        W81387  16.770  18.996   0.454
77427W        W81388  17.953  21.389   3.208
77428W        W81389  16.920  18.470   3.247
77429W        W81390  17.939  20.771   3.369
77430W        W81391  17.369  18.938   2.965
77431W        W81392  17.169  18.876   1.235
77432W        W81393  17.562  20.010   3.639
77433W        W81394  15.302  21.586   1.625
77434W        W81395  15.960  19.303   0.611
77435W        W81396  15.529  18.587   3.275
77436W        W81397  17.581  19.071   0.956
77437W        W81398  17.948  19.553   0.901
77438W        W81399  15.691  21.770   3.372
77439W        W81400  15.617  18.306   0.607
77440W        W81401  17.938  18.840   1.642
77441W        W81402  18.088  21.089   0.087
77442W        W81403  14.995  20.292   1.789
77443W        W81404  16.912  18.879   0.019
77444W        W81405  18.046  21.211   1.739
77445W        W81406  18.085  18.405   2.489
77446W        W81407  16.530  19.617   3.043
77447W        W81408  16.623  20.956   0.746
77448W        W81409  17.023  20.250   3.486
77449W        W81410  16.697  18.227   1.795
77450W        W81411  15.309  19.130   1.858
77451W        W81412  14.863  20.330   2.632
77452W        W81413  16.722  21.523   1.338
77453W        W81414  17.916  19.120   2.210
77454W        W81415  16.553  21.467   2.977
77455W        W81416  17.896  20.526   0.182
77456W        W81417  16.331  20.009   1.243
77457W        W81418  18.183  18.520   2.984
77458W        W81419  16.332  20.355   2.578
77459W        W81420  16.549  19.241   2.023
77460W        W81421  17.401  19.539   0.861
77461W        W81422  17.688  19.272   0.503
77462W        W81423  17.497  21.312   0.892
77463W        W81424  17.331  20.915   1.688
77464W        W81425  17.227  19.994   0.666
77465W        W81426  16.660  20.204   1.652
77466W        W81427  17.541  19.992   1.719
77467W        W81428  14.916  19.007   2.143
77468W        W81429  17.694  20.059   2.970
77469W        W81430  18.045  21.677   2.116
77470W        W81431  15.975  21.121   1.518
77471W        W81432  16.982  21.654   2.842
77472W        W81433  16.976  18.984   2.606
77473W        W81434  16.183  21.692   2.667
77474W        W81435  17.880  18.646   1.133
77475W        W81436  17.671  19.965   2.434
77476W        W81437  14.654  19.286   2.472
77477W        W81438  17.514  19.081   1.490
77478W        W81439  17.925  19.232   3.267
77479W        W81440  16.810  20.931   1.485
77480W        W81441  16.066  21.522   1.098
77481W        W81442  15.181  18.702   0.356
77482W        W81443  16.285  18.356   2.166
77483W        W81444  15.313  21.476   0.014
77484W        W81445  15.687  19.942   0.765
77485W        W81446  16.341  20.571   3.078
77486W        W81447  16.171  18.929   1.068
77487W        W81448  17.527  18.526   1.496
77488W        W81449  17.247  21.808   1.824
77489W        W81450  16.659  21.456   2.164
77490W        W81451  16.055  20.493   2.125
77491W        W81452  17.825  21.216   2.251
77492W        W81453  15.519  18.719   1.020
77493W        W81454  16.041  21.016   1.980
77494W        W81455  15.524  18.947   0.045
77495W        W81456  16.325  19.556   2.439
77496W        W81457  17.173  18.422   2.309
77497W        W81458  14.593  20.265   2.194
77498W        W81459  16.297  20.083   0.352
77499W        W81460  15.565  18.398   0.122
77500W        W81461  16.303  19.479   1.173
77501W        W81462  17.273  18.455   2.872
77502W        W81463  15.861  20.467   2.981
77503W        W81464  16.665  20.249   3.198
77504W        W81465  17.282  20.279   3.091
77505W        W81466  16.566  18.419   3.596
77506W        W81467  15.788  19.035   1.989
77507W        W81468  15.214  18.991   1.387
77508W        W81469  15.000  21.703   1.063
77509W        W81470  16.332  21.033   3.188
77510W        W81471  15.367  20.518   0.547
77511W        W81472  17.047  19.903   1.768
77512W        W81473  17.327  19.702   2.167
77513W        W81474  16.532  20.376   2.101
77514W        W81475  17.002  20.750   0.233
77515W        W81476  16.674  18.771   1.561
77516W        W81477  18.153  19.049   0.829
77517W        W81478  14.647  21.638   2.860
77518W        W81479  15.064  20.864   2.392
77519W        W81480  14.631  21.710   0.624
77520W        W81481  16.530  18.980   2.430
77521W        W81482  15.893  21.003   0.279
77522W        W81483  17.798  21.385   0.465
77523W        W81484  16.773  20.038   0.479
77524W        W81485  15.616  19.229   0.996
77525W        W81486  16.448  19.139   0.048
77526W        W81487  17.032  20.704   3.226
77527W        W81488  17.385  18.610   0.843
77528W        W81489  14.715  18.458   0.291
77529W        W81490  16.001  20.777   2.581
77530W        W81491  15.800  20.693   1.673
77531W        W81492  15.542  20.645   0.071
77532W        W81493  14.783  20.886   0.839
77533W        W81494  15.287  19.956   3.281
77534W        W81495  15.991  18.516   3.467
77535W        W81496  16.700  18.658   2.823
77536W        W81497  15.895  18.426   1.104
77537W        W81498  16.954  18.503   0.609
77538W        W81499  14.899  18.435   2.186
77539W        W81500  14.947  19.398   1.556
77540W        W81501  17.636  18.506   1.962
77541W        W81502  15.058  19.004   0.776
77542W        W81503  17.629  18.692   2.392
77543W        W81504  18.025  19.895   0.077
77544W        W81505  15.317  18.653   1.896
77545W        W81506  16.431  19.225   2.836
77546W        W81507  14.579  18.915   0.314
77547W        W81508  15.365  20.304   2.875
77548W        W81509  16.723  19.702   2.054
77549W        W81510  16.590  21.781   0.350
77550W        W81511  15.471  20.699   3.173
77551W        W81512  14.992  19.866   2.804
77552W        W81513  15.983  19.971   2.598
77553W        W81514  17.751  18.330   2.860
77554W        W81515  18.149  19.940   2.851
77555W        W81516  18.137  20.140   0.537
77556W        W81517  17.000  20.472   0.636
77557W        W81518  17.474  21.772   0.331
77558W        W81519  16.651  19.762   3.473
77559W        W81520  14.981  20.729   3.513
77560W        W81521  18.187  18.651   3.465
77561W        W81522  17.905  19.579   2.086
77562W        W81523  16.213  21.709   3.563
77563W        W81524  16.068  18.338   0.290
77564W        W81525  17.607  20.937   0.233
77565W        W81526  15.376  19.030   3.119
77566W        W81527  15.810  21.024   2.981
77567W        W81528  17.936  19.015   2.779
77568W        W81529  17.147  21.674   0.747
77569W        W81530  17.386  20.293   2.114
77570W        W81531  15.636  18.709   2.781
77571W        W81532  16.105  19.778   3.538
77572W        W81533  15.608  20.957   0.732
77573W        W81534  17.363  20.455   0.996
77574W        W81535  15.131  19.081   2.720
77575W        W81536  16.460  21.143   1.184
77576W        W81537  18.210  19.703   1.365
77577W        W81538  16.432  18.336   3.084
77578W        W81539  17.212  21.041   2.163
77579W        W81540  17.515  21.385   1.871
77580W        W81541  16.734  21.187   0.299
77581W        W81542  14.744  21.079   3.141
77582W        W81543  15.487  19.071   2.379
77583W        W81544  15.457  18.419   1.489
77584W        W81545  17.078  19.261   2.181
77585W        W81546  15.876  20.432   0.381
77586W        W81547  17.874  20.374   1.880
77587W        W81548  15.201  21.132   3.303
77588W        W81549  17.588  21.814   1.100
77589W        W81550  15.687  18.834   1.545
77590W        W81551  15.456  20.327   1.635
77591W        W81552  15.769  21.738   2.385
77592W        W81553  17.836  21.834   3.417
77593W        W81554  16.995  20.022   2.350
77594W        W81555  17.978  21.478   0.962
77595W        W81556  17.815  18.802   0.581
77596W        W81557  15.954  18.321   2.984
77597W        W81558  17.660  21.123   1.442
77598W        W81559  17.689  19.679   1.347
77599W        W81560  15.806  19.352   1.563
77600W        W81561  16.051  19.614   2.887
77601W        W81562  17.162  20.767   2.750
77602W        W81563  15.812  19.221   2.862
77603W        W81564  15.791  21.687   1.478
77604W        W81565  15.108  21.646   3.112
77605W        W81566  15.220  21.007   0.242
77606W        W81567  17.737  20.765   1.052
77607W        W81568  15.341  19.557   2.938
77608W        W81569  18.114  19.487   0.419
77609W        W81570  15.859  20.544   0.890
77610W        W81571  16.958  19.926   2.971
77611W        W81572  16.849  19.554   2.515
77612W        W81573  15.409  19.926   2.544
77613W        W81574  17.619  21.814   2.373
77614W        W81575  17.410  18.448   3.367
77615W        W81576  15.074  18.598   2.954
77616W        W81577  15.413  19.621   2.007
77617W        W81578  15.782  19.435   0.129
77618W        W81579  14.585  21.194   2.674
77619W        W81580  16.170  19.903   2.117
77620W        W81581  15.993  18.928   0.222
77621W        W81582  15.128  19.744   1.003
77622W        W81583  14.899  21.596   2.440
77623W        W81584  17.694  19.822   0.548
77624W        W81585  17.789  18.738   3.234
77625W        W81586  17.225  20.947   1.197
77626W        W81587  14.823  19.871   3.374
77627W        W81588  17.789  18.335   0.670
77628W        W81589  17.309  20.810   0.681
77629W        W81590  16.211  19.868   0.766
77630W        W81591  17.398  18.672   0.289
77631W        W81592  17.463  19.279   2.475
77632W        W81593  15.172  19.872   1.682
77633W        W81594  15.466  20.811   1.331
77634W        W81595  17.229  19.431   1.296
77635W        W81596  16.252  18.810   1.992
77636W        W81597  18.214  20.721   2.503
77637W        W81598  18.132  18.708   2.064
77638W        W81599  14.671  21.538   1.440
77639W        W81600  15.180  20.725   0.976
77640W        W81601  15.095  18.342   3.529
77641W        W81602  16.214  21.195   3.631
77642W        W81603  17.969  20.163   1.421
77643W        W81604  17.323  20.340   0.301
77644W        W81605  16.618  21.861   2.513
77645W        W81606  17.475  20.583   3.550
77646W        W81607  16.290  18.293   0.830
77647W        W81608  17.003  19.162   1.689
77648W        W81609  14.689  20.749   2.021
77649W        W81610  15.942  18.711   0.662
77650W        W81611  15.746  20.195   3.511
77651W        W81612  16.740  19.176   1.225
77652W        W81613  16.945  20.586   2.347
77653W        W81614  15.099  21.191   2.782
77654W        W81615  15.690  21.174   3.505
77655W        W81616  15.541  18.971   0.519
77656W        W81617  17.058  19.113   0.844
77657W        W81618  17.016  21.221   3.081
77658W        W81619  15.701  19.813   1.680
77659W        W81620  15.356  21.511   2.545
77660W        W81621  18.101  21.628   0.146
77661W        W81622  14.964  20.300   3.142
77662W        W81623  16.959  20.562   1.830
77663W        W81624  15.395  20.211   1.072
77664W        W81625  15.766  21.218   2.467
77665W        W81626  16.144  18.637   1.508
77666W        W81627  14.755  20.621   0.438
77667W        W81628  16.274  19.572   0.308
77668W        W81629  14.920  20.121   1.327
77669W        W81630  16.210  18.763   2.791
77670W        W81631  17.882  18.472   0.218
77671W        W81632  17.975  20.218   3.317
77672W        W81633  16.629  21.475   3.469
77673W        W81634  18.187  20.569   2.991
77674W        W81635  17.595  21.367   3.602
77675W        W81636  15.334  21.823   2.080
77676W        W81637  18.193  20.445   0.954
77677W        W81638  16.723  19.712   1.467
77678W        W81639  16.490  18.324   1.357
77679W        W81640  15.549  21.308   1.194
77680W        W81641  16.048  19.049   2.419
77681W        W81642  15.748  18.418   1.888
77682W        W81643  14.811  21.240   0.436
77683W        W81644  16.627  20.604   1.154
77684W        W81645  15.502  21.399   3.033
77685W        W81646  14.979  20.222   0.729
77686W        W81647  14.864  18.765   1.728
77687W        W81648  16.412  20.730   1.785
77688W        W81649  14.664  18.584   0.805
77689W        W81650  17.328  19.790   2.732
77690W        W81651  17.205  19.176   0.304
77691W        W81652  17.722  20.848   1.952
77692W        W81653  16.383  21.332   1.783
77693W        W81654  15.795  21.436   0.694
77694W        W81655  17.077  18.339   0.124
77695W        W81656  14.877  21.599   1.865
77696W        W81657  17.074  19.357   3.500
77697W        W81658  15.057  18.887   3.499
77698W        W81659  14.788  19.487   0.832
77699W        W81660  15.479  19.476   0.557
77700W        W81661  17.242  19.803   3.374
77701W        W81662  15.585  20.084   2.083
77702W        W81663  17.059  18.370   1.203
77703W        W81664  16.190  21.801   1.706
77704W        W81665  17.404  21.263   2.643
77705W        W81666  16.988  21.412   1.754
77706W        W81667  17.007  20.392   1.348
77707W        W81668  16.469  18.617   0.419
77708W        W81669  18.150  18.245   1.141
77709W        W81670  15.838  19.880   0.304
77710W        W81671  18.004  19.217   1.294
77711W        W81672  16.696  20.387   0.171
77712W        W81673  17.632  20.587   2.919
77713W        W81674  17.286  21.288   0.386
77714W        W81675  15.901  18.963   3.292
77715W        W81676  15.721  19.547   2.533
77716W        W81677  17.813  21.042   2.810
77717W        W81678  16.913  18.992   3.187
77718W        W81679  14.757  19.463   2.964
77719W        W81680  16.517  19.940   2.690
77720W        W81681  14.874  20.698   1.347
77721W        W81682  15.021  19.995   2.237
77722W        W81683  17.338  20.281   2.587
77723W        W81684  17.110  21.661   3.398
77724W        W81685  17.006  19.400   2.951
77725W        W81686  17.283  21.454   1.356
77726W        W81687  16.285  21.174   2.679
77727W        W81688  15.770  21.529   1.948
77728W        W81689  17.575  20.700   2.367
77729W        W81690  16.625  20.772   3.504
77730W        W81691  15.230  20.725   1.843
77731W        W81692  17.576  20.484   1.488
77732W        W81693  17.217  21.550   2.239
77733W        W81694  15.195  21.279   2.109
77734W        W81695  16.216  19.331   3.319
77735W        W81696  16.667  21.497   0.830
77736W        W81697  15.975  20.752   3.468
77737W        W81698  16.101  20.990   0.845
77738W        W81699  15.322  19.730   0.104
77739W        W81700  14.661  21.816   7.003
77740W        W81701  15.037  20.709   6.526
77741W        W81702  17.742  20.439   4.296
77742W        W81703  17.872  21.524   6.323
77743W        W81704  15.790  21.515   3.849
77744W        W81705  15.873  19.667   4.832
77745W        W81706  15.388  19.515   4.996
77746W        W81707  16.379  20.330   4.430
77747W        W81708  16.054  21.422   6.785
77748W        W81709  14.703  18.983   6.748
77749W        W81710  15.465  18.263   6.550
77750W        W81711  17.159  18.651   5.437
77751W        W81712  16.808  19.522   4.007
77752W        W81713  17.378  18.956   7.098
77753W        W81714  14.744  18.748   6.223
77754W        W81715  14.843  21.367   7.244
77755W        W81716  16.365  20.757   3.976
77756W        W81717  14.797  19.540   5.669
77757W        W81718  15.690  19.431   6.906
77758W        W81719  18.149  19.290   5.405
77759W        W81720  17.913  20.333   6.264
77760W        W81721  16.221  19.666   5.291
77761W        W81722  16.767  21.005   5.660
77762W        W81723  15.267  20.439   5.892
77763W        W81724  14.626  19.967   5.463
77764W        W81725  15.662  19.939   6.655
77765W        W81726  17.933  19.722   6.909
77766W        W81727  15.549  21.166   5.354
77767W        W81728  16.670  20.855   6.488
77768W        W81729  15.890  19.495   5.713
77769W        W81730  16.182  20.279   5.356
77770W        W81731  17.179  21.052   7.204
77771W        W81732  16.258  20.372   7.214
77772W        W81733  16.239  20.088   6.692
77773W        W81734  14.648  19.479   7.214
77774W        W81735  17.480  21.014   6.813
77775W        W81736  15.061  18.596   4.811
77776W        W81737  15.588  20.854   5.810
77777W        W81738  18.051  20.637   5.100
77778W        W81739  17.464  19.037   5.667
77779W        W81740  17.749  18.990   3.762
77780W        W81741  18.214  19.791   6.068
77781W        W81742  16.181  21.498   5.821
77782W        W81743  17.955  20.964   4.259
77783W        W81744  15.084  21.750   4.013
77784W        W81745  15.477  21.796   4.689
77785W        W81746  15.274  18.550   6.115
77786W        W81747  17.897  19.568   6.390
77787W        W81748  17.302  19.990   4.849
77788W        W81749  17.268  19.678   3.876
77789W        W81750  16.476  20.822   6.016
77790W        W81751  16.282  19.152   5.215
77791W        W81752  16.882  21.239   6.209
77792W        W81753  17.753  20.030   4.631
77793W        W81754  16.655  18.688   4.647
77794W        W81755  15.312  21.382   4.330
77795W        W81756  14.683  18.881   4.929
77796W        W81757  17.469  19.488   5.403
77797W        W81758  14.927  21.105   5.318
77798W        W81759  16.268  21.455   4.188
77799W        W81760  17.660  19.481   3.652
77800W        W81761  14.683  21.239   5.816
77801W        W81762  15.474  20.811   6.296
77802W        W81763  15.847  20.171   4.915
77803W        W81764  15.869  18.576   6.008
77804W        W81765  18.098  18.338   5.305
77805W        W81766  15.317  20.210   3.773
77806W        W81767  14.972  19.243   3.952
77807W        W81768  15.034  21.199   4.746
77808W        W81769  16.165  20.682   4.994
77809W        W81770  17.497  21.541   6.708
77810W        W81771  16.423  19.183   4.392
77811W        W81772  17.806  21.581   5.164
77812W        W81773  17.483  19.434   6.762
77813W        W81774  18.196  21.090   4.896
77814W        W81775  16.823  20.382   6.380
77815W        W81776  14.589  19.933   4.586
77816W        W81777  15.700  20.348   6.159
77817W        W81778  16.904  19.612   4.537
77818W        W81779  16.781  20.102   4.641
77819W        W81780  15.124  19.522   6.115
77820W        W81781  15.109  19.398   7.037
77821W        W81782  14.999  18.315   5.196
77822W        W81783  16.767  18.662   5.757
77823W        W81784  16.415  18.847   6.920
77824W        W81785  16.770  18.996   4.098
77825W        W81786  17.953  21.389   6.852
77826W        W81787  16.920  18.470   6.891
77827W        W81788  17.939  20.771   7.013
77828W        W81789  17.369  18.938   6.609
77829W        W81790  17.169  18.876   4.879
77830W        W81791  17.562  20.010   7.283
77831W        W81792  15.302  21.586   5.269
77832W        W81793  15.960  19.303   4.255
77833W        W81794  15.529  18.587   6.919
77834W        W81795  17.581  19.071   4.600
77835W        W81796  17.948  19.553   4.545
77836W        W81797  15.691  21.770   7.016
77837W        W81798  15.617  18.306   4.251
77838W        W81799  17.938  18.840   5.286
77839W        W81800  18.088  21.089   3.731
77840W        W81801  14.995  20.292   5.433
77841W        W81802  16.912  18.879   3.663
77842W        W81803  18.046  21.211   5.383
77843W        W81804  18.085  18.405   6.133
77844W        W81805  16.530  19.617   6.687
77845W        W81806  16.623  20.956   4.390
77846W        W81807  17.023  20.250   7.130
77847W        W81808  16.697  18.227   5.439
77848W        W81809  15.309  19.130   5.502
77849W        W81810  14.863  20.330   6.276
77850W        W81811  16.722  21.523   4.982
77851W        W81812  17.916  19.120   5.854
77852W        W81813  16.553  21.467   6.621
77853W        W81814  17.896  20.526   3.826
77854W        W81815  16.331  20.009   4.887
77855W        W81816  18.183  18.520   6.628
77856W        W81817  16.332  20.355   6.222
77857W        W81818  16.549  19.241   5.667
77858W        W81819  17.401  19.539   4.505
77859W        W81820  17.688  19.272   4.147
77860W        W81821  17.497  21.312   4.536
77861W        W81822  17.331  20.915   5.332
77862W        W81823  17.227  19.994   4.310
77863W        W81824  16.660  20.204   5.296
77864W        W81825  17.541  19.992   5.363
77865W        W81826  14.916  19.007   5.787
77866W        W81827  17.694  20.059   6.614
77867W        W81828  18.045  21.677   5.760
77868W        W81829  15.975  21.121   5.162
77869W        W81830  16.982  21.654   6.486
77870W        W81831  16.976  18.984   6.250
77871W        W81832  16.183  21.692   6.311
77872W        W81833  17.880  18.646   4.777
77873W        W81834  17.671  19.965   6.078
77874W        W81835  14.654  19.286   6.116
77875W        W81836  17.514  19.081   5.134
77876W        W81837  17.925  19.232   6.911
77877W        W81838  16.810  20.931   5.129
77878W        W81839  16.066  21.522   4.742
77879W        W81840  15.181  18.702   4.000
77880W        W81841  16.285  18.356   5.810
77881W        W81842  15.313  21.476   3.658
77882W        W81843  15.687  19.942   4.409
77883W        W81844  16.341  20.571   6.722
77884W        W81845  16.171  18.929   4.712
77885W        W81846  17.527  18.526   5.140
77886W        W81847  17.247  21.808   5.468
77887W        W81848  16.659  21.456   5.808
77888W        W81849  16.055  20.493   5.769
77889W        W81850  17.825  21.216   5.895
77890W        W81851  15.519  18.719   4.664
77891W        W81852  16.041  21.016   5.624
77892W        W81853  15.524  18.947   3.689
77893W        W81854  16.325  19.556   6.083
77894W        W81855  17.173  18.422   5.953
77895W        W81856  14.593  20.265   5.838
77896W        W81857  16.297  20.083   3.996
77897W        W81858  15.565  18.398   3.766
77898W        W81859  16.303  19.479   4.817
77899W        W81860  17.273  18.455   6.516
77900W        W81861  15.861  20.467   6.625
77901W        W81862  16.665  20.249   6.842
77902W        W81863  17.282  20.279   6.735
77903W        W81864  16.566  18.419   7.240
77904W        W81865  15.788  19.035   5.633
77905W        W81866  15.214  18.991   5.031
77906W        W81867  15.000  21.703   4.707
77907W        W81868  16.332  21.033   6.832
77908W        W81869  15.367  20.518   4.191
77909W        W81870  17.047  19.903   5.412
77910W        W81871  17.327  19.702   5.811
77911W        W81872  16.532  20.376   5.745
77912W        W81873  17.002  20.750   3.877
77913W        W81874  16.674  18.771   5.205
77914W        W81875  18.153  19.049   4.473
77915W        W81876  14.647  21.638   6.504
77916W        W81877  15.064  20.864   6.036
77917W        W81878  14.631  21.710   4.268
77918W        W81879  16.530  18.980   6.074
77919W        W81880  15.893  21.003   3.923
77920W        W81881  17.798  21.385   4.109
77921W        W81882  16.773  20.038   4.123
77922W        W81883  15.616  19.229   4.640
77923W        W81884  16.448  19.139   3.692
77924W        W81885  17.032  20.704   6.870
77925W        W81886  17.385  18.610   4.487
77926W        W81887  14.715  18.458   3.935
77927W        W81888  16.001  20.777   6.225
77928W        W81889  15.800  20.693   5.317
77929W        W81890  15.542  20.645   3.715
77930W        W81891  14.783  20.886   4.483
77931W        W81892  15.287  19.956   6.925
77932W        W81893  15.991  18.516   7.111
77933W        W81894  16.700  18.658   6.467
77934W        W81895  15.895  18.426   4.748
77935W        W81896  16.954  18.503   4.253
77936W        W81897  14.899  18.435   5.830
77937W        W81898  14.947  19.398   5.200
77938W        W81899  17.636  18.506   5.606
77939W        W81900  15.058  19.004   4.420
77940W        W81901  17.629  18.692   6.036
77941W        W81902  18.025  19.895   3.721
77942W        W81903  15.317  18.653   5.540
77943W        W81904  16.431  19.225   6.480
77944W        W81905  14.579  18.915   3.958
77945W        W81906  15.365  20.304   6.519
77946W        W81907  16.723  19.702   5.698
77947W        W81908  16.590  21.781   3.994
77948W        W81909  14.736  20.288   3.691
77949W        W81910  15.471  20.699   6.817
77950W        W81911  14.992  19.866   6.448
77951W        W81912  15.983  19.971   6.242
77952W        W81913  17.751  18.330   6.504
77953W        W81914  18.149  19.940   6.495
77954W        W81915  18.137  20.140   4.181
77955W        W81916  17.000  20.472   4.280
77956W        W81917  17.474  21.772   3.975
77957W        W81918  16.651  19.762   7.117
77958W        W81919  14.981  20.729   7.157
77959W        W81920  18.187  18.651   7.109
77960W        W81921  17.905  19.579   5.730
77961W        W81922  16.213  21.709   7.207
77962W        W81923  16.068  18.338   3.934
77963W        W81924  17.607  20.937   3.877
77964W        W81925  15.376  19.030   6.763
77965W        W81926  15.810  21.024   6.625
77966W        W81927  17.936  19.015   6.423
77967W        W81928  17.147  21.674   4.391
77968W        W81929  17.386  20.293   5.758
77969W        W81930  15.636  18.709   6.425
77970W        W81931  16.105  19.778   7.182
77971W        W81932  15.608  20.957   4.376
77972W        W81933  17.363  20.455   4.640
77973W        W81934  15.131  19.081   6.364
77974W        W81935  16.460  21.143   4.828
77975W        W81936  18.210  19.703   5.009
77976W        W81937  16.432  18.336   6.728
77977W        W81938  17.212  21.041   5.807
77978W        W81939  17.515  21.385   5.515
77979W        W81940  16.734  21.187   3.943
77980W        W81941  14.744  21.079   6.785
77981W        W81942  15.487  19.071   6.023
77982W        W81943  15.457  18.419   5.133
77983W        W81944  17.078  19.261   5.825
77984W        W81945  15.876  20.432   4.025
77985W        W81946  17.874  20.374   5.524
77986W        W81947  15.201  21.132   6.947
77987W        W81948  17.588  21.814   4.744
77988W        W81949  15.687  18.834   5.189
77989W        W81950  15.456  20.327   5.279
77990W        W81951  15.769  21.738   6.029
77991W        W81952  17.836  21.834   7.061
77992W        W81953  16.995  20.022   5.994
77993W        W81954  14.844  19.820   3.909
77994W        W81955  17.978  21.478   4.606
77995W        W81956  17.815  18.802   4.225
77996W        W81957  15.954  18.321   6.628
77997W        W81958  17.660  21.123   5.086
77998W        W81959  17.689  19.679   4.991
77999W        W81960  15.806  19.352   5.207
78000W        W81961  16.051  19.614   6.531
78001W        W81962  17.162  20.767   6.394
78002W        W81963  15.812  19.221   6.506
78003W        W81964  15.791  21.687   5.122
78004W        W81965  15.108  21.646   6.756
78005W        W81966  15.220  21.007   3.886
78006W        W81967  17.737  20.765   4.696
78007W        W81968  15.341  19.557   6.582
78008W        W81969  18.114  19.487   4.063
78009W        W81970  15.859  20.544   4.534
78010W        W81971  16.958  19.926   6.615
78011W        W81972  16.849  19.554   6.159
78012W        W81973  15.409  19.926   6.188
78013W        W81974  17.619  21.814   6.017
78014W        W81975  17.410  18.448   7.011
78015W        W81976  15.074  18.598   6.598
78016W        W81977  15.413  19.621   5.651
78017W        W81978  15.782  19.435   3.773
78018W        W81979  14.585  21.194   6.318
78019W        W81980  16.170  19.903   5.761
78020W        W81981  15.993  18.928   3.866
78021W        W81982  15.128  19.744   4.647
78022W        W81983  14.899  21.596   6.084
78023W        W81984  17.694  19.822   4.192
78024W        W81985  17.789  18.738   6.878
78025W        W81986  17.225  20.947   4.841
78026W        W81987  14.823  19.871   7.018
78027W        W81988  17.789  18.335   4.314
78028W        W81989  17.309  20.810   4.325
78029W        W81990  16.211  19.868   4.410
78030W        W81991  17.398  18.672   3.933
78031W        W81992  17.463  19.279   6.119
78032W        W81993  15.172  19.872   5.326
78033W        W81994  15.466  20.811   4.975
78034W        W81995  17.229  19.431   4.940
78035W        W81996  16.252  18.810   5.636
78036W        W81997  18.214  20.721   6.147
78037W        W81998  18.132  18.708   5.708
78038W        W81999  14.671  21.538   5.084
78039W        W82000  15.180  20.725   4.620
78040W        W82001  15.095  18.342   7.173
78041W        W82002  16.214  21.195   7.275
78042W        W82003  17.969  20.163   5.065
78043W        W82004  17.323  20.340   3.945
78044W        W82005  16.618  21.861   6.157
78045W        W82006  17.475  20.583   7.194
78046W        W82007  16.290  18.293   4.474
78047W        W82008  17.003  19.162   5.333
78048W        W82009  14.689  20.749   5.665
78049W        W82010  15.942  18.711   4.306
78050W        W82011  15.746  20.195   7.155
78051W        W82012  16.740  19.176   4.869
78052W        W82013  16.945  20.586   5.991
78053W        W82014  15.099  21.191   6.426
78054W        W82015  15.690  21.174   7.149
78055W        W82016  15.541  18.971   4.163
78056W        W82017  17.058  19.113   4.488
78057W        W82018  17.016  21.221   6.725
78058W        W82019  15.701  19.813   5.324
78059W        W82020  15.356  21.511   6.189
78060W        W82021  18.101  21.628   3.790
78061W        W82022  14.964  20.300   6.786
78062W        W82023  16.959  20.562   5.474
78063W        W82024  15.395  20.211   4.716
78064W        W82025  15.766  21.218   6.111
78065W        W82026  16.144  18.637   5.152
78066W        W82027  14.755  20.621   4.082
78067W        W82028  16.274  19.572   3.952
78068W        W82029  14.920  20.121   4.971
78069W        W82030  16.210  18.763   6.435
78070W        W82031  17.882  18.472   3.862
78071W        W82032  17.975  20.218   6.961
78072W        W82033  16.629  21.475   7.113
78073W        W82034  18.187  20.569   6.635
78074W        W82035  17.595  21.367   7.246
78075W        W82036  15.334  21.823   5.724
78076W        W82037  18.193  20.445   4.598
78077W        W82038  16.723  19.712   5.111
78078W        W82039  16.490  18.324   5.001
78079W        W82040  15.549  21.308   4.838
78080W        W82041  16.048  19.049   6.063
78081W        W82042  15.748  18.418   5.532
78082W        W82043  14.811  21.240   4.080
78083W        W82044  16.627  20.604   4.798
78084W        W82045  15.502  21.399   6.677
78085W        W82046  14.979  20.222   4.373
78086W        W82047  14.864  18.765   5.372
78087W        W82048  16.412  20.730   5.429
78088W        W82049  14.664  18.584   4.449
78089W        W82050  17.328  19.790   6.376
78090W        W82051  17.205  19.176   3.948
78091W        W82052  17.722  20.848   5.596
78092W        W82053  16.383  21.332   5.427
78093W        W82054  15.795  21.436   4.338
78094W        W82055  17.077  18.339   3.768
78095W        W82056  14.877  21.599   5.509
78096W        W82057  17.074  19.357   7.144
78097W        W82058  15.057  18.887   7.143
78098W        W82059  14.788  19.487   4.476
78099W        W82060  15.479  19.476   4.201
78100W        W82061  17.242  19.803   7.018
78101W        W82062  15.585  20.084   5.727
78102W        W82063  17.059  18.370   4.847
78103W        W82064  16.190  21.801   5.350
78104W        W82065  17.404  21.263   6.287
78105W        W82066  16.988  21.412   5.398
78106W        W82067  17.007  20.392   4.992
78107W        W82068  16.469  18.617   4.063
78108W        W82069  18.150  18.245   4.785
78109W        W82070  15.838  19.880   3.948
78110W        W82071  18.004  19.217   4.938
78111W        W82072  16.696  20.387   3.815
78112W        W82073  17.632  20.587   6.563
78113W        W82074  17.286  21.288   4.030
78114W        W82075  15.901  18.963   6.936
78115W        W82076  15.721  19.547   6.177
78116W        W82077  17.813  21.042   6.454
78117W        W82078  16.913  18.992   6.831
78118W        W82079  14.757  19.463   6.608
78119W        W82080  16.517  19.940   6.334
78120W        W82081  14.874  20.698   4.991
78121W        W82082  15.021  19.995   5.881
78122W        W82083  17.338  20.281   6.231
78123W        W82084  17.110  21.661   7.042
78124W        W82085  17.006  19.400   6.595
78125W        W82086  17.283  21.454   5.000
78126W        W82087  16.285  21.174   6.323
78127W        W82088  15.770  21.529   5.592
78128W        W82089  17.575  20.700   6.011
78129W        W82090  16.625  20.772   7.148
78130W        W82091  15.230  20.725   5.487
78131W        W82092  17.576  20.484   5.132
78132W        W82093  17.217  21.550   5.883
78133W        W82094  15.195  21.279   5.753
78134W        W82095  16.216  19.331   6.963
78135W        W82096  16.667  21.497   4.474
78136W        W82097  15.975  20.752   7.112
78137W        W82098  16.101  20.990   4.489
78138W        W82099  15.322  19.730   3.748
78139W        W82100  14.661  21.816  10.648
78140W        W82101  15.037  20.709  10.171
78141W        W82102  17.742  20.439   7.941
78142W        W82103  15.790  21.515   7.494
78143W        W82104  15.873  19.667   8.477
78144W        W82105  15.388  19.515   8.641
78145W        W82106  16.379  20.330   8.075
78146W        W82107  16.054  21.422  10.430
78147W        W82108  14.703  18.983  10.393
78148W        W82109  15.465  18.263  10.195
78149W        W82110  17.159  18.651   9.082
78150W        W82111  16.808  19.522   7.652
78151W        W82112  17.378  18.956  10.743
78152W        W82113  14.744  18.748   9.868
78153W        W82114  14.843  21.367  10.889
78154W        W82115  16.365  20.757   7.621
78155W        W82116  14.797  19.540   9.314
78156W        W82117  15.690  19.431  10.551
78157W        W82118  18.149  19.290   9.050
78158W        W82119  17.913  20.333   9.909
78159W        W82120  16.221  19.666   8.936
78160W        W82121  16.767  21.005   9.305
78161W        W82122  15.267  20.439   9.537
78162W        W82123  14.626  19.967   9.108
78163W        W82124  15.662  19.939  10.300
78164W        W82125  17.933  19.722  10.554
78165W        W82126  15.549  21.166   8.999
78166W        W82127  16.670  20.855  10.133
78167W        W82128  15.890  19.495   9.358
78168W        W82129  16.182  20.279   9.001
78169W        W82130  17.179  21.052  10.849
78170W        W82131  16.258  20.372  10.859
78171W        W82132  16.239  20.088  10.337
78172W        W82133  14.648  19.479  10.859
78173W        W82134  17.480  21.014  10.458
78174W        W82135  15.061  18.596   8.456
78175W        W82136  15.588  20.854   9.455
78176W        W82137  18.051  20.637   8.745
78177W        W82138  17.464  19.037   9.312
78178W        W82139  17.749  18.990   7.407
78179W        W82140  18.214  19.791   9.713
78180W        W82141  16.181  21.498   9.466
78181W        W82142  17.955  20.964   7.904
78182W        W82143  15.084  21.750   7.658
78183W        W82144  15.477  21.796   8.334
78184W        W82145  15.274  18.550   9.760
78185W        W82146  17.897  19.568  10.035
78186W        W82147  17.302  19.990   8.494
78187W        W82148  17.268  19.678   7.521
78188W        W82149  16.476  20.822   9.661
78189W        W82150  16.282  19.152   8.860
78190W        W82151  16.882  21.239   9.854
78191W        W82152  17.753  20.030   8.276
78192W        W82153  16.655  18.688   8.292
78193W        W82154  15.312  21.382   7.975
78194W        W82155  14.683  18.881   8.574
78195W        W82156  17.469  19.488   9.048
78196W        W82157  14.927  21.105   8.963
78197W        W82158  16.268  21.455   7.833
78198W        W82159  17.660  19.481   7.297
78199W        W82160  14.683  21.239   9.461
78200W        W82161  15.474  20.811   9.941
78201W        W82162  15.847  20.171   8.560
78202W        W82163  15.869  18.576   9.653
78203W        W82164  18.098  18.338   8.950
78204W        W82165  15.317  20.210   7.418
78205W        W82166  14.972  19.243   7.597
78206W        W82167  15.034  21.199   8.391
78207W        W82168  16.165  20.682   8.639
78208W        W82169  16.423  19.183   8.037
78209W        W82170  17.806  21.581   8.809
78210W        W82171  17.483  19.434  10.407
78211W        W82172  18.196  21.090   8.541
78212W        W82173  16.823  20.382  10.025
78213W        W82174  14.589  19.933   8.231
78214W        W82175  15.700  20.348   9.804
78215W        W82176  16.904  19.612   8.182
78216W        W82177  16.781  20.102   8.286
78217W        W82178  15.124  19.522   9.760
78218W        W82179  15.109  19.398  10.682
78219W        W82180  14.999  18.315   8.841
78220W        W82181  16.767  18.662   9.402
78221W        W82182  16.415  18.847  10.565
78222W        W82183  16.770  18.996   7.743
78223W        W82184  16.920  18.470  10.536
78224W        W82185  17.939  20.771  10.658
78225W        W82186  17.369  18.938  10.254
78226W        W82187  17.169  18.876   8.524
78227W        W82188  17.562  20.010  10.928
78228W        W82189  15.302  21.586   8.914
78229W        W82190  15.960  19.303   7.900
78230W        W82191  15.529  18.587  10.564
78231W        W82192  17.581  19.071   8.245
78232W        W82193  17.948  19.553   8.190
78233W        W82194  15.691  21.770  10.661
78234W        W82195  15.617  18.306   7.896
78235W        W82196  17.938  18.840   8.931
78236W        W82197  18.088  21.089   7.376
78237W        W82198  14.995  20.292   9.078
78238W        W82199  16.912  18.879   7.308
78239W        W82200  18.046  21.211   9.028
78240W        W82201  18.085  18.405   9.778
78241W        W82202  16.530  19.617  10.332
78242W        W82203  16.623  20.956   8.035
78243W        W82204  17.023  20.250  10.775
78244W        W82205  16.697  18.227   9.084
78245W        W82206  15.309  19.130   9.147
78246W        W82207  14.863  20.330   9.921
78247W        W82208  16.722  21.523   8.627
78248W        W82209  17.916  19.120   9.499
78249W        W82210  16.553  21.467  10.266
78250W        W82211  17.896  20.526   7.471
78251W        W82212  16.331  20.009   8.532
78252W        W82213  18.183  18.520  10.273
78253W        W82214  16.332  20.355   9.867
78254W        W82215  16.549  19.241   9.312
78255W        W82216  17.401  19.539   8.150
78256W        W82217  17.688  19.272   7.792
78257W        W82218  17.497  21.312   8.181
78258W        W82219  17.331  20.915   8.977
78259W        W82220  17.227  19.994   7.955
78260W        W82221  16.660  20.204   8.941
78261W        W82222  17.541  19.992   9.008
78262W        W82223  14.916  19.007   9.432
78263W        W82224  17.694  20.059  10.259
78264W        W82225  18.045  21.677   9.405
78265W        W82226  15.975  21.121   8.807
78266W        W82227  16.982  21.654  10.131
78267W        W82228  16.976  18.984   9.895
78268W        W82229  16.183  21.692   9.956
78269W        W82230  17.880  18.646   8.422
78270W        W82231  17.671  19.965   9.723
78271W        W82232  14.654  19.286   9.761
78272W        W82233  17.514  19.081   8.779
78273W        W82234  17.925  19.232  10.556
78274W        W82235  16.810  20.931   8.774
78275W        W82236  16.066  21.522   8.387
78276W        W82237  15.181  18.702   7.645
78277W        W82238  16.285  18.356   9.455
78278W        W82239  15.313  21.476   7.303
78279W        W82240  15.687  19.942   8.054
78280W        W82241  16.341  20.571  10.367
78281W        W82242  16.171  18.929   8.357
78282W        W82243  17.527  18.526   8.785
78283W        W82244  17.247  21.808   9.113
78284W        W82245  16.659  21.456   9.453
78285W        W82246  16.055  20.493   9.414
78286W        W82247  17.825  21.216   9.540
78287W        W82248  15.519  18.719   8.309
78288W        W82249  16.041  21.016   9.269
78289W        W82250  15.524  18.947   7.334
78290W        W82251  16.325  19.556   9.728
78291W        W82252  17.173  18.422   9.598
78292W        W82253  14.593  20.265   9.483
78293W        W82254  16.297  20.083   7.641
78294W        W82255  15.565  18.398   7.411
78295W        W82256  16.303  19.479   8.462
78296W        W82257  17.273  18.455  10.161
78297W        W82258  15.861  20.467  10.270
78298W        W82259  16.665  20.249  10.487
78299W        W82260  17.282  20.279  10.380
78300W        W82261  16.566  18.419  10.885
78301W        W82262  15.788  19.035   9.278
78302W        W82263  15.214  18.991   8.676
78303W        W82264  15.000  21.703   8.352
78304W        W82265  16.332  21.033  10.477
78305W        W82266  15.367  20.518   7.836
78306W        W82267  17.047  19.903   9.057
78307W        W82268  17.327  19.702   9.456
78308W        W82269  16.532  20.376   9.390
78309W        W82270  17.002  20.750   7.522
78310W        W82271  16.674  18.771   8.850
78311W        W82272  18.153  19.049   8.118
78312W        W82273  14.647  21.638  10.149
78313W        W82274  15.064  20.864   9.681
78314W        W82275  14.631  21.710   7.913
78315W        W82276  16.530  18.980   9.719
78316W        W82277  15.893  21.003   7.568
78317W        W82278  17.798  21.385   7.754
78318W        W82279  16.773  20.038   7.768
78319W        W82280  15.616  19.229   8.285
78320W        W82281  16.448  19.139   7.337
78321W        W82282  17.032  20.704  10.515
78322W        W82283  17.385  18.610   8.132
78323W        W82284  14.715  18.458   7.580
78324W        W82285  16.001  20.777   9.870
78325W        W82286  15.800  20.693   8.962
78326W        W82287  15.542  20.645   7.360
78327W        W82288  14.783  20.886   8.128
78328W        W82289  15.287  19.956  10.570
78329W        W82290  15.991  18.516  10.756
78330W        W82291  16.700  18.658  10.112
78331W        W82292  15.895  18.426   8.393
78332W        W82293  16.954  18.503   7.898
78333W        W82294  14.899  18.435   9.475
78334W        W82295  14.947  19.398   8.845
78335W        W82296  17.636  18.506   9.251
78336W        W82297  15.058  19.004   8.065
78337W        W82298  17.629  18.692   9.681
78338W        W82299  18.025  19.895   7.366
78339W        W82300  15.317  18.653   9.185
78340W        W82301  16.431  19.225  10.125
78341W        W82302  14.579  18.915   7.603
78342W        W82303  15.365  20.304  10.164
78343W        W82304  16.723  19.702   9.343
78344W        W82305  16.590  21.781   7.639
78345W        W82306  14.736  20.288   7.336
78346W        W82307  15.471  20.699  10.462
78347W        W82308  14.992  19.866  10.093
78348W        W82309  15.983  19.971   9.887
78349W        W82310  18.149  19.940  10.140
78350W        W82311  18.137  20.140   7.826
78351W        W82312  17.000  20.472   7.925
78352W        W82313  17.474  21.772   7.620
78353W        W82314  16.651  19.762  10.762
78354W        W82315  14.981  20.729  10.802
78355W        W82316  17.905  19.579   9.375
78356W        W82317  16.213  21.709  10.852
78357W        W82318  16.068  18.338   7.579
78358W        W82319  17.607  20.937   7.522
78359W        W82320  15.376  19.030  10.408
78360W        W82321  15.810  21.024  10.270
78361W        W82322  17.936  19.015  10.068
78362W        W82323  17.147  21.674   8.036
78363W        W82324  17.386  20.293   9.403
78364W        W82325  15.636  18.709  10.070
78365W        W82326  16.105  19.778  10.827
78366W        W82327  15.608  20.957   8.021
78367W        W82328  17.363  20.455   8.285
78368W        W82329  15.131  19.081  10.009
78369W        W82330  16.460  21.143   8.473
78370W        W82331  18.210  19.703   8.654
78371W        W82332  16.432  18.336  10.373
78372W        W82333  17.212  21.041   9.452
78373W        W82334  17.515  21.385   9.160
78374W        W82335  16.734  21.187   7.588
78375W        W82336  14.744  21.079  10.430
78376W        W82337  15.487  19.071   9.668
78377W        W82338  15.457  18.419   8.778
78378W        W82339  17.078  19.261   9.470
78379W        W82340  15.876  20.432   7.670
78380W        W82341  17.874  20.374   9.169
78381W        W82342  15.201  21.132  10.592
78382W        W82343  17.588  21.814   8.389
78383W        W82344  15.687  18.834   8.834
78384W        W82345  15.456  20.327   8.924
78385W        W82346  15.769  21.738   9.674
78386W        W82347  17.836  21.834  10.706
78387W        W82348  16.995  20.022   9.639
78388W        W82349  14.844  19.820   7.554
78389W        W82350  17.978  21.478   8.251
78390W        W82351  17.815  18.802   7.870
78391W        W82352  15.954  18.321  10.273
78392W        W82353  17.660  21.123   8.731
78393W        W82354  17.689  19.679   8.636
78394W        W82355  15.806  19.352   8.852
78395W        W82356  16.051  19.614  10.176
78396W        W82357  17.162  20.767  10.039
78397W        W82358  15.812  19.221  10.151
78398W        W82359  15.791  21.687   8.767
78399W        W82360  15.108  21.646  10.401
78400W        W82361  15.220  21.007   7.531
78401W        W82362  17.737  20.765   8.341
78402W        W82363  15.341  19.557  10.227
78403W        W82364  18.114  19.487   7.708
78404W        W82365  15.859  20.544   8.179
78405W        W82366  16.958  19.926  10.260
78406W        W82367  16.849  19.554   9.804
78407W        W82368  15.409  19.926   9.833
78408W        W82369  17.619  21.814   9.662
78409W        W82370  17.410  18.448  10.656
78410W        W82371  15.074  18.598  10.243
78411W        W82372  15.413  19.621   9.296
78412W        W82373  15.782  19.435   7.418
78413W        W82374  14.585  21.194   9.963
78414W        W82375  16.170  19.903   9.406
78415W        W82376  15.993  18.928   7.511
78416W        W82377  15.128  19.744   8.292
78417W        W82378  14.899  21.596   9.729
78418W        W82379  17.694  19.822   7.837
78419W        W82380  17.225  20.947   8.486
78420W        W82381  14.823  19.871  10.663
78421W        W82382  17.789  18.335   7.959
78422W        W82383  17.309  20.810   7.970
78423W        W82384  16.211  19.868   8.055
78424W        W82385  17.398  18.672   7.578
78425W        W82386  17.463  19.279   9.764
78426W        W82387  15.172  19.872   8.971
78427W        W82388  15.466  20.811   8.620
78428W        W82389  17.229  19.431   8.585
78429W        W82390  16.252  18.810   9.281
78430W        W82391  18.214  20.721   9.792
78431W        W82392  18.132  18.708   9.353
78432W        W82393  14.671  21.538   8.729
78433W        W82394  15.180  20.725   8.265
78434W        W82395  15.095  18.342  10.818
78435W        W82396  16.214  21.195  10.920
78436W        W82397  17.969  20.163   8.710
78437W        W82398  17.323  20.340   7.590
78438W        W82399  16.618  21.861   9.802
78439W        W82400  17.475  20.583  10.839
78440W        W82401  16.290  18.293   8.119
78441W        W82402  17.003  19.162   8.978
78442W        W82403  14.689  20.749   9.310
78443W        W82404  15.942  18.711   7.951
78444W        W82405  15.746  20.195  10.800
78445W        W82406  16.740  19.176   8.514
78446W        W82407  16.945  20.586   9.636
78447W        W82408  15.099  21.191  10.071
78448W        W82409  15.690  21.174  10.794
78449W        W82410  15.541  18.971   7.808
78450W        W82411  17.058  19.113   8.133
78451W        W82412  15.701  19.813   8.969
78452W        W82413  15.356  21.511   9.834
78453W        W82414  18.101  21.628   7.435
78454W        W82415  14.964  20.300  10.431
78455W        W82416  16.959  20.562   9.119
78456W        W82417  15.395  20.211   8.361
78457W        W82418  15.766  21.218   9.756
78458W        W82419  16.144  18.637   8.797
78459W        W82420  14.755  20.621   7.727
78460W        W82421  16.274  19.572   7.597
78461W        W82422  14.920  20.121   8.616
78462W        W82423  16.210  18.763  10.080
78463W        W82424  17.882  18.472   7.507
78464W        W82425  17.975  20.218  10.606
78465W        W82426  16.629  21.475  10.758
78466W        W82427  18.187  20.569  10.280
78467W        W82428  17.595  21.367  10.891
78468W        W82429  15.334  21.823   9.369
78469W        W82430  18.193  20.445   8.243
78470W        W82431  16.723  19.712   8.756
78471W        W82432  16.490  18.324   8.646
78472W        W82433  15.549  21.308   8.483
78473W        W82434  16.048  19.049   9.708
78474W        W82435  15.748  18.418   9.177
78475W        W82436  14.811  21.240   7.725
78476W        W82437  16.627  20.604   8.443
78477W        W82438  15.502  21.399  10.322
78478W        W82439  14.979  20.222   8.018
78479W        W82440  14.864  18.765   9.017
78480W        W82441  16.412  20.730   9.074
78481W        W82442  14.664  18.584   8.094
78482W        W82443  17.328  19.790  10.021
78483W        W82444  17.205  19.176   7.593
78484W        W82445  17.722  20.848   9.241
78485W        W82446  16.383  21.332   9.072
78486W        W82447  15.795  21.436   7.983
78487W        W82448  17.077  18.339   7.413
78488W        W82449  14.877  21.599   9.154
78489W        W82450  17.074  19.357  10.789
78490W        W82451  15.057  18.887  10.788
78491W        W82452  14.788  19.487   8.121
78492W        W82453  15.479  19.476   7.846
78493W        W82454  17.242  19.803  10.663
78494W        W82455  15.585  20.084   9.372
78495W        W82456  17.059  18.370   8.492
78496W        W82457  16.190  21.801   8.995
78497W        W82458  17.404  21.263   9.932
78498W        W82459  16.988  21.412   9.043
78499W        W82460  17.007  20.392   8.637
78500W        W82461  16.469  18.617   7.708
78501W        W82462  18.150  18.245   8.430
78502W        W82463  15.838  19.880   7.593
78503W        W82464  18.004  19.217   8.583
78504W        W82465  16.696  20.387   7.460
78505W        W82466  17.632  20.587  10.208
78506W        W82467  17.286  21.288   7.675
78507W        W82468  15.901  18.963  10.581
78508W        W82469  15.721  19.547   9.822
78509W        W82470  17.813  21.042  10.099
78510W        W82471  16.913  18.992  10.476
78511W        W82472  14.757  19.463  10.253
78512W        W82473  16.517  19.940   9.979
78513W        W82474  14.874  20.698   8.636
78514W        W82475  15.021  19.995   9.526
78515W        W82476  17.338  20.281   9.876
78516W        W82477  17.110  21.661  10.687
78517W        W82478  17.006  19.400  10.240
78518W        W82479  17.283  21.454   8.645
78519W        W82480  16.285  21.174   9.968
78520W        W82481  15.770  21.529   9.237
78521W        W82482  17.575  20.700   9.656
78522W        W82483  16.625  20.772  10.793
78523W        W82484  15.230  20.725   9.132
78524W        W82485  17.576  20.484   8.777
78525W        W82486  17.217  21.550   9.528
78526W        W82487  15.195  21.279   9.398
78527W        W82488  16.216  19.331  10.608
78528W        W82489  16.667  21.497   8.119
78529W        W82490  15.975  20.752  10.757
78530W        W82491  16.101  20.990   8.134
78531W        W82492  15.322  19.730   7.393
78532W        W82493  14.661  21.816  14.292
78533W        W82494  15.037  20.709  13.815
78534W        W82495  17.742  20.439  11.585
78535W        W82496  17.872  21.524  13.612
78536W        W82497  15.790  21.515  11.138
78537W        W82498  15.873  19.667  12.121
78538W        W82499  15.388  19.515  12.285
78539W        W82500  16.379  20.330  11.719
78540W        W82501  16.054  21.422  14.074
78541W        W82502  14.703  18.983  14.037
78542W        W82503  15.465  18.263  13.839
78543W        W82504  17.159  18.651  12.726
78544W        W82505  16.808  19.522  11.296
78545W        W82506  17.378  18.956  14.387
78546W        W82507  14.744  18.748  13.512
78547W        W82508  14.843  21.367  14.533
78548W        W82509  16.365  20.757  11.265
78549W        W82510  14.797  19.540  12.958
78550W        W82511  15.690  19.431  14.195
78551W        W82512  18.149  19.290  12.694
78552W        W82513  17.913  20.333  13.553
78553W        W82514  16.221  19.666  12.580
78554W        W82515  16.767  21.005  12.949
78555W        W82516  15.267  20.439  13.181
78556W        W82517  14.626  19.967  12.752
78557W        W82518  15.662  19.939  13.944
78558W        W82519  17.933  19.722  14.198
78559W        W82520  15.549  21.166  12.643
78560W        W82521  16.670  20.855  13.777
78561W        W82522  15.890  19.495  13.002
78562W        W82523  16.182  20.279  12.645
78563W        W82524  17.179  21.052  14.493
78564W        W82525  16.258  20.372  14.503
78565W        W82526  16.239  20.088  13.981
78566W        W82527  14.648  19.479  14.503
78567W        W82528  17.480  21.014  14.102
78568W        W82529  15.061  18.596  12.100
78569W        W82530  15.588  20.854  13.099
78570W        W82531  18.051  20.637  12.389
78571W        W82532  17.464  19.037  12.956
78572W        W82533  17.749  18.990  11.051
78573W        W82534  18.214  19.791  13.357
78574W        W82535  16.181  21.498  13.110
78575W        W82536  17.955  20.964  11.548
78576W        W82537  15.084  21.750  11.302
78577W        W82538  15.477  21.796  11.978
78578W        W82539  15.274  18.550  13.404
78579W        W82540  17.897  19.568  13.679
78580W        W82541  17.302  19.990  12.138
78581W        W82542  17.268  19.678  11.165
78582W        W82543  16.476  20.822  13.305
78583W        W82544  16.282  19.152  12.504
78584W        W82545  16.882  21.239  13.498
78585W        W82546  17.753  20.030  11.920
78586W        W82547  16.655  18.688  11.936
78587W        W82548  15.312  21.382  11.619
78588W        W82549  14.683  18.881  12.218
78589W        W82550  17.469  19.488  12.692
78590W        W82551  14.927  21.105  12.607
78591W        W82552  16.268  21.455  11.477
78592W        W82553  17.660  19.481  10.941
78593W        W82554  14.683  21.239  13.105
78594W        W82555  15.474  20.811  13.585
78595W        W82556  15.847  20.171  12.204
78596W        W82557  15.869  18.576  13.297
78597W        W82558  18.098  18.338  12.594
78598W        W82559  15.317  20.210  11.062
78599W        W82560  14.972  19.243  11.241
78600W        W82561  15.034  21.199  12.035
78601W        W82562  16.165  20.682  12.283
78602W        W82563  17.497  21.541  13.997
78603W        W82564  16.423  19.183  11.681
78604W        W82565  17.806  21.581  12.453
78605W        W82566  17.483  19.434  14.051
78606W        W82567  18.196  21.090  12.185
78607W        W82568  16.823  20.382  13.669
78608W        W82569  14.589  19.933  11.875
78609W        W82570  15.700  20.348  13.448
78610W        W82571  16.904  19.612  11.826
78611W        W82572  16.781  20.102  11.930
78612W        W82573  15.124  19.522  13.404
78613W        W82574  15.109  19.398  14.326
78614W        W82575  14.999  18.315  12.485
78615W        W82576  16.767  18.662  13.046
78616W        W82577  16.415  18.847  14.209
78617W        W82578  16.770  18.996  11.387
78618W        W82579  17.953  21.389  14.141
78619W        W82580  16.920  18.470  14.180
78620W        W82581  17.939  20.771  14.302
78621W        W82582  17.369  18.938  13.898
78622W        W82583  17.562  20.010  14.572
78623W        W82584  15.302  21.586  12.558
78624W        W82585  15.960  19.303  11.544
78625W        W82586  15.529  18.587  14.208
78626W        W82587  17.581  19.071  11.889
78627W        W82588  17.948  19.553  11.834
78628W        W82589  15.691  21.770  14.305
78629W        W82590  15.617  18.306  11.540
78630W        W82591  17.938  18.840  12.575
78631W        W82592  14.995  20.292  12.722
78632W        W82593  16.912  18.879  10.952
78633W        W82594  18.046  21.211  12.672
78634W        W82595  18.085  18.405  13.422
78635W        W82596  16.530  19.617  13.976
78636W        W82597  16.623  20.956  11.679
78637W        W82598  17.023  20.250  14.419
78638W        W82599  16.697  18.227  12.728
78639W        W82600  15.309  19.130  12.791
78640W        W82601  14.863  20.330  13.565
78641W        W82602  16.722  21.523  12.271
78642W        W82603  17.916  19.120  13.143
78643W        W82604  16.553  21.467  13.910
78644W        W82605  17.896  20.526  11.115
78645W        W82606  16.331  20.009  12.176
78646W        W82607  18.183  18.520  13.917
78647W        W82608  16.332  20.355  13.511
78648W        W82609  16.549  19.241  12.956
78649W        W82610  17.401  19.539  11.794
78650W        W82611  17.688  19.272  11.436
78651W        W82612  17.497  21.312  11.825
78652W        W82613  17.331  20.915  12.621
78653W        W82614  17.227  19.994  11.599
78654W        W82615  16.660  20.204  12.585
78655W        W82616  17.541  19.992  12.652
78656W        W82617  14.916  19.007  13.076
78657W        W82618  17.694  20.059  13.903
78658W        W82619  18.045  21.677  13.049
78659W        W82620  15.975  21.121  12.451
78660W        W82621  16.982  21.654  13.775
78661W        W82622  16.976  18.984  13.539
78662W        W82623  16.183  21.692  13.600
78663W        W82624  17.671  19.965  13.367
78664W        W82625  14.654  19.286  13.405
78665W        W82626  17.514  19.081  12.423
78666W        W82627  17.925  19.232  14.200
78667W        W82628  16.810  20.931  12.418
78668W        W82629  16.066  21.522  12.031
78669W        W82630  15.181  18.702  11.289
78670W        W82631  16.285  18.356  13.099
78671W        W82632  15.313  21.476  10.947
78672W        W82633  15.687  19.942  11.698
78673W        W82634  16.341  20.571  14.011
78674W        W82635  16.171  18.929  12.001
78675W        W82636  17.527  18.526  12.429
78676W        W82637  17.247  21.808  12.757
78677W        W82638  16.659  21.456  13.097
78678W        W82639  16.055  20.493  13.058
78679W        W82640  17.825  21.216  13.184
78680W        W82641  15.519  18.719  11.953
78681W        W82642  16.041  21.016  12.913
78682W        W82643  15.524  18.947  10.978
78683W        W82644  16.325  19.556  13.372
78684W        W82645  17.173  18.422  13.242
78685W        W82646  14.593  20.265  13.127
78686W        W82647  16.297  20.083  11.285
78687W        W82648  15.565  18.398  11.055
78688W        W82649  16.303  19.479  12.106
78689W        W82650  17.273  18.455  13.805
78690W        W82651  15.861  20.467  13.914
78691W        W82652  16.665  20.249  14.131
78692W        W82653  17.282  20.279  14.024
78693W        W82654  16.566  18.419  14.529
78694W        W82655  15.788  19.035  12.922
78695W        W82656  15.214  18.991  12.320
78696W        W82657  15.000  21.703  11.996
78697W        W82658  16.332  21.033  14.121
78698W        W82659  15.367  20.518  11.480
78699W        W82660  17.327  19.702  13.100
78700W        W82661  16.532  20.376  13.034
78701W        W82662  17.002  20.750  11.166
78702W        W82663  16.674  18.771  12.494
78703W        W82664  18.153  19.049  11.762
78704W        W82665  14.647  21.638  13.793
78705W        W82666  15.064  20.864  13.325
78706W        W82667  14.631  21.710  11.557
78707W        W82668  16.530  18.980  13.363
78708W        W82669  15.893  21.003  11.212
78709W        W82670  17.798  21.385  11.398
78710W        W82671  16.773  20.038  11.412
78711W        W82672  15.616  19.229  11.929
78712W        W82673  16.448  19.139  10.981
78713W        W82674  17.032  20.704  14.159
78714W        W82675  17.385  18.610  11.776
78715W        W82676  14.715  18.458  11.224
78716W        W82677  16.001  20.777  13.514
78717W        W82678  15.800  20.693  12.606
78718W        W82679  15.542  20.645  11.004
78719W        W82680  14.783  20.886  11.772
78720W        W82681  15.287  19.956  14.214
78721W        W82682  15.991  18.516  14.400
78722W        W82683  16.700  18.658  13.756
78723W        W82684  15.895  18.426  12.037
78724W        W82685  16.954  18.503  11.542
78725W        W82686  14.899  18.435  13.119
78726W        W82687  14.947  19.398  12.489
78727W        W82688  17.636  18.506  12.895
78728W        W82689  15.058  19.004  11.709
78729W        W82690  17.629  18.692  13.325
78730W        W82691  18.025  19.895  11.010
78731W        W82692  15.317  18.653  12.829
78732W        W82693  16.431  19.225  13.769
78733W        W82694  14.579  18.915  11.247
78734W        W82695  15.365  20.304  13.808
78735W        W82696  16.723  19.702  12.987
78736W        W82697  16.590  21.781  11.283
78737W        W82698  14.736  20.288  10.980
78738W        W82699  15.471  20.699  14.106
78739W        W82700  14.992  19.866  13.737
78740W        W82701  15.983  19.971  13.531
78741W        W82702  17.751  18.330  13.793
78742W        W82703  18.149  19.940  13.784
78743W        W82704  18.137  20.140  11.470
78744W        W82705  17.000  20.472  11.569
78745W        W82706  17.474  21.772  11.264
78746W        W82707  16.651  19.762  14.406
78747W        W82708  14.981  20.729  14.446
78748W        W82709  18.187  18.651  14.398
78749W        W82710  17.905  19.579  13.019
78750W        W82711  16.213  21.709  14.496
78751W        W82712  16.068  18.338  11.223
78752W        W82713  17.607  20.937  11.166
78753W        W82714  15.376  19.030  14.052
78754W        W82715  15.810  21.024  13.914
78755W        W82716  17.936  19.015  13.712
78756W        W82717  17.147  21.674  11.680
78757W        W82718  17.386  20.293  13.047
78758W        W82719  15.636  18.709  13.714
78759W        W82720  16.105  19.778  14.471
78760W        W82721  15.608  20.957  11.665
78761W        W82722  17.363  20.455  11.929
78762W        W82723  15.131  19.081  13.653
78763W        W82724  16.460  21.143  12.117
78764W        W82725  18.210  19.703  12.298
78765W        W82726  16.432  18.336  14.017
78766W        W82727  17.212  21.041  13.096
78767W        W82728  17.515  21.385  12.804
78768W        W82729  16.734  21.187  11.232
78769W        W82730  14.744  21.079  14.074
78770W        W82731  15.487  19.071  13.312
78771W        W82732  15.457  18.419  12.422
78772W        W82733  17.078  19.261  13.114
78773W        W82734  15.876  20.432  11.314
78774W        W82735  17.874  20.374  12.813
78775W        W82736  15.201  21.132  14.236
78776W        W82737  17.588  21.814  12.033
78777W        W82738  15.687  18.834  12.478
78778W        W82739  15.456  20.327  12.568
78779W        W82740  15.769  21.738  13.318
78780W        W82741  17.836  21.834  14.350
78781W        W82742  16.995  20.022  13.283
78782W        W82743  14.844  19.820  11.198
78783W        W82744  17.978  21.478  11.895
78784W        W82745  17.815  18.802  11.514
78785W        W82746  15.954  18.321  13.917
78786W        W82747  17.660  21.123  12.375
78787W        W82748  17.689  19.679  12.280
78788W        W82749  15.806  19.352  12.496
78789W        W82750  16.051  19.614  13.820
78790W        W82751  17.162  20.767  13.683
78791W        W82752  15.812  19.221  13.795
78792W        W82753  15.791  21.687  12.411
78793W        W82754  15.108  21.646  14.045
78794W        W82755  15.220  21.007  11.175
78795W        W82756  17.737  20.765  11.985
78796W        W82757  15.341  19.557  13.871
78797W        W82758  18.114  19.487  11.352
78798W        W82759  15.859  20.544  11.823
78799W        W82760  16.958  19.926  13.904
78800W        W82761  16.849  19.554  13.448
78801W        W82762  15.409  19.926  13.477
78802W        W82763  17.619  21.814  13.306
78803W        W82764  17.410  18.448  14.300
78804W        W82765  15.074  18.598  13.887
78805W        W82766  15.413  19.621  12.940
78806W        W82767  15.782  19.435  11.062
78807W        W82768  14.585  21.194  13.607
78808W        W82769  16.170  19.903  13.050
78809W        W82770  15.993  18.928  11.155
78810W        W82771  15.128  19.744  11.936
78811W        W82772  14.899  21.596  13.373
78812W        W82773  17.694  19.822  11.481
78813W        W82774  17.789  18.738  14.167
78814W        W82775  17.225  20.947  12.130
78815W        W82776  14.823  19.871  14.307
78816W        W82777  17.789  18.335  11.603
78817W        W82778  17.309  20.810  11.614
78818W        W82779  16.211  19.868  11.699
78819W        W82780  17.398  18.672  11.222
78820W        W82781  17.463  19.279  13.408
78821W        W82782  15.172  19.872  12.615
78822W        W82783  15.466  20.811  12.264
78823W        W82784  16.252  18.810  12.925
78824W        W82785  18.214  20.721  13.436
78825W        W82786  18.132  18.708  12.997
78826W        W82787  14.671  21.538  12.373
78827W        W82788  15.180  20.725  11.909
78828W        W82789  15.095  18.342  14.462
78829W        W82790  16.214  21.195  14.564
78830W        W82791  17.969  20.163  12.354
78831W        W82792  17.323  20.340  11.234
78832W        W82793  16.618  21.861  13.446
78833W        W82794  17.475  20.583  14.483
78834W        W82795  16.290  18.293  11.763
78835W        W82796  17.003  19.162  12.622
78836W        W82797  14.689  20.749  12.954
78837W        W82798  15.942  18.711  11.595
78838W        W82799  15.746  20.195  14.444
78839W        W82800  16.945  20.586  13.280
78840W        W82801  15.099  21.191  13.715
78841W        W82802  15.690  21.174  14.438
78842W        W82803  15.541  18.971  11.452
78843W        W82804  17.016  21.221  14.014
78844W        W82805  15.701  19.813  12.613
78845W        W82806  15.356  21.511  13.478
78846W        W82807  18.101  21.628  11.079
78847W        W82808  14.964  20.300  14.075
78848W        W82809  16.959  20.562  12.763
78849W        W82810  15.395  20.211  12.005
78850W        W82811  15.766  21.218  13.400
78851W        W82812  16.144  18.637  12.441
78852W        W82813  14.755  20.621  11.371
78853W        W82814  16.274  19.572  11.241
78854W        W82815  14.920  20.121  12.260
78855W        W82816  16.210  18.763  13.724
78856W        W82817  17.882  18.472  11.151
78857W        W82818  17.975  20.218  14.250
78858W        W82819  16.629  21.475  14.402
78859W        W82820  18.187  20.569  13.924
78860W        W82821  17.595  21.367  14.535
78861W        W82822  15.334  21.823  13.013
78862W        W82823  18.193  20.445  11.887
78863W        W82824  16.723  19.712  12.400
78864W        W82825  16.490  18.324  12.290
78865W        W82826  15.549  21.308  12.127
78866W        W82827  16.048  19.049  13.352
78867W        W82828  15.748  18.418  12.821
78868W        W82829  14.811  21.240  11.369
78869W        W82830  16.627  20.604  12.087
78870W        W82831  15.502  21.399  13.966
78871W        W82832  14.979  20.222  11.662
78872W        W82833  14.864  18.765  12.661
78873W        W82834  16.412  20.730  12.718
78874W        W82835  14.664  18.584  11.738
78875W        W82836  17.328  19.790  13.665
78876W        W82837  17.205  19.176  11.237
78877W        W82838  17.722  20.848  12.885
78878W        W82839  16.383  21.332  12.716
78879W        W82840  15.795  21.436  11.627
78880W        W82841  17.077  18.339  11.057
78881W        W82842  14.877  21.599  12.798
78882W        W82843  17.074  19.357  14.433
78883W        W82844  15.057  18.887  14.432
78884W        W82845  14.788  19.487  11.765
78885W        W82846  15.479  19.476  11.490
78886W        W82847  17.242  19.803  14.307
78887W        W82848  15.585  20.084  13.016
78888W        W82849  17.059  18.370  12.136
78889W        W82850  16.190  21.801  12.639
78890W        W82851  17.404  21.263  13.576
78891W        W82852  16.988  21.412  12.687
78892W        W82853  17.007  20.392  12.281
78893W        W82854  16.469  18.617  11.352
78894W        W82855  18.150  18.245  12.074
78895W        W82856  15.838  19.880  11.237
78896W        W82857  18.004  19.217  12.227
78897W        W82858  16.696  20.387  11.104
78898W        W82859  17.632  20.587  13.852
78899W        W82860  17.286  21.288  11.319
78900W        W82861  15.901  18.963  14.225
78901W        W82862  15.721  19.547  13.466
78902W        W82863  17.813  21.042  13.743
78903W        W82864  16.913  18.992  14.120
78904W        W82865  14.757  19.463  13.897
78905W        W82866  16.517  19.940  13.623
78906W        W82867  14.874  20.698  12.280
78907W        W82868  15.021  19.995  13.170
78908W        W82869  17.338  20.281  13.520
78909W        W82870  17.110  21.661  14.331
78910W        W82871  17.006  19.400  13.884
78911W        W82872  17.283  21.454  12.289
78912W        W82873  16.285  21.174  13.612
78913W        W82874  15.770  21.529  12.881
78914W        W82875  17.575  20.700  13.300
78915W        W82876  16.625  20.772  14.437
78916W        W82877  15.230  20.725  12.776
78917W        W82878  17.576  20.484  12.421
78918W        W82879  17.217  21.550  13.172
78919W        W82880  15.195  21.279  13.042
78920W        W82881  16.216  19.331  14.252
78921W        W82882  16.667  21.497  11.763
78922W        W82883  15.975  20.752  14.401
78923W        W82884  16.101  20.990  11.778
78924W        W82885  15.322  19.730  11.037
78925W        W82886  14.661  21.816  17.936
78926W        W82887  15.037  20.709  17.459
78927W        W82888  17.742  20.439  15.229
78928W        W82889  17.872  21.524  17.256
78929W        W82890  15.790  21.515  14.782
78930W        W82891  15.873  19.667  15.765
78931W        W82892  15.388  19.515  15.929
78932W        W82893  16.379  20.330  15.363
78933W        W82894  16.054  21.422  17.718
78934W        W82895  14.703  18.983  17.681
78935W        W82896  15.465  18.263  17.483
78936W        W82897  17.159  18.651  16.370
78937W        W82898  16.808  19.522  14.940
78938W        W82899  17.378  18.956  18.031
78939W        W82900  14.744  18.748  17.156
78940W        W82901  14.843  21.367  18.177
78941W        W82902  16.365  20.757  14.909
78942W        W82903  14.797  19.540  16.602
78943W        W82904  15.690  19.431  17.839
78944W        W82905  18.149  19.290  16.338
78945W        W82906  17.913  20.333  17.197
78946W        W82907  16.221  19.666  16.224
78947W        W82908  16.767  21.005  16.593
78948W        W82909  15.267  20.439  16.825
78949W        W82910  14.626  19.967  16.396
78950W        W82911  15.662  19.939  17.588
78951W        W82912  17.933  19.722  17.842
78952W        W82913  15.549  21.166  16.287
78953W        W82914  16.670  20.855  17.421
78954W        W82915  15.890  19.495  16.646
78955W        W82916  16.182  20.279  16.289
78956W        W82917  17.179  21.052  18.137
78957W        W82918  16.258  20.372  18.147
78958W        W82919  16.239  20.088  17.625
78959W        W82920  14.648  19.479  18.147
78960W        W82921  17.480  21.014  17.746
78961W        W82922  15.061  18.596  15.744
78962W        W82923  15.588  20.854  16.743
78963W        W82924  18.051  20.637  16.033
78964W        W82925  17.464  19.037  16.600
78965W        W82926  17.749  18.990  14.695
78966W        W82927  18.214  19.791  17.001
78967W        W82928  16.181  21.498  16.754
78968W        W82929  17.955  20.964  15.192
78969W        W82930  15.084  21.750  14.946
78970W        W82931  15.477  21.796  15.622
78971W        W82932  15.274  18.550  17.048
78972W        W82933  17.897  19.568  17.323
78973W        W82934  17.302  19.990  15.782
78974W        W82935  17.268  19.678  14.809
78975W        W82936  16.476  20.822  16.949
78976W        W82937  16.282  19.152  16.148
78977W        W82938  16.882  21.239  17.142
78978W        W82939  17.753  20.030  15.564
78979W        W82940  16.655  18.688  15.580
78980W        W82941  15.312  21.382  15.263
78981W        W82942  14.683  18.881  15.862
78982W        W82943  17.469  19.488  16.336
78983W        W82944  14.927  21.105  16.251
78984W        W82945  16.268  21.455  15.121
78985W        W82946  17.660  19.481  14.585
78986W        W82947  14.683  21.239  16.749
78987W        W82948  15.474  20.811  17.229
78988W        W82949  15.847  20.171  15.848
78989W        W82950  15.869  18.576  16.941
78990W        W82951  18.098  18.338  16.238
78991W        W82952  15.317  20.210  14.706
78992W        W82953  14.972  19.243  14.885
78993W        W82954  15.034  21.199  15.679
78994W        W82955  16.165  20.682  15.927
78995W        W82956  17.497  21.541  17.641
78996W        W82957  16.423  19.183  15.325
78997W        W82958  17.806  21.581  16.097
78998W        W82959  17.483  19.434  17.695
78999W        W82960  18.196  21.090  15.829
79000W        W82961  16.823  20.382  17.313
79001W        W82962  14.589  19.933  15.519
79002W        W82963  15.700  20.348  17.092
79003W        W82964  16.904  19.612  15.470
79004W        W82965  16.781  20.102  15.574
79005W        W82966  15.124  19.522  17.048
79006W        W82967  15.109  19.398  17.970
79007W        W82968  14.999  18.315  16.129
79008W        W82969  16.767  18.662  16.690
79009W        W82970  16.415  18.847  17.853
79010W        W82971  16.770  18.996  15.031
79011W        W82972  17.953  21.389  17.785
79012W        W82973  16.920  18.470  17.824
79013W        W82974  17.939  20.771  17.946
79014W        W82975  17.369  18.938  17.542
79015W        W82976  17.169  18.876  15.812
79016W        W82977  17.562  20.010  18.216
79017W        W82978  15.302  21.586  16.202
79018W        W82979  15.960  19.303  15.188
79019W        W82980  15.529  18.587  17.852
79020W        W82981  17.581  19.071  15.533
79021W        W82982  17.948  19.553  15.478
79022W        W82983  15.691  21.770  17.949
79023W        W82984  17.938  18.840  16.219
79024W        W82985  18.088  21.089  14.664
79025W        W82986  14.995  20.292  16.366
79026W        W82987  16.912  18.879  14.596
79027W        W82988  18.046  21.211  16.316
79028W        W82989  18.085  18.405  17.066
79029W        W82990  16.530  19.617  17.620
79030W        W82991  16.623  20.956  15.323
79031W        W82992  17.023  20.250  18.063
79032W        W82993  16.697  18.227  16.372
79033W        W82994  15.309  19.130  16.435
79034W        W82995  14.863  20.330  17.209
79035W        W82996  16.722  21.523  15.915
79036W        W82997  17.916  19.120  16.787
79037W        W82998  16.553  21.467  17.554
79038W        W82999  17.896  20.526  14.759
79039W        W83000  16.331  20.009  15.820
79040W        W83001  18.183  18.520  17.561
79041W        W83002  16.332  20.355  17.155
79042W        W83003  16.549  19.241  16.600
79043W        W83004  17.401  19.539  15.438
79044W        W83005  17.688  19.272  15.080
79045W        W83006  17.497  21.312  15.469
79046W        W83007  17.331  20.915  16.265
79047W        W83008  17.227  19.994  15.243
79048W        W83009  16.660  20.204  16.229
79049W        W83010  17.541  19.992  16.296
79050W        W83011  14.916  19.007  16.720
79051W        W83012  17.694  20.059  17.547
79052W        W83013  18.045  21.677  16.693
79053W        W83014  15.975  21.121  16.095
79054W        W83015  16.982  21.654  17.419
79055W        W83016  16.976  18.984  17.183
79056W        W83017  16.183  21.692  17.244
79057W        W83018  17.880  18.646  15.710
79058W        W83019  17.671  19.965  17.011
79059W        W83020  14.654  19.286  17.049
79060W        W83021  17.514  19.081  16.067
79061W        W83022  17.925  19.232  17.844
79062W        W83023  16.810  20.931  16.062
79063W        W83024  16.066  21.522  15.675
79064W        W83025  15.181  18.702  14.933
79065W        W83026  16.285  18.356  16.743
79066W        W83027  15.313  21.476  14.591
79067W        W83028  15.687  19.942  15.342
79068W        W83029  16.341  20.571  17.655
79069W        W83030  16.171  18.929  15.645
79070W        W83031  17.527  18.526  16.073
79071W        W83032  17.247  21.808  16.401
79072W        W83033  16.659  21.456  16.741
79073W        W83034  16.055  20.493  16.702
79074W        W83035  17.825  21.216  16.828
79075W        W83036  15.519  18.719  15.597
79076W        W83037  16.041  21.016  16.557
79077W        W83038  15.524  18.947  14.622
79078W        W83039  16.325  19.556  17.016
79079W        W83040  17.173  18.422  16.886
79080W        W83041  14.593  20.265  16.771
79081W        W83042  16.297  20.083  14.929
79082W        W83043  15.565  18.398  14.699
79083W        W83044  16.303  19.479  15.750
79084W        W83045  17.273  18.455  17.449
79085W        W83046  15.861  20.467  17.558
79086W        W83047  16.665  20.249  17.775
79087W        W83048  17.282  20.279  17.668
79088W        W83049  16.566  18.419  18.173
79089W        W83050  15.788  19.035  16.566
79090W        W83051  15.214  18.991  15.964
79091W        W83052  15.000  21.703  15.640
79092W        W83053  16.332  21.033  17.765
79093W        W83054  15.367  20.518  15.124
79094W        W83055  17.047  19.903  16.345
79095W        W83056  17.327  19.702  16.744
79096W        W83057  16.532  20.376  16.678
79097W        W83058  17.002  20.750  14.810
79098W        W83059  16.674  18.771  16.138
79099W        W83060  18.153  19.049  15.406
79100W        W83061  14.647  21.638  17.437
79101W        W83062  15.064  20.864  16.969
79102W        W83063  14.631  21.710  15.201
79103W        W83064  16.530  18.980  17.007
79104W        W83065  15.893  21.003  14.856
79105W        W83066  17.798  21.385  15.042
79106W        W83067  16.773  20.038  15.056
79107W        W83068  15.616  19.229  15.573
79108W        W83069  16.448  19.139  14.625
79109W        W83070  17.032  20.704  17.803
79110W        W83071  17.385  18.610  15.420
79111W        W83072  14.715  18.458  14.868
79112W        W83073  16.001  20.777  17.158
79113W        W83074  15.800  20.693  16.250
79114W        W83075  15.542  20.645  14.648
79115W        W83076  14.783  20.886  15.416
79116W        W83077  15.287  19.956  17.858
79117W        W83078  15.991  18.516  18.044
79118W        W83079  16.700  18.658  17.400
79119W        W83080  15.895  18.426  15.681
79120W        W83081  16.954  18.503  15.186
79121W        W83082  14.899  18.435  16.763
79122W        W83083  14.947  19.398  16.133
79123W        W83084  17.636  18.506  16.539
79124W        W83085  15.058  19.004  15.353
79125W        W83086  17.629  18.692  16.969
79126W        W83087  18.025  19.895  14.654
79127W        W83088  15.317  18.653  16.473
79128W        W83089  16.431  19.225  17.413
79129W        W83090  14.579  18.915  14.891
79130W        W83091  15.365  20.304  17.452
79131W        W83092  16.723  19.702  16.631
79132W        W83093  16.590  21.781  14.927
79133W        W83094  14.736  20.288  14.624
79134W        W83095  15.471  20.699  17.750
79135W        W83096  14.992  19.866  17.381
79136W        W83097  15.983  19.971  17.175
79137W        W83098  17.751  18.330  17.437
79138W        W83099  18.149  19.940  17.428
79139W        W83100  18.137  20.140  15.114
79140W        W83101  17.000  20.472  15.213
79141W        W83102  17.474  21.772  14.908
79142W        W83103  16.651  19.762  18.050
79143W        W83104  14.981  20.729  18.090
79144W        W83105  18.187  18.651  18.042
79145W        W83106  17.905  19.579  16.663
79146W        W83107  16.213  21.709  18.140
79147W        W83108  17.607  20.937  14.810
79148W        W83109  15.376  19.030  17.696
79149W        W83110  15.810  21.024  17.558
79150W        W83111  17.936  19.015  17.356
79151W        W83112  17.147  21.674  15.324
79152W        W83113  17.386  20.293  16.691
79153W        W83114  15.636  18.709  17.358
79154W        W83115  16.105  19.778  18.115
79155W        W83116  15.608  20.957  15.309
79156W        W83117  17.363  20.455  15.573
79157W        W83118  15.131  19.081  17.297
79158W        W83119  16.460  21.143  15.761
79159W        W83120  18.210  19.703  15.942
79160W        W83121  16.432  18.336  17.661
79161W        W83122  17.212  21.041  16.740
79162W        W83123  17.515  21.385  16.448
79163W        W83124  16.734  21.187  14.876
79164W        W83125  14.744  21.079  17.718
79165W        W83126  15.487  19.071  16.956
79166W        W83127  15.457  18.419  16.066
79167W        W83128  17.078  19.261  16.758
79168W        W83129  15.876  20.432  14.958
79169W        W83130  17.874  20.374  16.457
79170W        W83131  15.201  21.132  17.880
79171W        W83132  17.588  21.814  15.677
79172W        W83133  15.687  18.834  16.122
79173W        W83134  15.456  20.327  16.212
79174W        W83135  15.769  21.738  16.962
79175W        W83136  17.836  21.834  17.994
79176W        W83137  16.995  20.022  16.927
79177W        W83138  14.844  19.820  14.842
79178W        W83139  17.978  21.478  15.539
79179W        W83140  17.815  18.802  15.158
79180W        W83141  15.954  18.321  17.561
79181W        W83142  17.660  21.123  16.019
79182W        W83143  17.689  19.679  15.924
79183W        W83144  15.806  19.352  16.140
79184W        W83145  16.051  19.614  17.464
79185W        W83146  17.162  20.767  17.327
79186W        W83147  15.812  19.221  17.439
79187W        W83148  15.791  21.687  16.055
79188W        W83149  15.108  21.646  17.689
79189W        W83150  15.220  21.007  14.819
79190W        W83151  17.737  20.765  15.629
79191W        W83152  15.341  19.557  17.515
79192W        W83153  18.114  19.487  14.996
79193W        W83154  15.859  20.544  15.467
79194W        W83155  16.958  19.926  17.548
79195W        W83156  16.849  19.554  17.092
79196W        W83157  15.409  19.926  17.121
79197W        W83158  17.619  21.814  16.950
79198W        W83159  17.410  18.448  17.944
79199W        W83160  15.074  18.598  17.531
79200W        W83161  15.413  19.621  16.584
79201W        W83162  15.782  19.435  14.706
79202W        W83163  14.585  21.194  17.251
79203W        W83164  16.170  19.903  16.694
79204W        W83165  15.993  18.928  14.799
79205W        W83166  15.128  19.744  15.580
79206W        W83167  14.899  21.596  17.017
79207W        W83168  17.694  19.822  15.125
79208W        W83169  17.789  18.738  17.811
79209W        W83170  17.225  20.947  15.774
79210W        W83171  14.823  19.871  17.951
79211W        W83172  17.789  18.335  15.247
79212W        W83173  17.309  20.810  15.258
79213W        W83174  16.211  19.868  15.343
79214W        W83175  17.398  18.672  14.866
79215W        W83176  17.463  19.279  17.052
79216W        W83177  15.172  19.872  16.259
79217W        W83178  15.466  20.811  15.908
79218W        W83179  17.229  19.431  15.873
79219W        W83180  16.252  18.810  16.569
79220W        W83181  18.214  20.721  17.080
79221W        W83182  18.132  18.708  16.641
79222W        W83183  14.671  21.538  16.017
79223W        W83184  15.180  20.725  15.553
79224W        W83185  15.095  18.342  18.106
79225W        W83186  16.214  21.195  18.208
79226W        W83187  17.969  20.163  15.998
79227W        W83188  17.323  20.340  14.878
79228W        W83189  16.618  21.861  17.090
79229W        W83190  17.475  20.583  18.127
79230W        W83191  17.003  19.162  16.266
79231W        W83192  14.689  20.749  16.598
79232W        W83193  15.746  20.195  18.088
79233W        W83194  16.740  19.176  15.802
79234W        W83195  16.945  20.586  16.924
79235W        W83196  15.099  21.191  17.359
79236W        W83197  15.690  21.174  18.082
79237W        W83198  15.541  18.971  15.096
79238W        W83199  17.058  19.113  15.421
79239W        W83200  17.016  21.221  17.658
79240W        W83201  15.701  19.813  16.257
79241W        W83202  15.356  21.511  17.122
79242W        W83203  18.101  21.628  14.723
79243W        W83204  14.964  20.300  17.719
79244W        W83205  16.959  20.562  16.407
79245W        W83206  15.395  20.211  15.649
79246W        W83207  15.766  21.218  17.044
79247W        W83208  16.144  18.637  16.085
79248W        W83209  14.755  20.621  15.015
79249W        W83210  16.274  19.572  14.885
79250W        W83211  14.920  20.121  15.904
79251W        W83212  16.210  18.763  17.368
79252W        W83213  17.882  18.472  14.795
79253W        W83214  17.975  20.218  17.894
79254W        W83215  16.629  21.475  18.046
79255W        W83216  18.187  20.569  17.568
79256W        W83217  17.595  21.367  18.179
79257W        W83218  15.334  21.823  16.657
79258W        W83219  18.193  20.445  15.531
79259W        W83220  16.723  19.712  16.044
79260W        W83221  16.490  18.324  15.934
79261W        W83222  15.549  21.308  15.771
79262W        W83223  16.048  19.049  16.996
79263W        W83224  15.748  18.418  16.465
79264W        W83225  14.811  21.240  15.013
79265W        W83226  16.627  20.604  15.731
79266W        W83227  15.502  21.399  17.610
79267W        W83228  14.979  20.222  15.306
79268W        W83229  14.864  18.765  16.305
79269W        W83230  16.412  20.730  16.362
79270W        W83231  14.664  18.584  15.382
79271W        W83232  17.328  19.790  17.309
79272W        W83233  17.205  19.176  14.881
79273W        W83234  17.722  20.848  16.529
79274W        W83235  16.383  21.332  16.360
79275W        W83236  15.795  21.436  15.271
79276W        W83237  17.077  18.339  14.701
79277W        W83238  14.877  21.599  16.442
79278W        W83239  17.074  19.357  18.077
79279W        W83240  15.057  18.887  18.076
79280W        W83241  14.788  19.487  15.409
79281W        W83242  15.479  19.476  15.134
79282W        W83243  17.242  19.803  17.951
79283W        W83244  15.585  20.084  16.660
79284W        W83245  17.059  18.370  15.780
79285W        W83246  16.190  21.801  16.283
79286W        W83247  17.404  21.263  17.220
79287W        W83248  16.988  21.412  16.331
79288W        W83249  17.007  20.392  15.925
79289W        W83250  16.469  18.617  14.996
79290W        W83251  18.150  18.245  15.718
79291W        W83252  15.838  19.880  14.881
79292W        W83253  18.004  19.217  15.871
79293W        W83254  16.696  20.387  14.748
79294W        W83255  17.632  20.587  17.496
79295W        W83256  17.286  21.288  14.963
79296W        W83257  15.901  18.963  17.869
79297W        W83258  15.721  19.547  17.110
79298W        W83259  17.813  21.042  17.387
79299W        W83260  16.913  18.992  17.764
79300W        W83261  14.757  19.463  17.541
79301W        W83262  16.517  19.940  17.267
79302W        W83263  14.874  20.698  15.924
79303W        W83264  15.021  19.995  16.814
79304W        W83265  17.338  20.281  17.164
79305W        W83266  17.110  21.661  17.975
79306W        W83267  17.006  19.400  17.528
79307W        W83268  17.283  21.454  15.933
79308W        W83269  16.285  21.174  17.256
79309W        W83270  15.770  21.529  16.525
79310W        W83271  17.575  20.700  16.944
79311W        W83272  16.625  20.772  18.081
79312W        W83273  15.230  20.725  16.420
79313W        W83274  17.576  20.484  16.065
79314W        W83275  17.217  21.550  16.816
79315W        W83276  15.195  21.279  16.686
79316W        W83277  16.216  19.331  17.896
79317W        W83278  16.667  21.497  15.407
79318W        W83279  15.975  20.752  18.045
79319W        W83280  16.101  20.990  15.422
79320W        W83281  15.322  19.730  14.681
79321W        W83282  14.661  21.816  21.580
79322W        W83283  15.037  20.709  21.103
79323W        W83284  17.742  20.439  18.873
79324W        W83285  17.872  21.524  20.900
79325W        W83286  15.790  21.515  18.426
79326W        W83287  15.873  19.667  19.409
79327W        W83288  15.388  19.515  19.573
79328W        W83289  16.379  20.330  19.007
79329W        W83290  16.054  21.422  21.362
79330W        W83291  14.703  18.983  21.325
79331W        W83292  15.465  18.263  21.127
79332W        W83293  17.159  18.651  20.014
79333W        W83294  16.808  19.522  18.584
79334W        W83295  17.378  18.956  21.675
79335W        W83296  14.744  18.748  20.800
79336W        W83297  14.843  21.367  21.821
79337W        W83298  16.365  20.757  18.553
79338W        W83299  14.797  19.540  20.246
79339W        W83300  15.690  19.431  21.483
79340W        W83301  18.149  19.290  19.982
79341W        W83302  17.913  20.333  20.841
79342W        W83303  16.221  19.666  19.868
79343W        W83304  16.767  21.005  20.237
79344W        W83305  15.267  20.439  20.469
79345W        W83306  14.626  19.967  20.040
79346W        W83307  15.662  19.939  21.232
79347W        W83308  17.933  19.722  21.486
79348W        W83309  15.549  21.166  19.931
79349W        W83310  16.670  20.855  21.065
79350W        W83311  15.890  19.495  20.290
79351W        W83312  16.182  20.279  19.933
79352W        W83313  17.179  21.052  21.781
79353W        W83314  16.258  20.372  21.791
79354W        W83315  16.239  20.088  21.269
79355W        W83316  14.648  19.479  21.791
79356W        W83317  17.480  21.014  21.390
79357W        W83318  15.061  18.596  19.388
79358W        W83319  15.588  20.854  20.387
79359W        W83320  18.051  20.637  19.677
79360W        W83321  17.464  19.037  20.244
79361W        W83322  17.749  18.990  18.339
79362W        W83323  18.214  19.791  20.645
79363W        W83324  16.181  21.498  20.398
79364W        W83325  17.955  20.964  18.836
79365W        W83326  15.084  21.750  18.590
79366W        W83327  15.477  21.796  19.266
79367W        W83328  15.274  18.550  20.692
79368W        W83329  17.897  19.568  20.967
79369W        W83330  17.302  19.990  19.426
79370W        W83331  17.268  19.678  18.453
79371W        W83332  16.476  20.822  20.593
79372W        W83333  16.282  19.152  19.792
79373W        W83334  16.882  21.239  20.786
79374W        W83335  17.753  20.030  19.208
79375W        W83336  16.655  18.688  19.224
79376W        W83337  15.312  21.382  18.907
79377W        W83338  14.683  18.881  19.506
79378W        W83339  17.469  19.488  19.980
79379W        W83340  14.927  21.105  19.895
79380W        W83341  16.268  21.455  18.765
79381W        W83342  17.660  19.481  18.229
79382W        W83343  14.683  21.239  20.393
79383W        W83344  15.474  20.811  20.873
79384W        W83345  15.847  20.171  19.492
79385W        W83346  15.869  18.576  20.585
79386W        W83347  18.098  18.338  19.882
79387W        W83348  15.317  20.210  18.350
79388W        W83349  15.034  21.199  19.323
79389W        W83350  16.165  20.682  19.571
79390W        W83351  17.497  21.541  21.285
79391W        W83352  16.423  19.183  18.969
79392W        W83353  17.806  21.581  19.741
79393W        W83354  17.483  19.434  21.339
79394W        W83355  18.196  21.090  19.473
79395W        W83356  16.823  20.382  20.957
79396W        W83357  14.589  19.933  19.163
79397W        W83358  15.700  20.348  20.736
79398W        W83359  16.904  19.612  19.114
79399W        W83360  16.781  20.102  19.218
79400W        W83361  15.124  19.522  20.692
79401W        W83362  15.109  19.398  21.614
79402W        W83363  14.999  18.315  19.773
79403W        W83364  16.767  18.662  20.334
79404W        W83365  16.415  18.847  21.497
79405W        W83366  16.770  18.996  18.675
79406W        W83367  17.953  21.389  21.429
79407W        W83368  16.920  18.470  21.468
79408W        W83369  17.939  20.771  21.590
79409W        W83370  17.369  18.938  21.186
79410W        W83371  17.169  18.876  19.456
79411W        W83372  17.562  20.010  21.860
79412W        W83373  15.302  21.586  19.846
79413W        W83374  15.960  19.303  18.832
79414W        W83375  15.529  18.587  21.496
79415W        W83376  17.581  19.071  19.177
79416W        W83377  17.948  19.553  19.122
79417W        W83378  15.691  21.770  21.593
79418W        W83379  15.617  18.306  18.828
79419W        W83380  17.938  18.840  19.863
79420W        W83381  18.088  21.089  18.308
79421W        W83382  14.995  20.292  20.010
79422W        W83383  16.912  18.879  18.240
79423W        W83384  18.046  21.211  19.960
79424W        W83385  18.085  18.405  20.710
79425W        W83386  16.530  19.617  21.264
79426W        W83387  16.623  20.956  18.967
79427W        W83388  17.023  20.250  21.707
79428W        W83389  16.697  18.227  20.016
79429W        W83390  15.309  19.130  20.079
79430W        W83391  14.863  20.330  20.853
79431W        W83392  16.722  21.523  19.559
79432W        W83393  17.916  19.120  20.431
79433W        W83394  16.553  21.467  21.198
79434W        W83395  17.896  20.526  18.403
79435W        W83396  16.331  20.009  19.464
79436W        W83397  18.183  18.520  21.205
79437W        W83398  16.332  20.355  20.799
79438W        W83399  16.549  19.241  20.244
79439W        W83400  17.401  19.539  19.082
79440W        W83401  17.688  19.272  18.724
79441W        W83402  17.497  21.312  19.113
79442W        W83403  17.331  20.915  19.909
79443W        W83404  17.227  19.994  18.887
79444W        W83405  16.660  20.204  19.873
79445W        W83406  17.541  19.992  19.940
79446W        W83407  14.916  19.007  20.364
79447W        W83408  17.694  20.059  21.191
79448W        W83409  18.045  21.677  20.337
79449W        W83410  15.975  21.121  19.739
79450W        W83411  16.982  21.654  21.063
79451W        W83412  16.976  18.984  20.827
79452W        W83413  16.183  21.692  20.888
79453W        W83414  17.880  18.646  19.354
79454W        W83415  17.671  19.965  20.655
79455W        W83416  14.654  19.286  20.693
79456W        W83417  17.514  19.081  19.711
79457W        W83418  17.925  19.232  21.488
79458W        W83419  16.810  20.931  19.706
79459W        W83420  16.066  21.522  19.319
79460W        W83421  16.285  18.356  20.387
79461W        W83422  15.313  21.476  18.235
79462W        W83423  15.687  19.942  18.986
79463W        W83424  16.341  20.571  21.299
79464W        W83425  16.171  18.929  19.289
79465W        W83426  17.527  18.526  19.717
79466W        W83427  17.247  21.808  20.045
79467W        W83428  16.659  21.456  20.385
79468W        W83429  16.055  20.493  20.346
79469W        W83430  17.825  21.216  20.472
79470W        W83431  15.519  18.719  19.241
79471W        W83432  16.041  21.016  20.201
79472W        W83433  15.524  18.947  18.266
79473W        W83434  16.325  19.556  20.660
79474W        W83435  17.173  18.422  20.530
79475W        W83436  14.593  20.265  20.415
79476W        W83437  16.297  20.083  18.573
79477W        W83438  15.565  18.398  18.343
79478W        W83439  16.303  19.479  19.394
79479W        W83440  17.273  18.455  21.093
79480W        W83441  15.861  20.467  21.202
79481W        W83442  16.665  20.249  21.419
79482W        W83443  17.282  20.279  21.312
79483W        W83444  16.566  18.419  21.817
79484W        W83445  15.788  19.035  20.210
79485W        W83446  15.214  18.991  19.608
79486W        W83447  15.000  21.703  19.284
79487W        W83448  16.332  21.033  21.409
79488W        W83449  15.367  20.518  18.768
79489W        W83450  17.047  19.903  19.989
79490W        W83451  17.327  19.702  20.388
79491W        W83452  16.532  20.376  20.322
79492W        W83453  17.002  20.750  18.454
79493W        W83454  16.674  18.771  19.782
79494W        W83455  18.153  19.049  19.050
79495W        W83456  14.647  21.638  21.081
79496W        W83457  15.064  20.864  20.613
79497W        W83458  14.631  21.710  18.845
79498W        W83459  16.530  18.980  20.651
79499W        W83460  15.893  21.003  18.500
79500W        W83461  17.798  21.385  18.686
79501W        W83462  16.773  20.038  18.700
79502W        W83463  15.616  19.229  19.217
79503W        W83464  16.448  19.139  18.269
79504W        W83465  17.032  20.704  21.447
79505W        W83466  17.385  18.610  19.064
79506W        W83467  14.715  18.458  18.512
79507W        W83468  16.001  20.777  20.802
79508W        W83469  15.800  20.693  19.894
79509W        W83470  15.542  20.645  18.292
79510W        W83471  14.783  20.886  19.060
79511W        W83472  15.287  19.956  21.502
79512W        W83473  15.991  18.516  21.688
79513W        W83474  16.700  18.658  21.044
79514W        W83475  15.895  18.426  19.325
79515W        W83476  16.954  18.503  18.830
79516W        W83477  14.899  18.435  20.407
79517W        W83478  14.947  19.398  19.777
79518W        W83479  17.636  18.506  20.183
79519W        W83480  15.058  19.004  18.997
79520W        W83481  17.629  18.692  20.613
79521W        W83482  18.025  19.895  18.298
79522W        W83483  15.317  18.653  20.117
79523W        W83484  16.431  19.225  21.057
79524W        W83485  14.579  18.915  18.535
79525W        W83486  15.365  20.304  21.096
79526W        W83487  16.723  19.702  20.275
79527W        W83488  16.590  21.781  18.571
79528W        W83489  14.736  20.288  18.268
79529W        W83490  15.471  20.699  21.394
79530W        W83491  14.992  19.866  21.025
79531W        W83492  15.983  19.971  20.819
79532W        W83493  17.751  18.330  21.081
79533W        W83494  18.149  19.940  21.072
79534W        W83495  18.137  20.140  18.758
79535W        W83496  17.000  20.472  18.857
79536W        W83497  17.474  21.772  18.552
79537W        W83498  16.651  19.762  21.694
79538W        W83499  14.981  20.729  21.734
79539W        W83500  18.187  18.651  21.686
79540W        W83501  17.905  19.579  20.307
79541W        W83502  16.213  21.709  21.784
79542W        W83503  16.068  18.338  18.511
79543W        W83504  17.607  20.937  18.454
79544W        W83505  15.376  19.030  21.340
79545W        W83506  15.810  21.024  21.202
79546W        W83507  17.936  19.015  21.000
79547W        W83508  17.147  21.674  18.968
79548W        W83509  17.386  20.293  20.335
79549W        W83510  15.636  18.709  21.002
79550W        W83511  16.105  19.778  21.759
79551W        W83512  15.608  20.957  18.953
79552W        W83513  17.363  20.455  19.217
79553W        W83514  15.131  19.081  20.941
79554W        W83515  16.460  21.143  19.405
79555W        W83516  18.210  19.703  19.586
79556W        W83517  16.432  18.336  21.305
79557W        W83518  17.212  21.041  20.384
79558W        W83519  17.515  21.385  20.092
79559W        W83520  16.734  21.187  18.520
79560W        W83521  14.744  21.079  21.362
79561W        W83522  15.487  19.071  20.600
79562W        W83523  15.457  18.419  19.710
79563W        W83524  17.078  19.261  20.402
79564W        W83525  15.876  20.432  18.602
79565W        W83526  17.874  20.374  20.101
79566W        W83527  15.201  21.132  21.524
79567W        W83528  17.588  21.814  19.321
79568W        W83529  15.687  18.834  19.766
79569W        W83530  15.456  20.327  19.856
79570W        W83531  15.769  21.738  20.606
79571W        W83532  17.836  21.834  21.638
79572W        W83533  16.995  20.022  20.571
79573W        W83534  14.844  19.820  18.486
79574W        W83535  17.978  21.478  19.183
79575W        W83536  17.815  18.802  18.802
79576W        W83537  15.954  18.321  21.205
79577W        W83538  17.660  21.123  19.663
79578W        W83539  17.689  19.679  19.568
79579W        W83540  15.806  19.352  19.784
79580W        W83541  16.051  19.614  21.108
79581W        W83542  17.162  20.767  20.971
79582W        W83543  15.812  19.221  21.083
79583W        W83544  15.791  21.687  19.699
79584W        W83545  15.108  21.646  21.333
79585W        W83546  15.220  21.007  18.463
79586W        W83547  17.737  20.765  19.273
79587W        W83548  15.341  19.557  21.159
79588W        W83549  18.114  19.487  18.640
79589W        W83550  15.859  20.544  19.111
79590W        W83551  16.958  19.926  21.192
79591W        W83552  16.849  19.554  20.736
79592W        W83553  15.409  19.926  20.765
79593W        W83554  17.619  21.814  20.594
79594W        W83555  17.410  18.448  21.588
79595W        W83556  15.074  18.598  21.175
79596W        W83557  15.413  19.621  20.228
79597W        W83558  15.782  19.435  18.350
79598W        W83559  14.585  21.194  20.895
79599W        W83560  16.170  19.903  20.338
79600W        W83561  15.993  18.928  18.443
79601W        W83562  15.128  19.744  19.224
79602W        W83563  14.899  21.596  20.661
79603W        W83564  17.694  19.822  18.769
79604W        W83565  17.789  18.738  21.455
79605W        W83566  17.225  20.947  19.418
79606W        W83567  14.823  19.871  21.595
79607W        W83568  17.789  18.335  18.891
79608W        W83569  17.309  20.810  18.902
79609W        W83570  16.211  19.868  18.987
79610W        W83571  17.398  18.672  18.510
79611W        W83572  17.463  19.279  20.696
79612W        W83573  15.172  19.872  19.903
79613W        W83574  15.466  20.811  19.552
79614W        W83575  17.229  19.431  19.517
79615W        W83576  16.252  18.810  20.213
79616W        W83577  18.214  20.721  20.724
79617W        W83578  18.132  18.708  20.285
79618W        W83579  14.671  21.538  19.661
79619W        W83580  15.180  20.725  19.197
79620W        W83581  15.095  18.342  21.750
79621W        W83582  16.214  21.195  21.852
79622W        W83583  17.969  20.163  19.642
79623W        W83584  17.323  20.340  18.522
79624W        W83585  16.618  21.861  20.734
79625W        W83586  17.475  20.583  21.771
79626W        W83587  16.290  18.293  19.051
79627W        W83588  17.003  19.162  19.910
79628W        W83589  14.689  20.749  20.242
79629W        W83590  15.746  20.195  21.732
79630W        W83591  16.740  19.176  19.446
79631W        W83592  16.945  20.586  20.568
79632W        W83593  15.099  21.191  21.003
79633W        W83594  15.690  21.174  21.726
79634W        W83595  15.541  18.971  18.740
79635W        W83596  17.058  19.113  19.065
79636W        W83597  17.016  21.221  21.302
79637W        W83598  15.701  19.813  19.901
79638W        W83599  15.356  21.511  20.766
79639W        W83600  18.101  21.628  18.367
79640W        W83601  14.964  20.300  21.363
79641W        W83602  16.959  20.562  20.051
79642W        W83603  15.395  20.211  19.293
79643W        W83604  15.766  21.218  20.688
79644W        W83605  16.144  18.637  19.729
79645W        W83606  14.755  20.621  18.659
79646W        W83607  16.274  19.572  18.529
79647W        W83608  14.920  20.121  19.548
79648W        W83609  16.210  18.763  21.012
79649W        W83610  17.882  18.472  18.439
79650W        W83611  17.975  20.218  21.538
79651W        W83612  16.629  21.475  21.690
79652W        W83613  18.187  20.569  21.212
79653W        W83614  17.595  21.367  21.823
79654W        W83615  15.334  21.823  20.301
79655W        W83616  18.193  20.445  19.175
79656W        W83617  16.723  19.712  19.688
79657W        W83618  16.490  18.324  19.578
79658W        W83619  15.549  21.308  19.415
79659W        W83620  16.048  19.049  20.640
79660W        W83621  15.748  18.418  20.109
79661W        W83622  14.811  21.240  18.657
79662W        W83623  16.627  20.604  19.375
79663W        W83624  15.502  21.399  21.254
79664W        W83625  14.979  20.222  18.950
79665W        W83626  14.864  18.765  19.949
79666W        W83627  16.412  20.730  20.006
79667W        W83628  14.664  18.584  19.026
79668W        W83629  17.328  19.790  20.953
79669W        W83630  17.205  19.176  18.525
79670W        W83631  17.722  20.848  20.173
79671W        W83632  16.383  21.332  20.004
79672W        W83633  15.795  21.436  18.915
79673W        W83634  17.077  18.339  18.345
79674W        W83635  14.877  21.599  20.086
79675W        W83636  17.074  19.357  21.721
79676W        W83637  15.057  18.887  21.720
79677W        W83638  14.788  19.487  19.053
79678W        W83639  15.479  19.476  18.778
79679W        W83640  17.242  19.803  21.595
79680W        W83641  15.585  20.084  20.304
79681W        W83642  17.059  18.370  19.424
79682W        W83643  16.190  21.801  19.927
79683W        W83644  17.404  21.263  20.864
79684W        W83645  16.988  21.412  19.975
79685W        W83646  17.007  20.392  19.569
79686W        W83647  16.469  18.617  18.640
79687W        W83648  18.150  18.245  19.362
79688W        W83649  15.838  19.880  18.525
79689W        W83650  18.004  19.217  19.515
79690W        W83651  16.696  20.387  18.392
79691W        W83652  17.632  20.587  21.140
79692W        W83653  17.286  21.288  18.607
79693W        W83654  15.901  18.963  21.513
79694W        W83655  15.721  19.547  20.754
79695W        W83656  17.813  21.042  21.031
79696W        W83657  16.913  18.992  21.408
79697W        W83658  14.757  19.463  21.185
79698W        W83659  16.517  19.940  20.911
79699W        W83660  14.874  20.698  19.568
79700W        W83661  15.021  19.995  20.458
79701W        W83662  17.338  20.281  20.808
79702W        W83663  17.110  21.661  21.619
79703W        W83664  17.006  19.400  21.172
79704W        W83665  17.283  21.454  19.577
79705W        W83666  16.285  21.174  20.900
79706W        W83667  15.770  21.529  20.169
79707W        W83668  17.575  20.700  20.588
79708W        W83669  16.625  20.772  21.725
79709W        W83670  15.230  20.725  20.064
79710W        W83671  17.576  20.484  19.709
79711W        W83672  17.217  21.550  20.460
79712W        W83673  15.195  21.279  20.330
79713W        W83674  16.216  19.331  21.540
79714W        W83675  16.667  21.497  19.051
79715W        W83676  15.975  20.752  21.689
79716W        W83677  16.101  20.990  19.066
79717W        W83678  15.322  19.730  18.325
79718W        W83679  17.742  20.439  22.518
79719W        W83680  15.790  21.515  22.071
79720W        W83681  15.873  19.667  23.054
79721W        W83682  16.379  20.330  22.652
79722W        W83683  16.808  19.522  22.229
79723W        W83684  16.365  20.757  22.198
79724W        W83685  15.061  18.596  23.033
79725W        W83686  17.749  18.990  21.984
79726W        W83687  17.955  20.964  22.481
79727W        W83688  15.084  21.750  22.235
79728W        W83689  15.477  21.796  22.911
79729W        W83690  17.302  19.990  23.071
79730W        W83691  17.268  19.678  22.098
79731W        W83692  17.753  20.030  22.853
79732W        W83693  16.655  18.688  22.869
79733W        W83694  15.312  21.382  22.552
79734W        W83695  16.268  21.455  22.410
79735W        W83696  17.660  19.481  21.874
79736W        W83697  15.847  20.171  23.137
79737W        W83698  15.317  20.210  21.995
79738W        W83699  15.034  21.199  22.968
79739W        W83700  16.165  20.682  23.216
79740W        W83701  16.423  19.183  22.614
79741W        W83702  14.589  19.933  22.808
79742W        W83703  16.904  19.612  22.759
79743W        W83704  16.781  20.102  22.863
79744W        W83705  16.770  18.996  22.320
79745W        W83706  17.169  18.876  23.101
79746W        W83707  15.960  19.303  22.477
79747W        W83708  17.581  19.071  22.822
79748W        W83709  17.948  19.553  22.767
79749W        W83710  15.617  18.306  22.473
79750W        W83711  18.088  21.089  21.953
79751W        W83712  16.912  18.879  21.885
79752W        W83713  16.623  20.956  22.612
79753W        W83714  16.722  21.523  23.204
79754W        W83715  17.896  20.526  22.048
79755W        W83716  16.331  20.009  23.109
79756W        W83717  17.401  19.539  22.727
79757W        W83718  17.688  19.272  22.369
79758W        W83719  17.497  21.312  22.758
79759W        W83720  17.227  19.994  22.532
79760W        W83721  17.880  18.646  22.999
79761W        W83722  16.066  21.522  22.964
79762W        W83723  15.181  18.702  22.222
79763W        W83724  15.313  21.476  21.880
79764W        W83725  16.171  18.929  22.934
79765W        W83726  15.519  18.719  22.886
79766W        W83727  15.524  18.947  21.911
79767W        W83728  16.297  20.083  22.218
79768W        W83729  15.565  18.398  21.988
79769W        W83730  16.303  19.479  23.039
79770W        W83731  15.214  18.991  23.253
79771W        W83732  15.000  21.703  22.929
79772W        W83733  15.367  20.518  22.413
79773W        W83734  17.002  20.750  22.099
79774W        W83735  18.153  19.049  22.695
79775W        W83736  14.631  21.710  22.490
79776W        W83737  15.893  21.003  22.145
79777W        W83738  17.798  21.385  22.331
79778W        W83739  16.773  20.038  22.345
79779W        W83740  15.616  19.229  22.862
79780W        W83741  16.448  19.139  21.914
79781W        W83742  17.385  18.610  22.709
79782W        W83743  14.715  18.458  22.157
79783W        W83744  15.542  20.645  21.937
79784W        W83745  14.783  20.886  22.705
79785W        W83746  16.954  18.503  22.475
79786W        W83747  15.058  19.004  22.642
79787W        W83748  18.025  19.895  21.943
79788W        W83749  14.579  18.915  22.180
79789W        W83750  16.590  21.781  22.216
79790W        W83751  14.736  20.288  21.913
79791W        W83752  18.137  20.140  22.403
79792W        W83753  17.000  20.472  22.502
79793W        W83754  17.474  21.772  22.197
79794W        W83755  16.068  18.338  22.156
79795W        W83756  17.607  20.937  22.099
79796W        W83757  17.147  21.674  22.613
79797W        W83758  15.608  20.957  22.598
79798W        W83759  17.363  20.455  22.862
79799W        W83760  16.460  21.143  23.050
79800W        W83761  18.210  19.703  23.231
79801W        W83762  16.734  21.187  22.165
79802W        W83763  15.876  20.432  22.247
79803W        W83764  17.588  21.814  22.966
79804W        W83765  14.844  19.820  22.131
79805W        W83766  17.978  21.478  22.828
79806W        W83767  17.815  18.802  22.447
79807W        W83768  17.689  19.679  23.213
79808W        W83769  15.220  21.007  22.108
79809W        W83770  17.737  20.765  22.918
79810W        W83771  18.114  19.487  22.285
79811W        W83772  15.859  20.544  22.756
79812W        W83773  15.782  19.435  21.995
79813W        W83774  15.993  18.928  22.088
79814W        W83775  17.694  19.822  22.414
79815W        W83776  17.225  20.947  23.063
79816W        W83777  17.789  18.335  22.536
79817W        W83778  17.309  20.810  22.547
79818W        W83779  16.211  19.868  22.632
79819W        W83780  17.398  18.672  22.155
79820W        W83781  15.466  20.811  23.197
79821W        W83782  17.229  19.431  23.162
79822W        W83783  14.671  21.538  23.306
79823W        W83784  15.180  20.725  22.842
79824W        W83785  17.969  20.163  23.287
79825W        W83786  17.323  20.340  22.167
79826W        W83787  15.942  18.711  22.528
79827W        W83788  16.740  19.176  23.091
79828W        W83789  15.541  18.971  22.385
79829W        W83790  17.058  19.113  22.710
79830W        W83791  18.101  21.628  22.012
79831W        W83792  14.755  20.621  22.304
79832W        W83793  16.274  19.572  22.174
79833W        W83794  17.882  18.472  22.084
79834W        W83795  18.193  20.445  22.820
79835W        W83796  16.490  18.324  23.223
79836W        W83797  15.549  21.308  23.060
79837W        W83798  14.811  21.240  22.302
79838W        W83799  16.627  20.604  23.020
79839W        W83800  14.979  20.222  22.595
79840W        W83801  14.664  18.584  22.671
79841W        W83802  17.205  19.176  22.170
79842W        W83803  15.795  21.436  22.560
79843W        W83804  17.077  18.339  21.990
79844W        W83805  14.788  19.487  22.698
79845W        W83806  15.479  19.476  22.423
79846W        W83807  17.007  20.392  23.214
79847W        W83808  18.150  18.245  23.007
79848W        W83809  15.838  19.880  22.170
79849W        W83810  18.004  19.217  23.160
79850W        W83811  16.696  20.387  22.037
79851W        W83812  17.286  21.288  22.252
79852W        W83813  14.874  20.698  23.213
79853W        W83814  17.283  21.454  23.222
79854W        W83815  16.667  21.497  22.696
79855W        W83816  16.101  20.990  22.711
79856W        W83817  15.322  19.730  21.970
79857W        W83818  14.703  22.628   3.104
79858W        W83819  15.465  21.908   2.906
79859W        W83820  17.159  22.296   1.793
79860W        W83821  16.808  23.167   0.363
79861W        W83822  17.378  22.601   3.454
79862W        W83823  14.744  22.393   2.579
79863W        W83824  15.690  23.076   3.262
79864W        W83825  18.149  22.935   1.761
79865W        W83826  15.890  23.140   2.069
79866W        W83827  14.648  23.124   3.570
79867W        W83828  15.061  22.241   1.167
79868W        W83829  17.749  22.635   0.118
79869W        W83830  15.274  22.195   2.471
79870W        W83831  17.897  23.213   2.746
79871W        W83832  16.282  22.797   1.571
79872W        W83833  16.655  22.333   1.003
79873W        W83834  14.683  22.526   1.285
79874W        W83835  17.469  23.133   1.759
79875W        W83836  17.660  23.126   0.008
79876W        W83837  15.869  22.221   2.364
79877W        W83838  18.098  21.983   1.661
79878W        W83839  14.972  22.888   0.308
79879W        W83840  16.423  22.828   0.748
79880W        W83841  17.483  23.079   3.118
79881W        W83842  16.904  23.257   0.893
79882W        W83843  15.124  23.167   2.471
79883W        W83844  14.999  21.960   1.552
79884W        W83845  16.767  22.307   2.113
79885W        W83846  16.415  22.492   3.276
79886W        W83847  16.770  22.641   0.454
79887W        W83848  16.920  22.115   3.247
79888W        W83849  17.369  22.583   2.965
79889W        W83850  17.169  22.521   1.235
79890W        W83851  15.960  22.948   0.611
79891W        W83852  15.529  22.232   3.275
79892W        W83853  17.581  22.716   0.956
79893W        W83854  17.948  23.198   0.901
79894W        W83855  15.617  21.951   0.607
79895W        W83856  17.938  22.485   1.642
79896W        W83857  16.912  22.524   0.019
79897W        W83858  18.085  22.050   2.489
79898W        W83859  16.697  21.872   1.795
79899W        W83860  15.309  22.775   1.858
79900W        W83861  17.916  22.765   2.210
79901W        W83862  18.183  22.165   2.984
79902W        W83863  16.549  22.886   2.023
79903W        W83864  17.688  22.917   0.503
79904W        W83865  14.916  22.652   2.143
79905W        W83866  17.880  22.291   1.133
79906W        W83867  14.654  22.931   2.472
79907W        W83868  17.514  22.726   1.490
79908W        W83869  17.925  22.877   3.267
79909W        W83870  15.181  22.347   0.356
79910W        W83871  16.285  22.001   2.166
79911W        W83872  16.171  22.574   1.068
79912W        W83873  17.527  22.171   1.496
79913W        W83874  15.519  22.364   1.020
79914W        W83875  15.524  22.592   0.045
79915W        W83876  16.325  23.201   2.439
79916W        W83877  17.173  22.067   2.309
79917W        W83878  15.565  22.043   0.122
79918W        W83879  16.303  23.124   1.173
79919W        W83880  17.273  22.100   2.872
79920W        W83881  16.566  22.064   3.596
79921W        W83882  15.788  22.680   1.989
79922W        W83883  15.214  22.636   1.387
79923W        W83884  16.674  22.416   1.561
79924W        W83885  18.153  22.694   0.829
79925W        W83886  15.616  22.874   0.996
79926W        W83887  16.448  22.784   0.048
79927W        W83888  17.385  22.255   0.843
79928W        W83889  14.715  22.103   0.291
79929W        W83890  15.991  22.161   3.467
79930W        W83891  16.700  22.303   2.823
79931W        W83892  15.895  22.071   1.104
79932W        W83893  16.954  22.148   0.609
79933W        W83894  14.899  22.080   2.186
79934W        W83895  17.636  22.151   1.962
79935W        W83896  15.058  22.649   0.776
79936W        W83897  17.629  22.337   2.392
79937W        W83898  15.317  22.298   1.896
79938W        W83899  16.431  22.870   2.836
79939W        W83900  14.579  22.560   0.314
79940W        W83901  18.187  22.296   3.465
79941W        W83902  17.905  23.224   2.086
79942W        W83903  16.068  21.983   0.290
79943W        W83904  15.376  22.675   3.119
79944W        W83905  17.936  22.660   2.779
79945W        W83906  15.636  22.354   2.781
79946W        W83907  15.131  22.726   2.720
79947W        W83908  16.432  21.981   3.084
79948W        W83909  15.487  22.716   2.379
79949W        W83910  15.457  22.064   1.489
79950W        W83911  17.078  22.906   2.181
79951W        W83912  15.687  22.479   1.545
79952W        W83913  17.815  22.447   0.581
79953W        W83914  15.954  21.966   2.984
79954W        W83915  15.806  22.997   1.563
79955W        W83916  15.812  22.866   2.862
79956W        W83917  18.114  23.132   0.419
79957W        W83918  16.849  23.199   2.515
79958W        W83919  17.410  22.093   3.367
79959W        W83920  15.074  22.243   2.954
79960W        W83921  15.413  23.266   2.007
79961W        W83922  15.782  23.080   0.129
79962W        W83923  15.993  22.573   0.222
79963W        W83924  17.789  22.383   3.234
79964W        W83925  17.789  21.980   0.670
79965W        W83926  17.398  22.317   0.289
79966W        W83927  16.252  22.455   1.992
79967W        W83928  18.132  22.353   2.064
79968W        W83929  15.095  21.987   3.529
79969W        W83930  16.290  21.938   0.830
79970W        W83931  17.003  22.807   1.689
79971W        W83932  15.942  22.356   0.662
79972W        W83933  16.740  22.821   1.225
79973W        W83934  15.541  22.616   0.519
79974W        W83935  17.058  22.758   0.844
79975W        W83936  16.144  22.282   1.508
79976W        W83937  16.274  23.217   0.308
79977W        W83938  16.210  22.408   2.791
79978W        W83939  17.882  22.117   0.218
79979W        W83940  16.490  21.969   1.357
79980W        W83941  16.048  22.694   2.419
79981W        W83942  15.748  22.063   1.888
79982W        W83943  14.864  22.410   1.728
79983W        W83944  14.664  22.229   0.805
79984W        W83945  17.205  22.821   0.304
79985W        W83946  17.077  21.984   0.124
79986W        W83947  17.074  23.002   3.500
79987W        W83948  15.057  22.532   3.499
79988W        W83949  14.788  23.132   0.832
79989W        W83950  17.059  22.015   1.203
79990W        W83951  16.469  22.262   0.419
79991W        W83952  18.150  21.890   1.141
79992W        W83953  18.004  22.862   1.294
79993W        W83954  15.901  22.608   3.292
79994W        W83955  15.721  23.192   2.533
79995W        W83956  16.913  22.637   3.187
79996W        W83957  14.757  23.108   2.964
79997W        W83958  16.216  22.976   3.319
79998W        W83959  14.703  22.628   6.748
79999W        W83960  15.465  21.908   6.550
80000W        W83961  17.159  22.296   5.437
80001W        W83962  16.808  23.167   4.007
80002W        W83963  17.378  22.601   7.098
80003W        W83964  14.744  22.393   6.223
80004W        W83965  15.690  23.076   6.906
80005W        W83966  18.149  22.935   5.405
80006W        W83967  15.890  23.140   5.713
80007W        W83968  14.648  23.124   7.214
80008W        W83969  15.061  22.241   4.811
80009W        W83970  17.464  22.682   5.667
80010W        W83971  17.749  22.635   3.762
80011W        W83972  15.274  22.195   6.115
80012W        W83973  17.897  23.213   6.390
80013W        W83974  16.282  22.797   5.215
80014W        W83975  16.655  22.333   4.647
80015W        W83976  14.683  22.526   4.929
80016W        W83977  17.469  23.133   5.403
80017W        W83978  17.660  23.126   3.652
80018W        W83979  15.869  22.221   6.008
80019W        W83980  18.098  21.983   5.305
80020W        W83981  14.972  22.888   3.952
80021W        W83982  16.423  22.828   4.392
80022W        W83983  17.483  23.079   6.762
80023W        W83984  16.904  23.257   4.537
80024W        W83985  15.124  23.167   6.115
80025W        W83986  14.999  21.960   5.196
80026W        W83987  16.767  22.307   5.757
80027W        W83988  16.415  22.492   6.920
80028W        W83989  16.770  22.641   4.098
80029W        W83990  16.920  22.115   6.891
80030W        W83991  17.369  22.583   6.609
80031W        W83992  17.169  22.521   4.879
80032W        W83993  15.960  22.948   4.255
80033W        W83994  15.529  22.232   6.919
80034W        W83995  17.581  22.716   4.600
80035W        W83996  17.948  23.198   4.545
80036W        W83997  15.617  21.951   4.251
80037W        W83998  17.938  22.485   5.286
80038W        W83999  16.912  22.524   3.663
80039W        W84000  18.085  22.050   6.133
80040W        W84001  16.697  21.872   5.439
80041W        W84002  15.309  22.775   5.502
80042W        W84003  17.916  22.765   5.854
80043W        W84004  18.183  22.165   6.628
80044W        W84005  16.549  22.886   5.667
80045W        W84006  17.688  22.917   4.147
80046W        W84007  14.916  22.652   5.787
80047W        W84008  16.976  22.629   6.250
80048W        W84009  17.880  22.291   4.777
80049W        W84010  14.654  22.931   6.116
80050W        W84011  17.514  22.726   5.134
80051W        W84012  17.925  22.877   6.911
80052W        W84013  15.181  22.347   4.000
80053W        W84014  16.285  22.001   5.810
80054W        W84015  16.171  22.574   4.712
80055W        W84016  17.527  22.171   5.140
80056W        W84017  15.519  22.364   4.664
80057W        W84018  15.524  22.592   3.689
80058W        W84019  16.325  23.201   6.083
80059W        W84020  17.173  22.067   5.953
80060W        W84021  15.565  22.043   3.766
80061W        W84022  16.303  23.124   4.817
80062W        W84023  17.273  22.100   6.516
80063W        W84024  16.566  22.064   7.240
80064W        W84025  15.788  22.680   5.633
80065W        W84026  15.214  22.636   5.031
80066W        W84027  16.674  22.416   5.205
80067W        W84028  18.153  22.694   4.473
80068W        W84029  16.530  22.625   6.074
80069W        W84030  15.616  22.874   4.640
80070W        W84031  16.448  22.784   3.692
80071W        W84032  17.385  22.255   4.487
80072W        W84033  14.715  22.103   3.935
80073W        W84034  15.991  22.161   7.111
80074W        W84035  16.700  22.303   6.467
80075W        W84036  15.895  22.071   4.748
80076W        W84037  16.954  22.148   4.253
80077W        W84038  14.899  22.080   5.830
80078W        W84039  17.636  22.151   5.606
80079W        W84040  15.058  22.649   4.420
80080W        W84041  17.629  22.337   6.036
80081W        W84042  15.317  22.298   5.540
80082W        W84043  16.431  22.870   6.480
80083W        W84044  14.579  22.560   3.958
80084W        W84045  17.751  21.975   6.504
80085W        W84046  18.187  22.296   7.109
80086W        W84047  17.905  23.224   5.730
80087W        W84048  16.068  21.983   3.934
80088W        W84049  15.376  22.675   6.763
80089W        W84050  17.936  22.660   6.423
80090W        W84051  15.636  22.354   6.425
80091W        W84052  15.131  22.726   6.364
80092W        W84053  16.432  21.981   6.728
80093W        W84054  15.487  22.716   6.023
80094W        W84055  15.457  22.064   5.133
80095W        W84056  17.078  22.906   5.825
80096W        W84057  15.687  22.479   5.189
80097W        W84058  17.815  22.447   4.225
80098W        W84059  15.954  21.966   6.628
80099W        W84060  15.806  22.997   5.207
80100W        W84061  15.812  22.866   6.506
80101W        W84062  18.114  23.132   4.063
80102W        W84063  16.849  23.199   6.159
80103W        W84064  17.410  22.093   7.011
80104W        W84065  15.074  22.243   6.598
80105W        W84066  15.413  23.266   5.651
80106W        W84067  15.782  23.080   3.773
80107W        W84068  15.993  22.573   3.866
80108W        W84069  17.789  22.383   6.878
80109W        W84070  17.789  21.980   4.314
80110W        W84071  17.398  22.317   3.933
80111W        W84072  17.463  22.924   6.119
80112W        W84073  16.252  22.455   5.636
80113W        W84074  18.132  22.353   5.708
80114W        W84075  15.095  21.987   7.173
80115W        W84076  16.290  21.938   4.474
80116W        W84077  17.003  22.807   5.333
80117W        W84078  15.942  22.356   4.306
80118W        W84079  16.740  22.821   4.869
80119W        W84080  15.541  22.616   4.163
80120W        W84081  17.058  22.758   4.488
80121W        W84082  16.144  22.282   5.152
80122W        W84083  16.274  23.217   3.952
80123W        W84084  16.210  22.408   6.435
80124W        W84085  17.882  22.117   3.862
80125W        W84086  16.490  21.969   5.001
80126W        W84087  16.048  22.694   6.063
80127W        W84088  15.748  22.063   5.532
80128W        W84089  14.864  22.410   5.372
80129W        W84090  14.664  22.229   4.449
80130W        W84091  17.205  22.821   3.948
80131W        W84092  17.077  21.984   3.768
80132W        W84093  17.074  23.002   7.144
80133W        W84094  15.057  22.532   7.143
80134W        W84095  14.788  23.132   4.476
80135W        W84096  17.059  22.015   4.847
80136W        W84097  16.469  22.262   4.063
80137W        W84098  18.150  21.890   4.785
80138W        W84099  18.004  22.862   4.938
80139W        W84100  15.901  22.608   6.936
80140W        W84101  15.721  23.192   6.177
80141W        W84102  16.913  22.637   6.831
80142W        W84103  14.757  23.108   6.608
80143W        W84104  17.006  23.045   6.595
80144W        W84105  16.216  22.976   6.963
80145W        W84106  14.703  22.628  10.393
80146W        W84107  15.465  21.908  10.195
80147W        W84108  17.159  22.296   9.082
80148W        W84109  16.808  23.167   7.652
80149W        W84110  17.378  22.601  10.743
80150W        W84111  14.744  22.393   9.868
80151W        W84112  15.690  23.076  10.551
80152W        W84113  18.149  22.935   9.050
80153W        W84114  15.890  23.140   9.358
80154W        W84115  14.648  23.124  10.859
80155W        W84116  15.061  22.241   8.456
80156W        W84117  17.464  22.682   9.312
80157W        W84118  17.749  22.635   7.407
80158W        W84119  15.274  22.195   9.760
80159W        W84120  17.897  23.213  10.035
80160W        W84121  16.282  22.797   8.860
80161W        W84122  16.655  22.333   8.292
80162W        W84123  14.683  22.526   8.574
80163W        W84124  17.469  23.133   9.048
80164W        W84125  17.660  23.126   7.297
80165W        W84126  15.869  22.221   9.653
80166W        W84127  18.098  21.983   8.950
80167W        W84128  14.972  22.888   7.597
80168W        W84129  16.423  22.828   8.037
80169W        W84130  17.483  23.079  10.407
80170W        W84131  16.904  23.257   8.182
80171W        W84132  15.124  23.167   9.760
80172W        W84133  14.999  21.960   8.841
80173W        W84134  16.767  22.307   9.402
80174W        W84135  16.415  22.492  10.565
80175W        W84136  16.770  22.641   7.743
80176W        W84137  16.920  22.115  10.536
80177W        W84138  17.369  22.583  10.254
80178W        W84139  17.169  22.521   8.524
80179W        W84140  15.960  22.948   7.900
80180W        W84141  15.529  22.232  10.564
80181W        W84142  17.581  22.716   8.245
80182W        W84143  17.948  23.198   8.190
80183W        W84144  15.617  21.951   7.896
80184W        W84145  17.938  22.485   8.931
80185W        W84146  16.912  22.524   7.308
80186W        W84147  18.085  22.050   9.778
80187W        W84148  16.697  21.872   9.084
80188W        W84149  15.309  22.775   9.147
80189W        W84150  17.916  22.765   9.499
80190W        W84151  18.183  22.165  10.273
80191W        W84152  16.549  22.886   9.312
80192W        W84153  17.688  22.917   7.792
80193W        W84154  14.916  22.652   9.432
80194W        W84155  16.976  22.629   9.895
80195W        W84156  17.880  22.291   8.422
80196W        W84157  14.654  22.931   9.761
80197W        W84158  17.514  22.726   8.779
80198W        W84159  17.925  22.877  10.556
80199W        W84160  15.181  22.347   7.645
80200W        W84161  16.285  22.001   9.455
80201W        W84162  16.171  22.574   8.357
80202W        W84163  17.527  22.171   8.785
80203W        W84164  15.519  22.364   8.309
80204W        W84165  15.524  22.592   7.334
80205W        W84166  16.325  23.201   9.728
80206W        W84167  17.173  22.067   9.598
80207W        W84168  15.565  22.043   7.411
80208W        W84169  16.303  23.124   8.462
80209W        W84170  17.273  22.100  10.161
80210W        W84171  16.566  22.064  10.885
80211W        W84172  15.788  22.680   9.278
80212W        W84173  15.214  22.636   8.676
80213W        W84174  16.674  22.416   8.850
80214W        W84175  18.153  22.694   8.118
80215W        W84176  16.530  22.625   9.719
80216W        W84177  15.616  22.874   8.285
80217W        W84178  16.448  22.784   7.337
80218W        W84179  17.385  22.255   8.132
80219W        W84180  14.715  22.103   7.580
80220W        W84181  15.991  22.161  10.756
80221W        W84182  16.700  22.303  10.112
80222W        W84183  15.895  22.071   8.393
80223W        W84184  16.954  22.148   7.898
80224W        W84185  14.899  22.080   9.475
80225W        W84186  17.636  22.151   9.251
80226W        W84187  15.058  22.649   8.065
80227W        W84188  17.629  22.337   9.681
80228W        W84189  15.317  22.298   9.185
80229W        W84190  16.431  22.870  10.125
80230W        W84191  14.579  22.560   7.603
80231W        W84192  17.751  21.975  10.149
80232W        W84193  18.187  22.296  10.754
80233W        W84194  17.905  23.224   9.375
80234W        W84195  16.068  21.983   7.579
80235W        W84196  15.376  22.675  10.408
80236W        W84197  17.936  22.660  10.068
80237W        W84198  15.636  22.354  10.070
80238W        W84199  15.131  22.726  10.009
80239W        W84200  16.432  21.981  10.373
80240W        W84201  15.487  22.716   9.668
80241W        W84202  15.457  22.064   8.778
80242W        W84203  17.078  22.906   9.470
80243W        W84204  15.687  22.479   8.834
80244W        W84205  17.815  22.447   7.870
80245W        W84206  15.954  21.966  10.273
80246W        W84207  15.806  22.997   8.852
80247W        W84208  15.812  22.866  10.151
80248W        W84209  18.114  23.132   7.708
80249W        W84210  16.849  23.199   9.804
80250W        W84211  17.410  22.093  10.656
80251W        W84212  15.074  22.243  10.243
80252W        W84213  15.413  23.266   9.296
80253W        W84214  15.782  23.080   7.418
80254W        W84215  15.993  22.573   7.511
80255W        W84216  17.789  21.980   7.959
80256W        W84217  17.398  22.317   7.578
80257W        W84218  17.463  22.924   9.764
80258W        W84219  16.252  22.455   9.281
80259W        W84220  18.132  22.353   9.353
80260W        W84221  15.095  21.987  10.818
80261W        W84222  16.290  21.938   8.119
80262W        W84223  17.003  22.807   8.978
80263W        W84224  15.942  22.356   7.951
80264W        W84225  16.740  22.821   8.514
80265W        W84226  15.541  22.616   7.808
80266W        W84227  17.058  22.758   8.133
80267W        W84228  16.144  22.282   8.797
80268W        W84229  16.274  23.217   7.597
80269W        W84230  16.210  22.408  10.080
80270W        W84231  17.882  22.117   7.507
80271W        W84232  16.490  21.969   8.646
80272W        W84233  16.048  22.694   9.708
80273W        W84234  15.748  22.063   9.177
80274W        W84235  14.864  22.410   9.017
80275W        W84236  14.664  22.229   8.094
80276W        W84237  17.205  22.821   7.593
80277W        W84238  17.077  21.984   7.413
80278W        W84239  17.074  23.002  10.789
80279W        W84240  15.057  22.532  10.788
80280W        W84241  14.788  23.132   8.121
80281W        W84242  17.059  22.015   8.492
80282W        W84243  16.469  22.262   7.708
80283W        W84244  18.150  21.890   8.430
80284W        W84245  18.004  22.862   8.583
80285W        W84246  15.901  22.608  10.581
80286W        W84247  15.721  23.192   9.822
80287W        W84248  16.913  22.637  10.476
80288W        W84249  14.757  23.108  10.253
80289W        W84250  17.006  23.045  10.240
80290W        W84251  16.216  22.976  10.608
80291W        W84252  14.703  22.628  14.037
80292W        W84253  15.465  21.908  13.839
80293W        W84254  17.159  22.296  12.726
80294W        W84255  16.808  23.167  11.296
80295W        W84256  17.378  22.601  14.387
80296W        W84257  14.744  22.393  13.512
80297W        W84258  15.690  23.076  14.195
80298W        W84259  18.149  22.935  12.694
80299W        W84260  15.890  23.140  13.002
80300W        W84261  14.648  23.124  14.503
80301W        W84262  15.061  22.241  12.100
80302W        W84263  17.464  22.682  12.956
80303W        W84264  15.274  22.195  13.404
80304W        W84265  17.897  23.213  13.679
80305W        W84266  16.282  22.797  12.504
80306W        W84267  16.655  22.333  11.936
80307W        W84268  14.683  22.526  12.218
80308W        W84269  17.469  23.133  12.692
80309W        W84270  17.660  23.126  10.941
80310W        W84271  15.869  22.221  13.297
80311W        W84272  18.098  21.983  12.594
80312W        W84273  14.972  22.888  11.241
80313W        W84274  16.423  22.828  11.681
80314W        W84275  17.483  23.079  14.051
80315W        W84276  16.904  23.257  11.826
80316W        W84277  15.124  23.167  13.404
80317W        W84278  14.999  21.960  12.485
80318W        W84279  16.767  22.307  13.046
80319W        W84280  16.415  22.492  14.209
80320W        W84281  16.770  22.641  11.387
80321W        W84282  16.920  22.115  14.180
80322W        W84283  17.369  22.583  13.898
80323W        W84284  17.169  22.521  12.168
80324W        W84285  15.960  22.948  11.544
80325W        W84286  15.529  22.232  14.208
80326W        W84287  17.581  22.716  11.889
80327W        W84288  17.948  23.198  11.834
80328W        W84289  15.617  21.951  11.540
80329W        W84290  17.938  22.485  12.575
80330W        W84291  16.912  22.524  10.952
80331W        W84292  18.085  22.050  13.422
80332W        W84293  16.697  21.872  12.728
80333W        W84294  15.309  22.775  12.791
80334W        W84295  17.916  22.765  13.143
80335W        W84296  18.183  22.165  13.917
80336W        W84297  16.549  22.886  12.956
80337W        W84298  17.688  22.917  11.436
80338W        W84299  14.916  22.652  13.076
80339W        W84300  16.976  22.629  13.539
80340W        W84301  17.880  22.291  12.066
80341W        W84302  14.654  22.931  13.405
80342W        W84303  17.514  22.726  12.423
80343W        W84304  17.925  22.877  14.200
80344W        W84305  15.181  22.347  11.289
80345W        W84306  16.285  22.001  13.099
80346W        W84307  16.171  22.574  12.001
80347W        W84308  17.527  22.171  12.429
80348W        W84309  15.519  22.364  11.953
80349W        W84310  15.524  22.592  10.978
80350W        W84311  16.325  23.201  13.372
80351W        W84312  17.173  22.067  13.242
80352W        W84313  15.565  22.043  11.055
80353W        W84314  16.303  23.124  12.106
80354W        W84315  17.273  22.100  13.805
80355W        W84316  16.566  22.064  14.529
80356W        W84317  15.788  22.680  12.922
80357W        W84318  15.214  22.636  12.320
80358W        W84319  16.674  22.416  12.494
80359W        W84320  18.153  22.694  11.762
80360W        W84321  16.530  22.625  13.363
80361W        W84322  15.616  22.874  11.929
80362W        W84323  16.448  22.784  10.981
80363W        W84324  17.385  22.255  11.776
80364W        W84325  14.715  22.103  11.224
80365W        W84326  15.991  22.161  14.400
80366W        W84327  16.700  22.303  13.756
80367W        W84328  15.895  22.071  12.037
80368W        W84329  16.954  22.148  11.542
80369W        W84330  14.899  22.080  13.119
80370W        W84331  17.636  22.151  12.895
80371W        W84332  15.058  22.649  11.709
80372W        W84333  17.629  22.337  13.325
80373W        W84334  15.317  22.298  12.829
80374W        W84335  16.431  22.870  13.769
80375W        W84336  14.579  22.560  11.247
80376W        W84337  17.751  21.975  13.793
80377W        W84338  18.187  22.296  14.398
80378W        W84339  17.905  23.224  13.019
80379W        W84340  16.068  21.983  11.223
80380W        W84341  15.376  22.675  14.052
80381W        W84342  17.936  22.660  13.712
80382W        W84343  15.636  22.354  13.714
80383W        W84344  15.131  22.726  13.653
80384W        W84345  16.432  21.981  14.017
80385W        W84346  15.487  22.716  13.312
80386W        W84347  15.457  22.064  12.422
80387W        W84348  17.078  22.906  13.114
80388W        W84349  15.687  22.479  12.478
80389W        W84350  17.815  22.447  11.514
80390W        W84351  15.954  21.966  13.917
80391W        W84352  15.806  22.997  12.496
80392W        W84353  15.812  22.866  13.795
80393W        W84354  18.114  23.132  11.352
80394W        W84355  16.849  23.199  13.448
80395W        W84356  17.410  22.093  14.300
80396W        W84357  15.074  22.243  13.887
80397W        W84358  15.413  23.266  12.940
80398W        W84359  15.782  23.080  11.062
80399W        W84360  15.993  22.573  11.155
80400W        W84361  17.789  22.383  14.167
80401W        W84362  17.789  21.980  11.603
80402W        W84363  17.398  22.317  11.222
80403W        W84364  17.463  22.924  13.408
80404W        W84365  16.252  22.455  12.925
80405W        W84366  18.132  22.353  12.997
80406W        W84367  15.095  21.987  14.462
80407W        W84368  16.290  21.938  11.763
80408W        W84369  17.003  22.807  12.622
80409W        W84370  15.942  22.356  11.595
80410W        W84371  16.740  22.821  12.158
80411W        W84372  15.541  22.616  11.452
80412W        W84373  17.058  22.758  11.777
80413W        W84374  16.144  22.282  12.441
80414W        W84375  16.274  23.217  11.241
80415W        W84376  16.210  22.408  13.724
80416W        W84377  17.882  22.117  11.151
80417W        W84378  16.490  21.969  12.290
80418W        W84379  16.048  22.694  13.352
80419W        W84380  15.748  22.063  12.821
80420W        W84381  14.864  22.410  12.661
80421W        W84382  14.664  22.229  11.738
80422W        W84383  17.205  22.821  11.237
80423W        W84384  17.077  21.984  11.057
80424W        W84385  17.074  23.002  14.433
80425W        W84386  15.057  22.532  14.432
80426W        W84387  14.788  23.132  11.765
80427W        W84388  17.059  22.015  12.136
80428W        W84389  16.469  22.262  11.352
80429W        W84390  18.150  21.890  12.074
80430W        W84391  18.004  22.862  12.227
80431W        W84392  15.901  22.608  14.225
80432W        W84393  15.721  23.192  13.466
80433W        W84394  16.913  22.637  14.120
80434W        W84395  14.757  23.108  13.897
80435W        W84396  17.006  23.045  13.884
80436W        W84397  16.216  22.976  14.252
80437W        W84398  14.703  22.628  17.681
80438W        W84399  15.465  21.908  17.483
80439W        W84400  17.159  22.296  16.370
80440W        W84401  16.808  23.167  14.940
80441W        W84402  17.378  22.601  18.031
80442W        W84403  14.744  22.393  17.156
80443W        W84404  15.690  23.076  17.839
80444W        W84405  18.149  22.935  16.338
80445W        W84406  15.890  23.140  16.646
80446W        W84407  14.648  23.124  18.147
80447W        W84408  15.061  22.241  15.744
80448W        W84409  17.464  22.682  16.600
80449W        W84410  17.749  22.635  14.695
80450W        W84411  15.274  22.195  17.048
80451W        W84412  17.897  23.213  17.323
80452W        W84413  16.282  22.797  16.148
80453W        W84414  16.655  22.333  15.580
80454W        W84415  14.683  22.526  15.862
80455W        W84416  17.469  23.133  16.336
80456W        W84417  17.660  23.126  14.585
80457W        W84418  15.869  22.221  16.941
80458W        W84419  18.098  21.983  16.238
80459W        W84420  14.972  22.888  14.885
80460W        W84421  16.423  22.828  15.325
80461W        W84422  17.483  23.079  17.695
80462W        W84423  16.904  23.257  15.470
80463W        W84424  15.124  23.167  17.048
80464W        W84425  14.999  21.960  16.129
80465W        W84426  16.767  22.307  16.690
80466W        W84427  16.415  22.492  17.853
80467W        W84428  16.770  22.641  15.031
80468W        W84429  16.920  22.115  17.824
80469W        W84430  17.369  22.583  17.542
80470W        W84431  17.169  22.521  15.812
80471W        W84432  15.960  22.948  15.188
80472W        W84433  15.529  22.232  17.852
80473W        W84434  17.581  22.716  15.533
80474W        W84435  17.948  23.198  15.478
80475W        W84436  15.617  21.951  15.184
80476W        W84437  17.938  22.485  16.219
80477W        W84438  16.912  22.524  14.596
80478W        W84439  18.085  22.050  17.066
80479W        W84440  16.697  21.872  16.372
80480W        W84441  15.309  22.775  16.435
80481W        W84442  17.916  22.765  16.787
80482W        W84443  18.183  22.165  17.561
80483W        W84444  16.549  22.886  16.600
80484W        W84445  17.688  22.917  15.080
80485W        W84446  14.916  22.652  16.720
80486W        W84447  16.976  22.629  17.183
80487W        W84448  17.880  22.291  15.710
80488W        W84449  14.654  22.931  17.049
80489W        W84450  17.514  22.726  16.067
80490W        W84451  17.925  22.877  17.844
80491W        W84452  15.181  22.347  14.933
80492W        W84453  16.285  22.001  16.743
80493W        W84454  16.171  22.574  15.645
80494W        W84455  17.527  22.171  16.073
80495W        W84456  15.524  22.592  14.622
80496W        W84457  16.325  23.201  17.016
80497W        W84458  17.173  22.067  16.886
80498W        W84459  15.565  22.043  14.699
80499W        W84460  16.303  23.124  15.750
80500W        W84461  17.273  22.100  17.449
80501W        W84462  16.566  22.064  18.173
80502W        W84463  15.788  22.680  16.566
80503W        W84464  15.214  22.636  15.964
80504W        W84465  16.674  22.416  16.138
80505W        W84466  18.153  22.694  15.406
80506W        W84467  16.530  22.625  17.007
80507W        W84468  15.616  22.874  15.573
80508W        W84469  16.448  22.784  14.625
80509W        W84470  17.385  22.255  15.420
80510W        W84471  15.991  22.161  18.044
80511W        W84472  16.700  22.303  17.400
80512W        W84473  15.895  22.071  15.681
80513W        W84474  16.954  22.148  15.186
80514W        W84475  14.899  22.080  16.763
80515W        W84476  17.636  22.151  16.539
80516W        W84477  15.058  22.649  15.353
80517W        W84478  17.629  22.337  16.969
80518W        W84479  15.317  22.298  16.473
80519W        W84480  16.431  22.870  17.413
80520W        W84481  17.751  21.975  17.437
80521W        W84482  18.187  22.296  18.042
80522W        W84483  17.905  23.224  16.663
80523W        W84484  16.068  21.983  14.867
80524W        W84485  15.376  22.675  17.696
80525W        W84486  17.936  22.660  17.356
80526W        W84487  15.636  22.354  17.358
80527W        W84488  15.131  22.726  17.297
80528W        W84489  16.432  21.981  17.661
80529W        W84490  15.487  22.716  16.956
80530W        W84491  15.457  22.064  16.066
80531W        W84492  17.078  22.906  16.758
80532W        W84493  15.687  22.479  16.122
80533W        W84494  17.815  22.447  15.158
80534W        W84495  15.954  21.966  17.561
80535W        W84496  15.806  22.997  16.140
80536W        W84497  15.812  22.866  17.439
80537W        W84498  18.114  23.132  14.996
80538W        W84499  16.849  23.199  17.092
80539W        W84500  17.410  22.093  17.944
80540W        W84501  15.074  22.243  17.531
80541W        W84502  15.413  23.266  16.584
80542W        W84503  15.782  23.080  14.706
80543W        W84504  15.993  22.573  14.799
80544W        W84505  17.789  22.383  17.811
80545W        W84506  17.789  21.980  15.247
80546W        W84507  17.398  22.317  14.866
80547W        W84508  17.463  22.924  17.052
80548W        W84509  16.252  22.455  16.569
80549W        W84510  18.132  22.353  16.641
80550W        W84511  15.095  21.987  18.106
80551W        W84512  16.290  21.938  15.407
80552W        W84513  17.003  22.807  16.266
80553W        W84514  15.942  22.356  15.239
80554W        W84515  16.740  22.821  15.802
80555W        W84516  15.541  22.616  15.096
80556W        W84517  17.058  22.758  15.421
80557W        W84518  16.144  22.282  16.085
80558W        W84519  16.274  23.217  14.885
80559W        W84520  16.210  22.408  17.368
80560W        W84521  17.882  22.117  14.795
80561W        W84522  16.490  21.969  15.934
80562W        W84523  16.048  22.694  16.996
80563W        W84524  15.748  22.063  16.465
80564W        W84525  14.864  22.410  16.305
80565W        W84526  17.205  22.821  14.881
80566W        W84527  17.077  21.984  14.701
80567W        W84528  17.074  23.002  18.077
80568W        W84529  15.057  22.532  18.076
80569W        W84530  17.059  22.015  15.780
80570W        W84531  16.469  22.262  14.996
80571W        W84532  18.150  21.890  15.718
80572W        W84533  18.004  22.862  15.871
80573W        W84534  15.901  22.608  17.869
80574W        W84535  15.721  23.192  17.110
80575W        W84536  16.913  22.637  17.764
80576W        W84537  14.757  23.108  17.541
80577W        W84538  17.006  23.045  17.528
80578W        W84539  16.216  22.976  17.896
80579W        W84540  14.703  22.628  21.325
80580W        W84541  15.465  21.908  21.127
80581W        W84542  17.159  22.296  20.014
80582W        W84543  16.808  23.167  18.584
80583W        W84544  17.378  22.601  21.675
80584W        W84545  14.744  22.393  20.800
80585W        W84546  15.690  23.076  21.483
80586W        W84547  18.149  22.935  19.982
80587W        W84548  15.890  23.140  20.290
80588W        W84549  14.648  23.124  21.791
80589W        W84550  15.061  22.241  19.388
80590W        W84551  17.464  22.682  20.244
80591W        W84552  17.749  22.635  18.339
80592W        W84553  15.274  22.195  20.692
80593W        W84554  17.897  23.213  20.967
80594W        W84555  16.282  22.797  19.792
80595W        W84556  16.655  22.333  19.224
80596W        W84557  14.683  22.526  19.506
80597W        W84558  17.469  23.133  19.980
80598W        W84559  17.660  23.126  18.229
80599W        W84560  15.869  22.221  20.585
80600W        W84561  18.098  21.983  19.882
80601W        W84562  14.972  22.888  18.529
80602W        W84563  16.423  22.828  18.969
80603W        W84564  17.483  23.079  21.339
80604W        W84565  16.904  23.257  19.114
80605W        W84566  15.124  23.167  20.692
80606W        W84567  14.999  21.960  19.773
80607W        W84568  16.767  22.307  20.334
80608W        W84569  16.415  22.492  21.497
80609W        W84570  16.770  22.641  18.675
80610W        W84571  16.920  22.115  21.468
80611W        W84572  17.369  22.583  21.186
80612W        W84573  17.169  22.521  19.456
80613W        W84574  15.960  22.948  18.832
80614W        W84575  15.529  22.232  21.496
80615W        W84576  17.581  22.716  19.177
80616W        W84577  17.948  23.198  19.122
80617W        W84578  15.617  21.951  18.828
80618W        W84579  17.938  22.485  19.863
80619W        W84580  16.912  22.524  18.240
80620W        W84581  18.085  22.050  20.710
80621W        W84582  16.697  21.872  20.016
80622W        W84583  15.309  22.775  20.079
80623W        W84584  17.916  22.765  20.431
80624W        W84585  18.183  22.165  21.205
80625W        W84586  16.549  22.886  20.244
80626W        W84587  17.688  22.917  18.724
80627W        W84588  14.916  22.652  20.364
80628W        W84589  16.976  22.629  20.827
80629W        W84590  17.880  22.291  19.354
80630W        W84591  14.654  22.931  20.693
80631W        W84592  17.514  22.726  19.711
80632W        W84593  17.925  22.877  21.488
80633W        W84594  15.181  22.347  18.577
80634W        W84595  16.285  22.001  20.387
80635W        W84596  16.171  22.574  19.289
80636W        W84597  17.527  22.171  19.717
80637W        W84598  15.519  22.364  19.241
80638W        W84599  15.524  22.592  18.266
80639W        W84600  16.325  23.201  20.660
80640W        W84601  17.173  22.067  20.530
80641W        W84602  15.565  22.043  18.343
80642W        W84603  16.303  23.124  19.394
80643W        W84604  17.273  22.100  21.093
80644W        W84605  16.566  22.064  21.817
80645W        W84606  15.788  22.680  20.210
80646W        W84607  15.214  22.636  19.608
80647W        W84608  16.674  22.416  19.782
80648W        W84609  18.153  22.694  19.050
80649W        W84610  16.530  22.625  20.651
80650W        W84611  15.616  22.874  19.217
80651W        W84612  16.448  22.784  18.269
80652W        W84613  17.385  22.255  19.064
80653W        W84614  14.715  22.103  18.512
80654W        W84615  15.991  22.161  21.688
80655W        W84616  16.700  22.303  21.044
80656W        W84617  15.895  22.071  19.325
80657W        W84618  16.954  22.148  18.830
80658W        W84619  14.899  22.080  20.407
80659W        W84620  17.636  22.151  20.183
80660W        W84621  15.058  22.649  18.997
80661W        W84622  17.629  22.337  20.613
80662W        W84623  15.317  22.298  20.117
80663W        W84624  16.431  22.870  21.057
80664W        W84625  14.579  22.560  18.535
80665W        W84626  17.751  21.975  21.081
80666W        W84627  18.187  22.296  21.686
80667W        W84628  17.905  23.224  20.307
80668W        W84629  16.068  21.983  18.511
80669W        W84630  15.376  22.675  21.340
80670W        W84631  17.936  22.660  21.000
80671W        W84632  15.636  22.354  21.002
80672W        W84633  15.131  22.726  20.941
80673W        W84634  16.432  21.981  21.305
80674W        W84635  15.487  22.716  20.600
80675W        W84636  15.457  22.064  19.710
80676W        W84637  17.078  22.906  20.402
80677W        W84638  15.687  22.479  19.766
80678W        W84639  17.815  22.447  18.802
80679W        W84640  15.954  21.966  21.205
80680W        W84641  15.806  22.997  19.784
80681W        W84642  15.812  22.866  21.083
80682W        W84643  18.114  23.132  18.640
80683W        W84644  16.849  23.199  20.736
80684W        W84645  17.410  22.093  21.588
80685W        W84646  15.074  22.243  21.175
80686W        W84647  15.413  23.266  20.228
80687W        W84648  15.782  23.080  18.350
80688W        W84649  15.993  22.573  18.443
80689W        W84650  17.789  22.383  21.455
80690W        W84651  17.789  21.980  18.891
80691W        W84652  17.398  22.317  18.510
80692W        W84653  17.463  22.924  20.696
80693W        W84654  16.252  22.455  20.213
80694W        W84655  18.132  22.353  20.285
80695W        W84656  15.095  21.987  21.750
80696W        W84657  16.290  21.938  19.051
80697W        W84658  17.003  22.807  19.910
80698W        W84659  15.942  22.356  18.883
80699W        W84660  16.740  22.821  19.446
80700W        W84661  15.541  22.616  18.740
80701W        W84662  17.058  22.758  19.065
80702W        W84663  16.144  22.282  19.729
80703W        W84664  16.274  23.217  18.529
80704W        W84665  16.210  22.408  21.012
80705W        W84666  17.882  22.117  18.439
80706W        W84667  16.490  21.969  19.578
80707W        W84668  16.048  22.694  20.640
80708W        W84669  15.748  22.063  20.109
80709W        W84670  14.864  22.410  19.949
80710W        W84671  14.664  22.229  19.026
80711W        W84672  17.205  22.821  18.525
80712W        W84673  17.077  21.984  18.345
80713W        W84674  17.074  23.002  21.721
80714W        W84675  15.057  22.532  21.720
80715W        W84676  14.788  23.132  19.053
80716W        W84677  17.059  22.015  19.424
80717W        W84678  16.469  22.262  18.640
80718W        W84679  18.150  21.890  19.362
80719W        W84680  18.004  22.862  19.515
80720W        W84681  15.901  22.608  21.513
80721W        W84682  15.721  23.192  20.754
80722W        W84683  16.913  22.637  21.408
80723W        W84684  14.757  23.108  21.185
80724W        W84685  17.006  23.045  21.172
80725W        W84686  16.216  22.976  21.540
80726W        W84687  16.808  23.167  22.229
80727W        W84688  15.061  22.241  23.033
80728W        W84689  17.749  22.635  21.984
80729W        W84690  16.655  22.333  22.869
80730W        W84691  17.660  23.126  21.874
80731W        W84692  14.972  22.888  22.174
80732W        W84693  16.423  22.828  22.614
80733W        W84694  16.904  23.257  22.759
80734W        W84695  16.770  22.641  22.320
80735W        W84696  17.169  22.521  23.101
80736W        W84697  15.960  22.948  22.477
80737W        W84698  17.581  22.716  22.822
80738W        W84699  17.948  23.198  22.767
80739W        W84700  15.617  21.951  22.473
80740W        W84701  16.912  22.524  21.885
80741W        W84702  17.688  22.917  22.369
80742W        W84703  17.880  22.291  22.999
80743W        W84704  15.181  22.347  22.222
80744W        W84705  16.171  22.574  22.934
80745W        W84706  15.519  22.364  22.886
80746W        W84707  15.524  22.592  21.911
80747W        W84708  15.565  22.043  21.988
80748W        W84709  16.303  23.124  23.039
80749W        W84710  15.214  22.636  23.253
80750W        W84711  18.153  22.694  22.695
80751W        W84712  15.616  22.874  22.862
80752W        W84713  16.448  22.784  21.914
80753W        W84714  17.385  22.255  22.709
80754W        W84715  14.715  22.103  22.157
80755W        W84716  15.895  22.071  22.970
80756W        W84717  16.954  22.148  22.475
80757W        W84718  15.058  22.649  22.642
80758W        W84719  14.579  22.560  22.180
80759W        W84720  16.068  21.983  22.156
80760W        W84721  17.815  22.447  22.447
80761W        W84722  18.114  23.132  22.285
80762W        W84723  15.782  23.080  21.995
80763W        W84724  15.993  22.573  22.088
80764W        W84725  17.789  21.980  22.536
80765W        W84726  17.398  22.317  22.155
80766W        W84727  16.290  21.938  22.696
80767W        W84728  15.942  22.356  22.528
80768W        W84729  16.740  22.821  23.091
80769W        W84730  15.541  22.616  22.385
80770W        W84731  17.058  22.758  22.710
80771W        W84732  16.274  23.217  22.174
80772W        W84733  17.882  22.117  22.084
80773W        W84734  16.490  21.969  23.223
80774W        W84735  14.664  22.229  22.671
80775W        W84736  17.205  22.821  22.170
80776W        W84737  17.077  21.984  21.990
80777W        W84738  14.788  23.132  22.698
80778W        W84739  16.469  22.262  22.285
80779W        W84740  18.150  21.890  23.007
80780W        W84741  18.004  22.862  23.160
80781W        W84742  18.305   3.595   3.359
80782W        W84743  18.681   2.488   2.882
80783W        W84744  21.386   2.218   0.652
80784W        W84745  21.516   3.303   2.679
80785W        W84746  19.434   3.294   0.205
80786W        W84747  19.517   1.446   1.188
80787W        W84748  19.032   1.294   1.352
80788W        W84749  20.023   2.109   0.786
80789W        W84750  19.698   3.201   3.141
80790W        W84751  18.347   0.762   3.104
80791W        W84752  19.109   0.042   2.906
80792W        W84753  20.803   0.430   1.793
80793W        W84754  20.452   1.301   0.363
80794W        W84755  21.022   0.735   3.454
80795W        W84756  18.388   0.527   2.579
80796W        W84757  18.487   3.146   3.600
80797W        W84758  20.009   2.536   0.332
80798W        W84759  18.441   1.319   2.025
80799W        W84760  19.334   1.210   3.262
80800W        W84761  21.793   1.069   1.761
80801W        W84762  21.557   2.112   2.620
80802W        W84763  19.865   1.445   1.647
80803W        W84764  20.411   2.784   2.016
80804W        W84765  18.911   2.218   2.248
80805W        W84766  18.270   1.746   1.819
80806W        W84767  19.306   1.718   3.011
80807W        W84768  21.577   1.501   3.265
80808W        W84769  19.193   2.945   1.710
80809W        W84770  20.314   2.634   2.844
80810W        W84771  19.534   1.274   2.069
80811W        W84772  19.826   2.058   1.712
80812W        W84773  20.823   2.831   3.560
80813W        W84774  19.902   2.151   3.570
80814W        W84775  19.883   1.867   3.048
80815W        W84776  18.292   1.258   3.570
80816W        W84777  21.124   2.793   3.169
80817W        W84778  18.705   0.375   1.167
80818W        W84779  19.232   2.633   2.166
80819W        W84780  21.695   2.416   1.456
80820W        W84781  21.108   0.816   2.023
80821W        W84782  21.393   0.769   0.118
80822W        W84783  21.858   1.570   2.424
80823W        W84784  19.825   3.277   2.177
80824W        W84785  21.599   2.743   0.615
80825W        W84786  18.728   3.529   0.369
80826W        W84787  19.121   3.575   1.045
80827W        W84788  18.918   0.329   2.471
80828W        W84789  21.541   1.347   2.746
80829W        W84790  20.946   1.769   1.205
80830W        W84791  20.912   1.457   0.232
80831W        W84792  20.120   2.601   2.372
80832W        W84793  19.926   0.931   1.571
80833W        W84794  20.526   3.018   2.565
80834W        W84795  21.397   1.809   0.987
80835W        W84796  20.299   0.467   1.003
80836W        W84797  18.956   3.161   0.686
80837W        W84798  18.327   0.660   1.285
80838W        W84799  21.113   1.267   1.759
80839W        W84800  18.571   2.884   1.674
80840W        W84801  19.912   3.234   0.544
80841W        W84802  21.304   1.260   0.008
80842W        W84803  18.327   3.018   2.172
80843W        W84804  19.118   2.590   2.652
80844W        W84805  19.491   1.950   1.271
80845W        W84806  19.513   0.355   2.364
80846W        W84807  21.742   0.117   1.661
80847W        W84808  18.961   1.989   0.129
80848W        W84809  18.616   1.022   0.308
80849W        W84810  18.678   2.978   1.102
80850W        W84811  19.809   2.461   1.350
80851W        W84812  21.141   3.320   3.064
80852W        W84813  20.067   0.962   0.748
80853W        W84814  21.450   3.360   1.520
80854W        W84815  21.127   1.213   3.118
80855W        W84816  21.840   2.869   1.252
80856W        W84817  20.467   2.161   2.736
80857W        W84818  18.233   1.712   0.942
80858W        W84819  19.344   2.127   2.515
80859W        W84820  20.548   1.391   0.893
80860W        W84821  20.425   1.881   0.997
80861W        W84822  18.768   1.301   2.471
80862W        W84823  18.753   1.177   3.393
80863W        W84824  18.643   0.094   1.552
80864W        W84825  20.411   0.441   2.113
80865W        W84826  20.059   0.626   3.276
80866W        W84827  20.414   0.775   0.454
80867W        W84828  21.597   3.168   3.208
80868W        W84829  20.564   0.249   3.247
80869W        W84830  21.583   2.550   3.369
80870W        W84831  21.013   0.717   2.965
80871W        W84832  20.813   0.655   1.235
80872W        W84833  21.206   1.789   3.639
80873W        W84834  18.946   3.365   1.625
80874W        W84835  19.604   1.082   0.611
80875W        W84836  19.173   0.366   3.275
80876W        W84837  21.225   0.850   0.956
80877W        W84838  21.592   1.332   0.901
80878W        W84839  19.335   3.549   3.372
80879W        W84840  19.261   0.085   0.607
80880W        W84841  21.582   0.619   1.642
80881W        W84842  21.732   2.868   0.087
80882W        W84843  18.639   2.071   1.789
80883W        W84844  20.556   0.658   0.019
80884W        W84845  21.690   2.990   1.739
80885W        W84846  21.729   0.184   2.489
80886W        W84847  20.174   1.396   3.043
80887W        W84848  20.267   2.735   0.746
80888W        W84849  20.667   2.029   3.486
80889W        W84850  20.341   0.006   1.795
80890W        W84851  18.953   0.909   1.858
80891W        W84852  18.507   2.109   2.632
80892W        W84853  20.366   3.302   1.338
80893W        W84854  21.560   0.899   2.210
80894W        W84855  20.197   3.246   2.977
80895W        W84856  21.540   2.305   0.182
80896W        W84857  19.975   1.788   1.243
80897W        W84858  21.827   0.299   2.984
80898W        W84859  19.976   2.134   2.578
80899W        W84860  20.193   1.020   2.023
80900W        W84861  21.045   1.318   0.861
80901W        W84862  21.332   1.051   0.503
80902W        W84863  21.141   3.091   0.892
80903W        W84864  20.975   2.694   1.688
80904W        W84865  20.871   1.773   0.666
80905W        W84866  20.304   1.983   1.652
80906W        W84867  21.185   1.771   1.719
80907W        W84868  18.560   0.786   2.143
80908W        W84869  21.338   1.838   2.970
80909W        W84870  21.689   3.456   2.116
80910W        W84871  19.619   2.900   1.518
80911W        W84872  20.626   3.433   2.842
80912W        W84873  20.620   0.763   2.606
80913W        W84874  19.827   3.471   2.667
80914W        W84875  21.524   0.425   1.133
80915W        W84876  21.315   1.744   2.434
80916W        W84877  18.298   1.065   2.472
80917W        W84878  21.158   0.860   1.490
80918W        W84879  21.569   1.011   3.267
80919W        W84880  20.454   2.710   1.485
80920W        W84881  19.710   3.301   1.098
80921W        W84882  18.825   0.481   0.356
80922W        W84883  19.929   0.135   2.166
80923W        W84884  18.957   3.255   0.014
80924W        W84885  19.331   1.721   0.765
80925W        W84886  19.985   2.350   3.078
80926W        W84887  19.815   0.708   1.068
80927W        W84888  21.171   0.305   1.496
80928W        W84889  20.891   3.587   1.824
80929W        W84890  20.303   3.235   2.164
80930W        W84891  19.699   2.272   2.125
80931W        W84892  21.469   2.995   2.251
80932W        W84893  19.163   0.498   1.020
80933W        W84894  19.685   2.795   1.980
80934W        W84895  19.168   0.726   0.045
80935W        W84896  19.969   1.335   2.439
80936W        W84897  20.817   0.201   2.309
80937W        W84898  18.237   2.044   2.194
80938W        W84899  19.941   1.862   0.352
80939W        W84900  19.209   0.177   0.122
80940W        W84901  19.947   1.258   1.173
80941W        W84902  20.917   0.234   2.872
80942W        W84903  19.505   2.246   2.981
80943W        W84904  20.309   2.028   3.198
80944W        W84905  20.926   2.058   3.091
80945W        W84906  20.210   0.198   3.596
80946W        W84907  19.432   0.814   1.989
80947W        W84908  18.858   0.770   1.387
80948W        W84909  18.644   3.482   1.063
80949W        W84910  19.976   2.812   3.188
80950W        W84911  19.011   2.297   0.547
80951W        W84912  20.691   1.682   1.768
80952W        W84913  20.971   1.481   2.167
80953W        W84914  20.176   2.155   2.101
80954W        W84915  20.646   2.529   0.233
80955W        W84916  20.318   0.550   1.561
80956W        W84917  21.797   0.828   0.829
80957W        W84918  18.291   3.417   2.860
80958W        W84919  18.708   2.643   2.392
80959W        W84920  18.275   3.489   0.624
80960W        W84921  20.174   0.759   2.430
80961W        W84922  19.537   2.782   0.279
80962W        W84923  21.442   3.164   0.465
80963W        W84924  20.417   1.817   0.479
80964W        W84925  19.260   1.008   0.996
80965W        W84926  20.092   0.918   0.048
80966W        W84927  20.676   2.483   3.226
80967W        W84928  21.029   0.389   0.843
80968W        W84929  18.359   0.237   0.291
80969W        W84930  19.645   2.556   2.581
80970W        W84931  19.444   2.472   1.673
80971W        W84932  19.186   2.424   0.071
80972W        W84933  18.427   2.665   0.839
80973W        W84934  18.931   1.735   3.281
80974W        W84935  19.635   0.295   3.467
80975W        W84936  20.344   0.437   2.823
80976W        W84937  19.539   0.205   1.104
80977W        W84938  20.598   0.282   0.609
80978W        W84939  18.543   0.214   2.186
80979W        W84940  18.591   1.177   1.556
80980W        W84941  21.280   0.285   1.962
80981W        W84942  18.702   0.783   0.776
80982W        W84943  21.273   0.471   2.392
80983W        W84944  21.669   1.674   0.077
80984W        W84945  18.961   0.432   1.896
80985W        W84946  18.223   0.694   0.314
80986W        W84947  19.009   2.083   2.875
80987W        W84948  20.367   1.481   2.054
80988W        W84949  20.234   3.560   0.350
80989W        W84950  18.380   2.067   0.047
80990W        W84951  19.115   2.478   3.173
80991W        W84952  18.636   1.645   2.804
80992W        W84953  19.627   1.750   2.598
80993W        W84954  21.395   0.109   2.860
80994W        W84955  21.793   1.719   2.851
80995W        W84956  21.781   1.919   0.537
80996W        W84957  20.644   2.251   0.636
80997W        W84958  21.118   3.551   0.331
80998W        W84959  20.295   1.541   3.473
80999W        W84960  18.625   2.508   3.513
81000W        W84961  21.831   0.430   3.465
81001W        W84962  21.549   1.358   2.086
81002W        W84963  19.857   3.488   3.563
81003W        W84964  19.712   0.117   0.290
81004W        W84965  21.251   2.716   0.233
81005W        W84966  19.020   0.809   3.119
81006W        W84967  19.454   2.803   2.981
81007W        W84968  21.580   0.794   2.779
81008W        W84969  20.791   3.453   0.747
81009W        W84970  21.030   2.072   2.114
81010W        W84971  19.280   0.488   2.781
81011W        W84972  19.252   2.736   0.732
81012W        W84973  21.007   2.234   0.996
81013W        W84974  18.775   0.860   2.720
81014W        W84975  20.104   2.922   1.184
81015W        W84976  21.854   1.482   1.365
81016W        W84977  20.076   0.115   3.084
81017W        W84978  20.856   2.820   2.163
81018W        W84979  21.159   3.164   1.871
81019W        W84980  20.378   2.966   0.299
81020W        W84981  18.388   2.858   3.141
81021W        W84982  19.131   0.850   2.379
81022W        W84983  19.101   0.198   1.489
81023W        W84984  20.722   1.040   2.181
81024W        W84985  19.520   2.211   0.381
81025W        W84986  21.518   2.153   1.880
81026W        W84987  18.845   2.911   3.303
81027W        W84988  21.232   3.593   1.100
81028W        W84989  19.331   0.613   1.545
81029W        W84990  19.100   2.106   1.635
81030W        W84991  19.413   3.517   2.385
81031W        W84992  21.480   3.613   3.417
81032W        W84993  20.639   1.801   2.350
81033W        W84994  18.488   1.599   0.265
81034W        W84995  21.622   3.257   0.962
81035W        W84996  21.459   0.581   0.581
81036W        W84997  19.598   0.100   2.984
81037W        W84998  21.304   2.902   1.442
81038W        W84999  21.333   1.458   1.347
81039W        W85000  19.450   1.131   1.563
81040W        W85001  19.695   1.393   2.887
81041W        W85002  20.806   2.546   2.750
81042W        W85003  19.456   1.000   2.862
81043W        W85004  19.435   3.466   1.478
81044W        W85005  18.752   3.425   3.112
81045W        W85006  18.864   2.786   0.242
81046W        W85007  21.381   2.544   1.052
81047W        W85008  18.985   1.336   2.938
81048W        W85009  21.758   1.266   0.419
81049W        W85010  19.503   2.323   0.890
81050W        W85011  20.602   1.705   2.971
81051W        W85012  20.493   1.333   2.515
81052W        W85013  19.053   1.705   2.544
81053W        W85014  21.263   3.593   2.373
81054W        W85015  21.054   0.227   3.367
81055W        W85016  18.718   0.377   2.954
81056W        W85017  19.057   1.400   2.007
81057W        W85018  19.426   1.214   0.129
81058W        W85019  18.229   2.973   2.674
81059W        W85020  19.814   1.682   2.117
81060W        W85021  19.637   0.707   0.222
81061W        W85022  18.772   1.523   1.003
81062W        W85023  18.543   3.375   2.440
81063W        W85024  21.338   1.601   0.548
81064W        W85025  21.433   0.517   3.234
81065W        W85026  20.869   2.726   1.197
81066W        W85027  18.467   1.650   3.374
81067W        W85028  21.433   0.114   0.670
81068W        W85029  20.953   2.589   0.681
81069W        W85030  19.855   1.647   0.766
81070W        W85031  21.042   0.451   0.289
81071W        W85032  21.107   1.058   2.475
81072W        W85033  18.816   1.651   1.682
81073W        W85034  19.110   2.590   1.331
81074W        W85035  20.873   1.210   1.296
81075W        W85036  19.896   0.589   1.992
81076W        W85037  21.858   2.500   2.503
81077W        W85038  21.776   0.487   2.064
81078W        W85039  18.315   3.317   1.440
81079W        W85040  18.824   2.504   0.976
81080W        W85041  18.739   0.121   3.529
81081W        W85042  19.858   2.974   3.631
81082W        W85043  21.613   1.942   1.421
81083W        W85044  20.967   2.119   0.301
81084W        W85045  20.262   3.640   2.513
81085W        W85046  21.119   2.362   3.550
81086W        W85047  19.934   0.072   0.830
81087W        W85048  20.647   0.941   1.689
81088W        W85049  18.333   2.528   2.021
81089W        W85050  19.586   0.490   0.662
81090W        W85051  19.390   1.974   3.511
81091W        W85052  20.384   0.955   1.225
81092W        W85053  20.589   2.365   2.347
81093W        W85054  18.743   2.970   2.782
81094W        W85055  19.334   2.953   3.505
81095W        W85056  19.185   0.750   0.519
81096W        W85057  20.702   0.892   0.844
81097W        W85058  20.660   3.000   3.081
81098W        W85059  19.345   1.592   1.680
81099W        W85060  19.000   3.290   2.545
81100W        W85061  21.745   3.407   0.146
81101W        W85062  18.608   2.079   3.142
81102W        W85063  20.603   2.341   1.830
81103W        W85064  19.039   1.990   1.072
81104W        W85065  19.410   2.997   2.467
81105W        W85066  19.788   0.416   1.508
81106W        W85067  18.399   2.400   0.438
81107W        W85068  19.918   1.351   0.308
81108W        W85069  18.564   1.900   1.327
81109W        W85070  19.854   0.542   2.791
81110W        W85071  21.526   0.251   0.218
81111W        W85072  21.619   1.997   3.317
81112W        W85073  20.273   3.254   3.469
81113W        W85074  21.831   2.348   2.991
81114W        W85075  21.239   3.146   3.602
81115W        W85076  18.978   3.602   2.080
81116W        W85077  21.837   2.224   0.954
81117W        W85078  20.367   1.491   1.467
81118W        W85079  20.134   0.103   1.357
81119W        W85080  19.193   3.087   1.194
81120W        W85081  19.692   0.828   2.419
81121W        W85082  19.392   0.197   1.888
81122W        W85083  18.455   3.019   0.436
81123W        W85084  20.271   2.383   1.154
81124W        W85085  19.146   3.178   3.033
81125W        W85086  18.623   2.001   0.729
81126W        W85087  18.508   0.544   1.728
81127W        W85088  20.056   2.509   1.785
81128W        W85089  18.308   0.363   0.805
81129W        W85090  20.972   1.569   2.732
81130W        W85091  20.849   0.955   0.304
81131W        W85092  21.366   2.627   1.952
81132W        W85093  20.027   3.111   1.783
81133W        W85094  19.439   3.215   0.694
81134W        W85095  20.721   0.118   0.124
81135W        W85096  18.521   3.378   1.865
81136W        W85097  20.718   1.136   3.500
81137W        W85098  18.701   0.666   3.499
81138W        W85099  18.432   1.266   0.832
81139W        W85100  19.123   1.255   0.557
81140W        W85101  20.886   1.582   3.374
81141W        W85102  19.229   1.863   2.083
81142W        W85103  20.703   0.149   1.203
81143W        W85104  21.048   3.042   2.643
81144W        W85105  20.632   3.191   1.754
81145W        W85106  20.651   2.171   1.348
81146W        W85107  20.113   0.396   0.419
81147W        W85108  21.794   0.024   1.141
81148W        W85109  19.482   1.659   0.304
81149W        W85110  21.648   0.996   1.294
81150W        W85111  20.340   2.166   0.171
81151W        W85112  21.276   2.366   2.919
81152W        W85113  20.930   3.067   0.386
81153W        W85114  19.545   0.742   3.292
81154W        W85115  19.365   1.326   2.533
81155W        W85116  21.457   2.821   2.810
81156W        W85117  20.557   0.771   3.187
81157W        W85118  18.401   1.242   2.964
81158W        W85119  20.161   1.719   2.690
81159W        W85120  18.518   2.477   1.347
81160W        W85121  18.665   1.774   2.237
81161W        W85122  20.982   2.060   2.587
81162W        W85123  20.754   3.440   3.398
81163W        W85124  20.927   3.233   1.356
81164W        W85125  19.929   2.953   2.679
81165W        W85126  19.414   3.308   1.948
81166W        W85127  21.219   2.479   2.367
81167W        W85128  20.269   2.551   3.504
81168W        W85129  18.874   2.504   1.843
81169W        W85130  21.220   2.263   1.488
81170W        W85131  20.861   3.329   2.239
81171W        W85132  18.839   3.058   2.109
81172W        W85133  20.311   3.276   0.830
81173W        W85134  19.619   2.531   3.468
81174W        W85135  19.745   2.769   0.845
81175W        W85136  18.966   1.509   0.104
81176W        W85137  18.305   3.595   7.003
81177W        W85138  18.681   2.488   6.526
81178W        W85139  21.386   2.218   4.296
81179W        W85140  21.516   3.303   6.323
81180W        W85141  19.434   3.294   3.849
81181W        W85142  19.517   1.446   4.832
81182W        W85143  19.032   1.294   4.996
81183W        W85144  20.023   2.109   4.430
81184W        W85145  19.698   3.201   6.785
81185W        W85146  18.347   0.762   6.748
81186W        W85147  19.109   0.042   6.550
81187W        W85148  20.803   0.430   5.437
81188W        W85149  20.452   1.301   4.007
81189W        W85150  21.022   0.735   7.098
81190W        W85151  18.388   0.527   6.223
81191W        W85152  18.487   3.146   7.244
81192W        W85153  20.009   2.536   3.976
81193W        W85154  18.441   1.319   5.669
81194W        W85155  19.334   1.210   6.906
81195W        W85156  21.793   1.069   5.405
81196W        W85157  21.557   2.112   6.264
81197W        W85158  19.865   1.445   5.291
81198W        W85159  20.411   2.784   5.660
81199W        W85160  18.911   2.218   5.892
81200W        W85161  18.270   1.746   5.463
81201W        W85162  19.306   1.718   6.655
81202W        W85163  21.577   1.501   6.909
81203W        W85164  19.193   2.945   5.354
81204W        W85165  20.314   2.634   6.488
81205W        W85166  19.534   1.274   5.713
81206W        W85167  19.826   2.058   5.356
81207W        W85168  20.823   2.831   7.204
81208W        W85169  19.902   2.151   7.214
81209W        W85170  19.883   1.867   6.692
81210W        W85171  18.292   1.258   7.214
81211W        W85172  21.124   2.793   6.813
81212W        W85173  18.705   0.375   4.811
81213W        W85174  19.232   2.633   5.810
81214W        W85175  21.695   2.416   5.100
81215W        W85176  21.108   0.816   5.667
81216W        W85177  21.393   0.769   3.762
81217W        W85178  21.858   1.570   6.068
81218W        W85179  19.825   3.277   5.821
81219W        W85180  21.599   2.743   4.259
81220W        W85181  18.728   3.529   4.013
81221W        W85182  19.121   3.575   4.689
81222W        W85183  18.918   0.329   6.115
81223W        W85184  21.541   1.347   6.390
81224W        W85185  20.946   1.769   4.849
81225W        W85186  20.912   1.457   3.876
81226W        W85187  20.120   2.601   6.016
81227W        W85188  19.926   0.931   5.215
81228W        W85189  20.526   3.018   6.209
81229W        W85190  21.397   1.809   4.631
81230W        W85191  20.299   0.467   4.647
81231W        W85192  18.956   3.161   4.330
81232W        W85193  18.327   0.660   4.929
81233W        W85194  21.113   1.267   5.403
81234W        W85195  18.571   2.884   5.318
81235W        W85196  19.912   3.234   4.188
81236W        W85197  21.304   1.260   3.652
81237W        W85198  18.327   3.018   5.816
81238W        W85199  19.118   2.590   6.296
81239W        W85200  19.491   1.950   4.915
81240W        W85201  19.513   0.355   6.008
81241W        W85202  21.742   0.117   5.305
81242W        W85203  18.961   1.989   3.773
81243W        W85204  18.616   1.022   3.952
81244W        W85205  18.678   2.978   4.746
81245W        W85206  19.809   2.461   4.994
81246W        W85207  21.141   3.320   6.708
81247W        W85208  20.067   0.962   4.392
81248W        W85209  21.450   3.360   5.164
81249W        W85210  21.127   1.213   6.762
81250W        W85211  21.840   2.869   4.896
81251W        W85212  20.467   2.161   6.380
81252W        W85213  18.233   1.712   4.586
81253W        W85214  19.344   2.127   6.159
81254W        W85215  20.548   1.391   4.537
81255W        W85216  20.425   1.881   4.641
81256W        W85217  18.768   1.301   6.115
81257W        W85218  18.753   1.177   7.037
81258W        W85219  18.643   0.094   5.196
81259W        W85220  20.411   0.441   5.757
81260W        W85221  20.059   0.626   6.920
81261W        W85222  20.414   0.775   4.098
81262W        W85223  21.597   3.168   6.852
81263W        W85224  20.564   0.249   6.891
81264W        W85225  21.583   2.550   7.013
81265W        W85226  21.013   0.717   6.609
81266W        W85227  20.813   0.655   4.879
81267W        W85228  21.206   1.789   7.283
81268W        W85229  18.946   3.365   5.269
81269W        W85230  19.604   1.082   4.255
81270W        W85231  19.173   0.366   6.919
81271W        W85232  21.225   0.850   4.600
81272W        W85233  21.592   1.332   4.545
81273W        W85234  19.335   3.549   7.016
81274W        W85235  19.261   0.085   4.251
81275W        W85236  21.582   0.619   5.286
81276W        W85237  21.732   2.868   3.731
81277W        W85238  18.639   2.071   5.433
81278W        W85239  20.556   0.658   3.663
81279W        W85240  21.690   2.990   5.383
81280W        W85241  21.729   0.184   6.133
81281W        W85242  20.174   1.396   6.687
81282W        W85243  20.267   2.735   4.390
81283W        W85244  20.667   2.029   7.130
81284W        W85245  20.341   0.006   5.439
81285W        W85246  18.953   0.909   5.502
81286W        W85247  18.507   2.109   6.276
81287W        W85248  20.366   3.302   4.982
81288W        W85249  21.560   0.899   5.854
81289W        W85250  20.197   3.246   6.621
81290W        W85251  21.540   2.305   3.826
81291W        W85252  19.975   1.788   4.887
81292W        W85253  21.827   0.299   6.628
81293W        W85254  19.976   2.134   6.222
81294W        W85255  20.193   1.020   5.667
81295W        W85256  21.045   1.318   4.505
81296W        W85257  21.332   1.051   4.147
81297W        W85258  21.141   3.091   4.536
81298W        W85259  20.975   2.694   5.332
81299W        W85260  20.871   1.773   4.310
81300W        W85261  20.304   1.983   5.296
81301W        W85262  21.185   1.771   5.363
81302W        W85263  18.560   0.786   5.787
81303W        W85264  21.338   1.838   6.614
81304W        W85265  21.689   3.456   5.760
81305W        W85266  19.619   2.900   5.162
81306W        W85267  20.626   3.433   6.486
81307W        W85268  20.620   0.763   6.250
81308W        W85269  19.827   3.471   6.311
81309W        W85270  21.524   0.425   4.777
81310W        W85271  21.315   1.744   6.078
81311W        W85272  18.298   1.065   6.116
81312W        W85273  21.158   0.860   5.134
81313W        W85274  21.569   1.011   6.911
81314W        W85275  20.454   2.710   5.129
81315W        W85276  19.710   3.301   4.742
81316W        W85277  18.825   0.481   4.000
81317W        W85278  19.929   0.135   5.810
81318W        W85279  18.957   3.255   3.658
81319W        W85280  19.331   1.721   4.409
81320W        W85281  19.985   2.350   6.722
81321W        W85282  19.815   0.708   4.712
81322W        W85283  21.171   0.305   5.140
81323W        W85284  20.891   3.587   5.468
81324W        W85285  20.303   3.235   5.808
81325W        W85286  19.699   2.272   5.769
81326W        W85287  21.469   2.995   5.895
81327W        W85288  19.163   0.498   4.664
81328W        W85289  19.685   2.795   5.624
81329W        W85290  19.168   0.726   3.689
81330W        W85291  19.969   1.335   6.083
81331W        W85292  20.817   0.201   5.953
81332W        W85293  18.237   2.044   5.838
81333W        W85294  19.941   1.862   3.996
81334W        W85295  19.209   0.177   3.766
81335W        W85296  19.947   1.258   4.817
81336W        W85297  20.917   0.234   6.516
81337W        W85298  19.505   2.246   6.625
81338W        W85299  20.309   2.028   6.842
81339W        W85300  20.926   2.058   6.735
81340W        W85301  20.210   0.198   7.240
81341W        W85302  19.432   0.814   5.633
81342W        W85303  18.858   0.770   5.031
81343W        W85304  18.644   3.482   4.707
81344W        W85305  19.976   2.812   6.832
81345W        W85306  19.011   2.297   4.191
81346W        W85307  20.691   1.682   5.412
81347W        W85308  20.971   1.481   5.811
81348W        W85309  20.176   2.155   5.745
81349W        W85310  20.646   2.529   3.877
81350W        W85311  20.318   0.550   5.205
81351W        W85312  21.797   0.828   4.473
81352W        W85313  18.291   3.417   6.504
81353W        W85314  18.708   2.643   6.036
81354W        W85315  18.275   3.489   4.268
81355W        W85316  20.174   0.759   6.074
81356W        W85317  19.537   2.782   3.923
81357W        W85318  21.442   3.164   4.109
81358W        W85319  20.417   1.817   4.123
81359W        W85320  19.260   1.008   4.640
81360W        W85321  20.676   2.483   6.870
81361W        W85322  21.029   0.389   4.487
81362W        W85323  18.359   0.237   3.935
81363W        W85324  19.645   2.556   6.225
81364W        W85325  19.444   2.472   5.317
81365W        W85326  19.186   2.424   3.715
81366W        W85327  18.427   2.665   4.483
81367W        W85328  18.931   1.735   6.925
81368W        W85329  19.635   0.295   7.111
81369W        W85330  20.344   0.437   6.467
81370W        W85331  19.539   0.205   4.748
81371W        W85332  20.598   0.282   4.253
81372W        W85333  18.543   0.214   5.830
81373W        W85334  18.591   1.177   5.200
81374W        W85335  21.280   0.285   5.606
81375W        W85336  18.702   0.783   4.420
81376W        W85337  21.273   0.471   6.036
81377W        W85338  21.669   1.674   3.721
81378W        W85339  18.961   0.432   5.540
81379W        W85340  20.075   1.004   6.480
81380W        W85341  18.223   0.694   3.958
81381W        W85342  19.009   2.083   6.519
81382W        W85343  20.367   1.481   5.698
81383W        W85344  20.234   3.560   3.994
81384W        W85345  18.380   2.067   3.691
81385W        W85346  19.115   2.478   6.817
81386W        W85347  18.636   1.645   6.448
81387W        W85348  19.627   1.750   6.242
81388W        W85349  21.395   0.109   6.504
81389W        W85350  21.793   1.719   6.495
81390W        W85351  21.781   1.919   4.181
81391W        W85352  20.644   2.251   4.280
81392W        W85353  21.118   3.551   3.975
81393W        W85354  20.295   1.541   7.117
81394W        W85355  18.625   2.508   7.157
81395W        W85356  21.831   0.430   7.109
81396W        W85357  21.549   1.358   5.730
81397W        W85358  19.857   3.488   7.207
81398W        W85359  19.712   0.117   3.934
81399W        W85360  21.251   2.716   3.877
81400W        W85361  19.020   0.809   6.763
81401W        W85362  19.454   2.803   6.625
81402W        W85363  21.580   0.794   6.423
81403W        W85364  20.791   3.453   4.391
81404W        W85365  21.030   2.072   5.758
81405W        W85366  19.280   0.488   6.425
81406W        W85367  19.749   1.557   7.182
81407W        W85368  19.252   2.736   4.376
81408W        W85369  21.007   2.234   4.640
81409W        W85370  18.775   0.860   6.364
81410W        W85371  20.104   2.922   4.828
81411W        W85372  21.854   1.482   5.009
81412W        W85373  20.076   0.115   6.728
81413W        W85374  20.856   2.820   5.807
81414W        W85375  21.159   3.164   5.515
81415W        W85376  20.378   2.966   3.943
81416W        W85377  18.388   2.858   6.785
81417W        W85378  19.131   0.850   6.023
81418W        W85379  19.101   0.198   5.133
81419W        W85380  20.722   1.040   5.825
81420W        W85381  19.520   2.211   4.025
81421W        W85382  21.518   2.153   5.524
81422W        W85383  18.845   2.911   6.947
81423W        W85384  21.232   3.593   4.744
81424W        W85385  19.331   0.613   5.189
81425W        W85386  19.100   2.106   5.279
81426W        W85387  19.413   3.517   6.029
81427W        W85388  21.480   3.613   7.061
81428W        W85389  20.639   1.801   5.994
81429W        W85390  18.488   1.599   3.909
81430W        W85391  21.622   3.257   4.606
81431W        W85392  21.459   0.581   4.225
81432W        W85393  19.598   0.100   6.628
81433W        W85394  21.304   2.902   5.086
81434W        W85395  21.333   1.458   4.991
81435W        W85396  19.450   1.131   5.207
81436W        W85397  19.695   1.393   6.531
81437W        W85398  20.806   2.546   6.394
81438W        W85399  19.456   1.000   6.506
81439W        W85400  19.435   3.466   5.122
81440W        W85401  18.752   3.425   6.756
81441W        W85402  18.864   2.786   3.886
81442W        W85403  21.381   2.544   4.696
81443W        W85404  18.985   1.336   6.582
81444W        W85405  21.758   1.266   4.063
81445W        W85406  19.503   2.323   4.534
81446W        W85407  20.602   1.705   6.615
81447W        W85408  20.493   1.333   6.159
81448W        W85409  19.053   1.705   6.188
81449W        W85410  21.263   3.593   6.017
81450W        W85411  21.054   0.227   7.011
81451W        W85412  18.718   0.377   6.598
81452W        W85413  19.057   1.400   5.651
81453W        W85414  19.426   1.214   3.773
81454W        W85415  18.229   2.973   6.318
81455W        W85416  19.814   1.682   5.761
81456W        W85417  19.637   0.707   3.866
81457W        W85418  18.772   1.523   4.647
81458W        W85419  18.543   3.375   6.084
81459W        W85420  21.338   1.601   4.192
81460W        W85421  21.433   0.517   6.878
81461W        W85422  20.869   2.726   4.841
81462W        W85423  18.467   1.650   7.018
81463W        W85424  21.433   0.114   4.314
81464W        W85425  20.953   2.589   4.325
81465W        W85426  19.855   1.647   4.410
81466W        W85427  21.042   0.451   3.933
81467W        W85428  21.107   1.058   6.119
81468W        W85429  18.816   1.651   5.326
81469W        W85430  19.110   2.590   4.975
81470W        W85431  20.873   1.210   4.940
81471W        W85432  19.896   0.589   5.636
81472W        W85433  21.858   2.500   6.147
81473W        W85434  21.776   0.487   5.708
81474W        W85435  18.315   3.317   5.084
81475W        W85436  18.824   2.504   4.620
81476W        W85437  18.739   0.121   7.173
81477W        W85438  19.858   2.974   7.275
81478W        W85439  21.613   1.942   5.065
81479W        W85440  20.967   2.119   3.945
81480W        W85441  20.262   3.640   6.157
81481W        W85442  21.119   2.362   7.194
81482W        W85443  19.934   0.072   4.474
81483W        W85444  20.647   0.941   5.333
81484W        W85445  18.333   2.528   5.665
81485W        W85446  19.586   0.490   4.306
81486W        W85447  19.390   1.974   7.155
81487W        W85448  20.384   0.955   4.869
81488W        W85449  20.589   2.365   5.991
81489W        W85450  18.743   2.970   6.426
81490W        W85451  19.334   2.953   7.149
81491W        W85452  19.185   0.750   4.163
81492W        W85453  20.702   0.892   4.488
81493W        W85454  20.660   3.000   6.725
81494W        W85455  19.345   1.592   5.324
81495W        W85456  19.000   3.290   6.189
81496W        W85457  21.745   3.407   3.790
81497W        W85458  18.608   2.079   6.786
81498W        W85459  20.603   2.341   5.474
81499W        W85460  19.039   1.990   4.716
81500W        W85461  19.410   2.997   6.111
81501W        W85462  19.788   0.416   5.152
81502W        W85463  18.399   2.400   4.082
81503W        W85464  19.918   1.351   3.952
81504W        W85465  18.564   1.900   4.971
81505W        W85466  19.854   0.542   6.435
81506W        W85467  21.526   0.251   3.862
81507W        W85468  21.619   1.997   6.961
81508W        W85469  20.273   3.254   7.113
81509W        W85470  21.831   2.348   6.635
81510W        W85471  21.239   3.146   7.246
81511W        W85472  18.978   3.602   5.724
81512W        W85473  21.837   2.224   4.598
81513W        W85474  20.367   1.491   5.111
81514W        W85475  20.134   0.103   5.001
81515W        W85476  19.193   3.087   4.838
81516W        W85477  19.692   0.828   6.063
81517W        W85478  19.392   0.197   5.532
81518W        W85479  18.455   3.019   4.080
81519W        W85480  20.271   2.383   4.798
81520W        W85481  19.146   3.178   6.677
81521W        W85482  18.623   2.001   4.373
81522W        W85483  18.508   0.544   5.372
81523W        W85484  20.056   2.509   5.429
81524W        W85485  18.308   0.363   4.449
81525W        W85486  20.972   1.569   6.376
81526W        W85487  20.849   0.955   3.948
81527W        W85488  21.366   2.627   5.596
81528W        W85489  20.027   3.111   5.427
81529W        W85490  19.439   3.215   4.338
81530W        W85491  20.721   0.118   3.768
81531W        W85492  18.521   3.378   5.509
81532W        W85493  20.718   1.136   7.144
81533W        W85494  18.701   0.666   7.143
81534W        W85495  18.432   1.266   4.476
81535W        W85496  19.123   1.255   4.201
81536W        W85497  20.886   1.582   7.018
81537W        W85498  19.229   1.863   5.727
81538W        W85499  20.703   0.149   4.847
81539W        W85500  19.834   3.580   5.350
81540W        W85501  21.048   3.042   6.287
81541W        W85502  20.632   3.191   5.398
81542W        W85503  20.651   2.171   4.992
81543W        W85504  20.113   0.396   4.063
81544W        W85505  21.794   0.024   4.785
81545W        W85506  19.482   1.659   3.948
81546W        W85507  21.648   0.996   4.938
81547W        W85508  20.340   2.166   3.815
81548W        W85509  21.276   2.366   6.563
81549W        W85510  20.930   3.067   4.030
81550W        W85511  19.545   0.742   6.936
81551W        W85512  19.365   1.326   6.177
81552W        W85513  21.457   2.821   6.454
81553W        W85514  20.557   0.771   6.831
81554W        W85515  18.401   1.242   6.608
81555W        W85516  20.161   1.719   6.334
81556W        W85517  18.518   2.477   4.991
81557W        W85518  18.665   1.774   5.881
81558W        W85519  20.982   2.060   6.231
81559W        W85520  20.754   3.440   7.042
81560W        W85521  20.650   1.179   6.595
81561W        W85522  20.927   3.233   5.000
81562W        W85523  19.929   2.953   6.323
81563W        W85524  19.414   3.308   5.592
81564W        W85525  21.219   2.479   6.011
81565W        W85526  20.269   2.551   7.148
81566W        W85527  18.874   2.504   5.487
81567W        W85528  21.220   2.263   5.132
81568W        W85529  20.861   3.329   5.883
81569W        W85530  18.839   3.058   5.753
81570W        W85531  19.860   1.110   6.963
81571W        W85532  20.311   3.276   4.474
81572W        W85533  19.619   2.531   7.112
81573W        W85534  19.745   2.769   4.489
81574W        W85535  18.966   1.509   3.748
81575W        W85536  18.305   3.595  10.648
81576W        W85537  18.681   2.488  10.171
81577W        W85538  21.386   2.218   7.941
81578W        W85539  21.516   3.303   9.968
81579W        W85540  19.434   3.294   7.494
81580W        W85541  19.517   1.446   8.477
81581W        W85542  19.032   1.294   8.641
81582W        W85543  20.023   2.109   8.075
81583W        W85544  19.698   3.201  10.430
81584W        W85545  18.347   0.762  10.393
81585W        W85546  19.109   0.042  10.195
81586W        W85547  20.803   0.430   9.082
81587W        W85548  20.452   1.301   7.652
81588W        W85549  21.022   0.735  10.743
81589W        W85550  18.388   0.527   9.868
81590W        W85551  18.487   3.146  10.889
81591W        W85552  20.009   2.536   7.621
81592W        W85553  18.441   1.319   9.314
81593W        W85554  19.334   1.210  10.551
81594W        W85555  21.793   1.069   9.050
81595W        W85556  21.557   2.112   9.909
81596W        W85557  19.865   1.445   8.936
81597W        W85558  20.411   2.784   9.305
81598W        W85559  18.911   2.218   9.537
81599W        W85560  18.270   1.746   9.108
81600W        W85561  19.306   1.718  10.300
81601W        W85562  21.577   1.501  10.554
81602W        W85563  19.193   2.945   8.999
81603W        W85564  20.314   2.634  10.133
81604W        W85565  19.534   1.274   9.358
81605W        W85566  19.826   2.058   9.001
81606W        W85567  20.823   2.831  10.849
81607W        W85568  19.902   2.151  10.859
81608W        W85569  19.883   1.867  10.337
81609W        W85570  18.292   1.258  10.859
81610W        W85571  21.124   2.793  10.458
81611W        W85572  18.705   0.375   8.456
81612W        W85573  19.232   2.633   9.455
81613W        W85574  21.695   2.416   8.745
81614W        W85575  21.108   0.816   9.312
81615W        W85576  21.393   0.769   7.407
81616W        W85577  21.858   1.570   9.713
81617W        W85578  19.825   3.277   9.466
81618W        W85579  21.599   2.743   7.904
81619W        W85580  18.728   3.529   7.658
81620W        W85581  19.121   3.575   8.334
81621W        W85582  18.918   0.329   9.760
81622W        W85583  21.541   1.347  10.035
81623W        W85584  20.946   1.769   8.494
81624W        W85585  20.912   1.457   7.521
81625W        W85586  20.120   2.601   9.661
81626W        W85587  19.926   0.931   8.860
81627W        W85588  20.526   3.018   9.854
81628W        W85589  21.397   1.809   8.276
81629W        W85590  20.299   0.467   8.292
81630W        W85591  18.956   3.161   7.975
81631W        W85592  18.327   0.660   8.574
81632W        W85593  21.113   1.267   9.048
81633W        W85594  18.571   2.884   8.963
81634W        W85595  19.912   3.234   7.833
81635W        W85596  21.304   1.260   7.297
81636W        W85597  18.327   3.018   9.461
81637W        W85598  19.118   2.590   9.941
81638W        W85599  19.491   1.950   8.560
81639W        W85600  19.513   0.355   9.653
81640W        W85601  21.742   0.117   8.950
81641W        W85602  18.961   1.989   7.418
81642W        W85603  18.616   1.022   7.597
81643W        W85604  18.678   2.978   8.391
81644W        W85605  19.809   2.461   8.639
81645W        W85606  21.141   3.320  10.353
81646W        W85607  20.067   0.962   8.037
81647W        W85608  21.450   3.360   8.809
81648W        W85609  21.127   1.213  10.407
81649W        W85610  21.840   2.869   8.541
81650W        W85611  20.467   2.161  10.025
81651W        W85612  18.233   1.712   8.231
81652W        W85613  19.344   2.127   9.804
81653W        W85614  20.548   1.391   8.182
81654W        W85615  20.425   1.881   8.286
81655W        W85616  18.768   1.301   9.760
81656W        W85617  18.753   1.177  10.682
81657W        W85618  18.643   0.094   8.841
81658W        W85619  20.411   0.441   9.402
81659W        W85620  20.059   0.626  10.565
81660W        W85621  20.414   0.775   7.743
81661W        W85622  21.597   3.168  10.497
81662W        W85623  20.564   0.249  10.536
81663W        W85624  21.583   2.550  10.658
81664W        W85625  21.013   0.717  10.254
81665W        W85626  20.813   0.655   8.524
81666W        W85627  21.206   1.789  10.928
81667W        W85628  18.946   3.365   8.914
81668W        W85629  19.604   1.082   7.900
81669W        W85630  19.173   0.366  10.564
81670W        W85631  21.225   0.850   8.245
81671W        W85632  21.592   1.332   8.190
81672W        W85633  19.335   3.549  10.661
81673W        W85634  19.261   0.085   7.896
81674W        W85635  21.582   0.619   8.931
81675W        W85636  21.732   2.868   7.376
81676W        W85637  18.639   2.071   9.078
81677W        W85638  20.556   0.658   7.308
81678W        W85639  21.690   2.990   9.028
81679W        W85640  21.729   0.184   9.778
81680W        W85641  20.174   1.396  10.332
81681W        W85642  20.267   2.735   8.035
81682W        W85643  20.667   2.029  10.775
81683W        W85644  20.341   0.006   9.084
81684W        W85645  18.953   0.909   9.147
81685W        W85646  18.507   2.109   9.921
81686W        W85647  20.366   3.302   8.627
81687W        W85648  21.560   0.899   9.499
81688W        W85649  20.197   3.246  10.266
81689W        W85650  21.540   2.305   7.471
81690W        W85651  19.975   1.788   8.532
81691W        W85652  21.827   0.299  10.273
81692W        W85653  19.976   2.134   9.867
81693W        W85654  20.193   1.020   9.312
81694W        W85655  21.045   1.318   8.150
81695W        W85656  21.332   1.051   7.792
81696W        W85657  21.141   3.091   8.181
81697W        W85658  20.975   2.694   8.977
81698W        W85659  20.871   1.773   7.955
81699W        W85660  20.304   1.983   8.941
81700W        W85661  21.185   1.771   9.008
81701W        W85662  18.560   0.786   9.432
81702W        W85663  21.338   1.838  10.259
81703W        W85664  21.689   3.456   9.405
81704W        W85665  19.619   2.900   8.807
81705W        W85666  20.626   3.433  10.131
81706W        W85667  20.620   0.763   9.895
81707W        W85668  19.827   3.471   9.956
81708W        W85669  21.524   0.425   8.422
81709W        W85670  21.315   1.744   9.723
81710W        W85671  18.298   1.065   9.761
81711W        W85672  21.158   0.860   8.779
81712W        W85673  21.569   1.011  10.556
81713W        W85674  20.454   2.710   8.774
81714W        W85675  19.710   3.301   8.387
81715W        W85676  18.825   0.481   7.645
81716W        W85677  19.929   0.135   9.455
81717W        W85678  18.957   3.255   7.303
81718W        W85679  19.331   1.721   8.054
81719W        W85680  19.985   2.350  10.367
81720W        W85681  19.815   0.708   8.357
81721W        W85682  21.171   0.305   8.785
81722W        W85683  20.891   3.587   9.113
81723W        W85684  20.303   3.235   9.453
81724W        W85685  19.699   2.272   9.414
81725W        W85686  21.469   2.995   9.540
81726W        W85687  19.163   0.498   8.309
81727W        W85688  19.685   2.795   9.269
81728W        W85689  19.168   0.726   7.334
81729W        W85690  19.969   1.335   9.728
81730W        W85691  20.817   0.201   9.598
81731W        W85692  18.237   2.044   9.483
81732W        W85693  19.941   1.862   7.641
81733W        W85694  19.209   0.177   7.411
81734W        W85695  19.947   1.258   8.462
81735W        W85696  20.917   0.234  10.161
81736W        W85697  19.505   2.246  10.270
81737W        W85698  20.309   2.028  10.487
81738W        W85699  20.926   2.058  10.380
81739W        W85700  20.210   0.198  10.885
81740W        W85701  19.432   0.814   9.278
81741W        W85702  18.858   0.770   8.676
81742W        W85703  18.644   3.482   8.352
81743W        W85704  19.976   2.812  10.477
81744W        W85705  19.011   2.297   7.836
81745W        W85706  20.691   1.682   9.057
81746W        W85707  20.971   1.481   9.456
81747W        W85708  20.176   2.155   9.390
81748W        W85709  20.646   2.529   7.522
81749W        W85710  20.318   0.550   8.850
81750W        W85711  21.797   0.828   8.118
81751W        W85712  18.291   3.417  10.149
81752W        W85713  18.708   2.643   9.681
81753W        W85714  18.275   3.489   7.913
81754W        W85715  20.174   0.759   9.719
81755W        W85716  19.537   2.782   7.568
81756W        W85717  21.442   3.164   7.754
81757W        W85718  20.417   1.817   7.768
81758W        W85719  19.260   1.008   8.285
81759W        W85720  20.092   0.918   7.337
81760W        W85721  20.676   2.483  10.515
81761W        W85722  21.029   0.389   8.132
81762W        W85723  18.359   0.237   7.580
81763W        W85724  19.645   2.556   9.870
81764W        W85725  19.444   2.472   8.962
81765W        W85726  19.186   2.424   7.360
81766W        W85727  18.427   2.665   8.128
81767W        W85728  18.931   1.735  10.570
81768W        W85729  19.635   0.295  10.756
81769W        W85730  20.344   0.437  10.112
81770W        W85731  19.539   0.205   8.393
81771W        W85732  20.598   0.282   7.898
81772W        W85733  18.543   0.214   9.475
81773W        W85734  18.591   1.177   8.845
81774W        W85735  21.280   0.285   9.251
81775W        W85736  18.702   0.783   8.065
81776W        W85737  21.273   0.471   9.681
81777W        W85738  21.669   1.674   7.366
81778W        W85739  18.961   0.432   9.185
81779W        W85740  20.075   1.004  10.125
81780W        W85741  18.223   0.694   7.603
81781W        W85742  19.009   2.083  10.164
81782W        W85743  20.367   1.481   9.343
81783W        W85744  20.234   3.560   7.639
81784W        W85745  18.380   2.067   7.336
81785W        W85746  19.115   2.478  10.462
81786W        W85747  18.636   1.645  10.093
81787W        W85748  19.627   1.750   9.887
81788W        W85749  21.395   0.109  10.149
81789W        W85750  21.793   1.719  10.140
81790W        W85751  21.781   1.919   7.826
81791W        W85752  20.644   2.251   7.925
81792W        W85753  21.118   3.551   7.620
81793W        W85754  20.295   1.541  10.762
81794W        W85755  18.625   2.508  10.802
81795W        W85756  21.831   0.430  10.754
81796W        W85757  21.549   1.358   9.375
81797W        W85758  19.857   3.488  10.852
81798W        W85759  19.712   0.117   7.579
81799W        W85760  21.251   2.716   7.522
81800W        W85761  19.020   0.809  10.408
81801W        W85762  19.454   2.803  10.270
81802W        W85763  21.580   0.794  10.068
81803W        W85764  20.791   3.453   8.036
81804W        W85765  21.030   2.072   9.403
81805W        W85766  19.280   0.488  10.070
81806W        W85767  19.749   1.557  10.827
81807W        W85768  19.252   2.736   8.021
81808W        W85769  21.007   2.234   8.285
81809W        W85770  18.775   0.860  10.009
81810W        W85771  20.104   2.922   8.473
81811W        W85772  21.854   1.482   8.654
81812W        W85773  20.076   0.115  10.373
81813W        W85774  20.856   2.820   9.452
81814W        W85775  21.159   3.164   9.160
81815W        W85776  20.378   2.966   7.588
81816W        W85777  18.388   2.858  10.430
81817W        W85778  19.131   0.850   9.668
81818W        W85779  19.101   0.198   8.778
81819W        W85780  20.722   1.040   9.470
81820W        W85781  19.520   2.211   7.670
81821W        W85782  21.518   2.153   9.169
81822W        W85783  18.845   2.911  10.592
81823W        W85784  21.232   3.593   8.389
81824W        W85785  19.331   0.613   8.834
81825W        W85786  19.100   2.106   8.924
81826W        W85787  19.413   3.517   9.674
81827W        W85788  21.480   3.613  10.706
81828W        W85789  20.639   1.801   9.639
81829W        W85790  18.488   1.599   7.554
81830W        W85791  21.622   3.257   8.251
81831W        W85792  21.459   0.581   7.870
81832W        W85793  19.598   0.100  10.273
81833W        W85794  21.304   2.902   8.731
81834W        W85795  21.333   1.458   8.636
81835W        W85796  19.450   1.131   8.852
81836W        W85797  19.695   1.393  10.176
81837W        W85798  20.806   2.546  10.039
81838W        W85799  19.456   1.000  10.151
81839W        W85800  19.435   3.466   8.767
81840W        W85801  18.752   3.425  10.401
81841W        W85802  18.864   2.786   7.531
81842W        W85803  21.381   2.544   8.341
81843W        W85804  18.985   1.336  10.227
81844W        W85805  21.758   1.266   7.708
81845W        W85806  19.503   2.323   8.179
81846W        W85807  20.602   1.705  10.260
81847W        W85808  20.493   1.333   9.804
81848W        W85809  19.053   1.705   9.833
81849W        W85810  21.263   3.593   9.662
81850W        W85811  21.054   0.227  10.656
81851W        W85812  18.718   0.377  10.243
81852W        W85813  19.057   1.400   9.296
81853W        W85814  19.426   1.214   7.418
81854W        W85815  18.229   2.973   9.963
81855W        W85816  19.814   1.682   9.406
81856W        W85817  19.637   0.707   7.511
81857W        W85818  18.772   1.523   8.292
81858W        W85819  18.543   3.375   9.729
81859W        W85820  21.338   1.601   7.837
81860W        W85821  21.433   0.517  10.523
81861W        W85822  20.869   2.726   8.486
81862W        W85823  18.467   1.650  10.663
81863W        W85824  21.433   0.114   7.959
81864W        W85825  20.953   2.589   7.970
81865W        W85826  19.855   1.647   8.055
81866W        W85827  21.042   0.451   7.578
81867W        W85828  21.107   1.058   9.764
81868W        W85829  18.816   1.651   8.971
81869W        W85830  19.110   2.590   8.620
81870W        W85831  20.873   1.210   8.585
81871W        W85832  19.896   0.589   9.281
81872W        W85833  21.858   2.500   9.792
81873W        W85834  21.776   0.487   9.353
81874W        W85835  18.315   3.317   8.729
81875W        W85836  18.824   2.504   8.265
81876W        W85837  18.739   0.121  10.818
81877W        W85838  19.858   2.974  10.920
81878W        W85839  21.613   1.942   8.710
81879W        W85840  20.967   2.119   7.590
81880W        W85841  20.262   3.640   9.802
81881W        W85842  21.119   2.362  10.839
81882W        W85843  19.934   0.072   8.119
81883W        W85844  20.647   0.941   8.978
81884W        W85845  18.333   2.528   9.310
81885W        W85846  19.586   0.490   7.951
81886W        W85847  19.390   1.974  10.800
81887W        W85848  20.384   0.955   8.514
81888W        W85849  20.589   2.365   9.636
81889W        W85850  18.743   2.970  10.071
81890W        W85851  19.334   2.953  10.794
81891W        W85852  19.185   0.750   7.808
81892W        W85853  20.702   0.892   8.133
81893W        W85854  20.660   3.000  10.370
81894W        W85855  19.345   1.592   8.969
81895W        W85856  19.000   3.290   9.834
81896W        W85857  21.745   3.407   7.435
81897W        W85858  18.608   2.079  10.431
81898W        W85859  20.603   2.341   9.119
81899W        W85860  19.039   1.990   8.361
81900W        W85861  19.410   2.997   9.756
81901W        W85862  19.788   0.416   8.797
81902W        W85863  18.399   2.400   7.727
81903W        W85864  19.918   1.351   7.597
81904W        W85865  18.564   1.900   8.616
81905W        W85866  19.854   0.542  10.080
81906W        W85867  21.526   0.251   7.507
81907W        W85868  21.619   1.997  10.606
81908W        W85869  20.273   3.254  10.758
81909W        W85870  21.831   2.348  10.280
81910W        W85871  21.239   3.146  10.891
81911W        W85872  18.978   3.602   9.369
81912W        W85873  21.837   2.224   8.243
81913W        W85874  20.367   1.491   8.756
81914W        W85875  20.134   0.103   8.646
81915W        W85876  19.193   3.087   8.483
81916W        W85877  19.692   0.828   9.708
81917W        W85878  19.392   0.197   9.177
81918W        W85879  18.455   3.019   7.725
81919W        W85880  20.271   2.383   8.443
81920W        W85881  19.146   3.178  10.322
81921W        W85882  18.623   2.001   8.018
81922W        W85883  18.508   0.544   9.017
81923W        W85884  20.056   2.509   9.074
81924W        W85885  18.308   0.363   8.094
81925W        W85886  20.972   1.569  10.021
81926W        W85887  20.849   0.955   7.593
81927W        W85888  21.366   2.627   9.241
81928W        W85889  20.027   3.111   9.072
81929W        W85890  19.439   3.215   7.983
81930W        W85891  20.721   0.118   7.413
81931W        W85892  18.521   3.378   9.154
81932W        W85893  20.718   1.136  10.789
81933W        W85894  18.701   0.666  10.788
81934W        W85895  18.432   1.266   8.121
81935W        W85896  19.123   1.255   7.846
81936W        W85897  20.886   1.582  10.663
81937W        W85898  19.229   1.863   9.372
81938W        W85899  20.703   0.149   8.492
81939W        W85900  19.834   3.580   8.995
81940W        W85901  21.048   3.042   9.932
81941W        W85902  20.632   3.191   9.043
81942W        W85903  20.651   2.171   8.637
81943W        W85904  20.113   0.396   7.708
81944W        W85905  21.794   0.024   8.430
81945W        W85906  19.482   1.659   7.593
81946W        W85907  21.648   0.996   8.583
81947W        W85908  20.340   2.166   7.460
81948W        W85909  21.276   2.366  10.208
81949W        W85910  20.930   3.067   7.675
81950W        W85911  19.545   0.742  10.581
81951W        W85912  19.365   1.326   9.822
81952W        W85913  21.457   2.821  10.099
81953W        W85914  20.557   0.771  10.476
81954W        W85915  18.401   1.242  10.253
81955W        W85916  20.161   1.719   9.979
81956W        W85917  18.518   2.477   8.636
81957W        W85918  18.665   1.774   9.526
81958W        W85919  20.982   2.060   9.876
81959W        W85920  20.754   3.440  10.687
81960W        W85921  20.650   1.179  10.240
81961W        W85922  20.927   3.233   8.645
81962W        W85923  19.929   2.953   9.968
81963W        W85924  19.414   3.308   9.237
81964W        W85925  21.219   2.479   9.656
81965W        W85926  20.269   2.551  10.793
81966W        W85927  18.874   2.504   9.132
81967W        W85928  21.220   2.263   8.777
81968W        W85929  20.861   3.329   9.528
81969W        W85930  18.839   3.058   9.398
81970W        W85931  19.860   1.110  10.608
81971W        W85932  20.311   3.276   8.119
81972W        W85933  19.619   2.531  10.757
81973W        W85934  19.745   2.769   8.134
81974W        W85935  18.966   1.509   7.393
81975W        W85936  18.305   3.595  14.292
81976W        W85937  18.681   2.488  13.815
81977W        W85938  21.386   2.218  11.585
81978W        W85939  21.516   3.303  13.612
81979W        W85940  19.434   3.294  11.138
81980W        W85941  19.517   1.446  12.121
81981W        W85942  19.032   1.294  12.285
81982W        W85943  20.023   2.109  11.719
81983W        W85944  19.698   3.201  14.074
81984W        W85945  18.347   0.762  14.037
81985W        W85946  19.109   0.042  13.839
81986W        W85947  20.803   0.430  12.726
81987W        W85948  20.452   1.301  11.296
81988W        W85949  21.022   0.735  14.387
81989W        W85950  18.388   0.527  13.512
81990W        W85951  18.487   3.146  14.533
81991W        W85952  20.009   2.536  11.265
81992W        W85953  18.441   1.319  12.958
81993W        W85954  19.334   1.210  14.195
81994W        W85955  21.793   1.069  12.694
81995W        W85956  21.557   2.112  13.553
81996W        W85957  19.865   1.445  12.580
81997W        W85958  20.411   2.784  12.949
81998W        W85959  18.911   2.218  13.181
81999W        W85960  18.270   1.746  12.752
82000W        W85961  19.306   1.718  13.944
82001W        W85962  21.577   1.501  14.198
82002W        W85963  19.193   2.945  12.643
82003W        W85964  20.314   2.634  13.777
82004W        W85965  19.534   1.274  13.002
82005W        W85966  19.826   2.058  12.645
82006W        W85967  20.823   2.831  14.493
82007W        W85968  19.902   2.151  14.503
82008W        W85969  19.883   1.867  13.981
82009W        W85970  18.292   1.258  14.503
82010W        W85971  21.124   2.793  14.102
82011W        W85972  18.705   0.375  12.100
82012W        W85973  19.232   2.633  13.099
82013W        W85974  21.695   2.416  12.389
82014W        W85975  21.108   0.816  12.956
82015W        W85976  21.393   0.769  11.051
82016W        W85977  21.858   1.570  13.357
82017W        W85978  19.825   3.277  13.110
82018W        W85979  21.599   2.743  11.548
82019W        W85980  18.728   3.529  11.302
82020W        W85981  19.121   3.575  11.978
82021W        W85982  18.918   0.329  13.404
82022W        W85983  21.541   1.347  13.679
82023W        W85984  20.946   1.769  12.138
82024W        W85985  20.912   1.457  11.165
82025W        W85986  20.120   2.601  13.305
82026W        W85987  19.926   0.931  12.504
82027W        W85988  20.526   3.018  13.498
82028W        W85989  21.397   1.809  11.920
82029W        W85990  20.299   0.467  11.936
82030W        W85991  18.956   3.161  11.619
82031W        W85992  18.327   0.660  12.218
82032W        W85993  21.113   1.267  12.692
82033W        W85994  18.571   2.884  12.607
82034W        W85995  19.912   3.234  11.477
82035W        W85996  21.304   1.260  10.941
82036W        W85997  18.327   3.018  13.105
82037W        W85998  19.118   2.590  13.585
82038W        W85999  19.491   1.950  12.204
82039W        W86000  19.513   0.355  13.297
82040W        W86001  21.742   0.117  12.594
82041W        W86002  18.961   1.989  11.062
82042W        W86003  18.616   1.022  11.241
82043W        W86004  18.678   2.978  12.035
82044W        W86005  19.809   2.461  12.283
82045W        W86006  21.141   3.320  13.997
82046W        W86007  20.067   0.962  11.681
82047W        W86008  21.450   3.360  12.453
82048W        W86009  21.127   1.213  14.051
82049W        W86010  21.840   2.869  12.185
82050W        W86011  20.467   2.161  13.669
82051W        W86012  18.233   1.712  11.875
82052W        W86013  19.344   2.127  13.448
82053W        W86014  20.548   1.391  11.826
82054W        W86015  20.425   1.881  11.930
82055W        W86016  18.768   1.301  13.404
82056W        W86017  18.753   1.177  14.326
82057W        W86018  18.643   0.094  12.485
82058W        W86019  20.411   0.441  13.046
82059W        W86020  20.059   0.626  14.209
82060W        W86021  20.414   0.775  11.387
82061W        W86022  21.597   3.168  14.141
82062W        W86023  20.564   0.249  14.180
82063W        W86024  21.583   2.550  14.302
82064W        W86025  21.013   0.717  13.898
82065W        W86026  20.813   0.655  12.168
82066W        W86027  21.206   1.789  14.572
82067W        W86028  18.946   3.365  12.558
82068W        W86029  19.604   1.082  11.544
82069W        W86030  19.173   0.366  14.208
82070W        W86031  21.225   0.850  11.889
82071W        W86032  21.592   1.332  11.834
82072W        W86033  19.335   3.549  14.305
82073W        W86034  19.261   0.085  11.540
82074W        W86035  21.582   0.619  12.575
82075W        W86036  21.732   2.868  11.020
82076W        W86037  18.639   2.071  12.722
82077W        W86038  20.556   0.658  10.952
82078W        W86039  21.690   2.990  12.672
82079W        W86040  21.729   0.184  13.422
82080W        W86041  20.174   1.396  13.976
82081W        W86042  20.267   2.735  11.679
82082W        W86043  20.667   2.029  14.419
82083W        W86044  20.341   0.006  12.728
82084W        W86045  18.953   0.909  12.791
82085W        W86046  18.507   2.109  13.565
82086W        W86047  20.366   3.302  12.271
82087W        W86048  21.560   0.899  13.143
82088W        W86049  20.197   3.246  13.910
82089W        W86050  21.540   2.305  11.115
82090W        W86051  19.975   1.788  12.176
82091W        W86052  21.827   0.299  13.917
82092W        W86053  19.976   2.134  13.511
82093W        W86054  20.193   1.020  12.956
82094W        W86055  21.045   1.318  11.794
82095W        W86056  21.332   1.051  11.436
82096W        W86057  21.141   3.091  11.825
82097W        W86058  20.975   2.694  12.621
82098W        W86059  20.871   1.773  11.599
82099W        W86060  20.304   1.983  12.585
82100W        W86061  21.185   1.771  12.652
82101W        W86062  18.560   0.786  13.076
82102W        W86063  21.338   1.838  13.903
82103W        W86064  21.689   3.456  13.049
82104W        W86065  19.619   2.900  12.451
82105W        W86066  20.626   3.433  13.775
82106W        W86067  20.620   0.763  13.539
82107W        W86068  19.827   3.471  13.600
82108W        W86069  21.524   0.425  12.066
82109W        W86070  21.315   1.744  13.367
82110W        W86071  18.298   1.065  13.405
82111W        W86072  21.158   0.860  12.423
82112W        W86073  21.569   1.011  14.200
82113W        W86074  20.454   2.710  12.418
82114W        W86075  19.710   3.301  12.031
82115W        W86076  18.825   0.481  11.289
82116W        W86077  19.929   0.135  13.099
82117W        W86078  18.957   3.255  10.947
82118W        W86079  19.331   1.721  11.698
82119W        W86080  19.985   2.350  14.011
82120W        W86081  19.815   0.708  12.001
82121W        W86082  21.171   0.305  12.429
82122W        W86083  20.891   3.587  12.757
82123W        W86084  20.303   3.235  13.097
82124W        W86085  19.699   2.272  13.058
82125W        W86086  21.469   2.995  13.184
82126W        W86087  19.163   0.498  11.953
82127W        W86088  19.685   2.795  12.913
82128W        W86089  19.168   0.726  10.978
82129W        W86090  19.969   1.335  13.372
82130W        W86091  20.817   0.201  13.242
82131W        W86092  18.237   2.044  13.127
82132W        W86093  19.941   1.862  11.285
82133W        W86094  19.209   0.177  11.055
82134W        W86095  19.947   1.258  12.106
82135W        W86096  20.917   0.234  13.805
82136W        W86097  19.505   2.246  13.914
82137W        W86098  20.309   2.028  14.131
82138W        W86099  20.926   2.058  14.024
82139W        W86100  20.210   0.198  14.529
82140W        W86101  19.432   0.814  12.922
82141W        W86102  18.858   0.770  12.320
82142W        W86103  18.644   3.482  11.996
82143W        W86104  19.976   2.812  14.121
82144W        W86105  19.011   2.297  11.480
82145W        W86106  20.691   1.682  12.701
82146W        W86107  20.971   1.481  13.100
82147W        W86108  20.176   2.155  13.034
82148W        W86109  20.646   2.529  11.166
82149W        W86110  20.318   0.550  12.494
82150W        W86111  21.797   0.828  11.762
82151W        W86112  18.291   3.417  13.793
82152W        W86113  18.708   2.643  13.325
82153W        W86114  18.275   3.489  11.557
82154W        W86115  20.174   0.759  13.363
82155W        W86116  19.537   2.782  11.212
82156W        W86117  21.442   3.164  11.398
82157W        W86118  20.417   1.817  11.412
82158W        W86119  19.260   1.008  11.929
82159W        W86120  20.092   0.918  10.981
82160W        W86121  20.676   2.483  14.159
82161W        W86122  21.029   0.389  11.776
82162W        W86123  18.359   0.237  11.224
82163W        W86124  19.645   2.556  13.514
82164W        W86125  19.444   2.472  12.606
82165W        W86126  19.186   2.424  11.004
82166W        W86127  18.427   2.665  11.772
82167W        W86128  18.931   1.735  14.214
82168W        W86129  19.635   0.295  14.400
82169W        W86130  20.344   0.437  13.756
82170W        W86131  19.539   0.205  12.037
82171W        W86132  20.598   0.282  11.542
82172W        W86133  18.543   0.214  13.119
82173W        W86134  18.591   1.177  12.489
82174W        W86135  21.280   0.285  12.895
82175W        W86136  18.702   0.783  11.709
82176W        W86137  21.273   0.471  13.325
82177W        W86138  21.669   1.674  11.010
82178W        W86139  18.961   0.432  12.829
82179W        W86140  20.075   1.004  13.769
82180W        W86141  18.223   0.694  11.247
82181W        W86142  19.009   2.083  13.808
82182W        W86143  20.367   1.481  12.987
82183W        W86144  20.234   3.560  11.283
82184W        W86145  18.380   2.067  10.980
82185W        W86146  19.115   2.478  14.106
82186W        W86147  18.636   1.645  13.737
82187W        W86148  19.627   1.750  13.531
82188W        W86149  21.395   0.109  13.793
82189W        W86150  21.793   1.719  13.784
82190W        W86151  21.781   1.919  11.470
82191W        W86152  20.644   2.251  11.569
82192W        W86153  21.118   3.551  11.264
82193W        W86154  20.295   1.541  14.406
82194W        W86155  18.625   2.508  14.446
82195W        W86156  21.831   0.430  14.398
82196W        W86157  21.549   1.358  13.019
82197W        W86158  19.857   3.488  14.496
82198W        W86159  19.712   0.117  11.223
82199W        W86160  21.251   2.716  11.166
82200W        W86161  19.020   0.809  14.052
82201W        W86162  19.454   2.803  13.914
82202W        W86163  21.580   0.794  13.712
82203W        W86164  20.791   3.453  11.680
82204W        W86165  21.030   2.072  13.047
82205W        W86166  19.280   0.488  13.714
82206W        W86167  19.749   1.557  14.471
82207W        W86168  19.252   2.736  11.665
82208W        W86169  21.007   2.234  11.929
82209W        W86170  18.775   0.860  13.653
82210W        W86171  20.104   2.922  12.117
82211W        W86172  21.854   1.482  12.298
82212W        W86173  20.076   0.115  14.017
82213W        W86174  20.856   2.820  13.096
82214W        W86175  21.159   3.164  12.804
82215W        W86176  20.378   2.966  11.232
82216W        W86177  18.388   2.858  14.074
82217W        W86178  19.131   0.850  13.312
82218W        W86179  19.101   0.198  12.422
82219W        W86180  20.722   1.040  13.114
82220W        W86181  19.520   2.211  11.314
82221W        W86182  21.518   2.153  12.813
82222W        W86183  18.845   2.911  14.236
82223W        W86184  21.232   3.593  12.033
82224W        W86185  19.331   0.613  12.478
82225W        W86186  19.100   2.106  12.568
82226W        W86187  19.413   3.517  13.318
82227W        W86188  21.480   3.613  14.350
82228W        W86189  20.639   1.801  13.283
82229W        W86190  18.488   1.599  11.198
82230W        W86191  21.622   3.257  11.895
82231W        W86192  21.459   0.581  11.514
82232W        W86193  19.598   0.100  13.917
82233W        W86194  21.304   2.902  12.375
82234W        W86195  21.333   1.458  12.280
82235W        W86196  19.450   1.131  12.496
82236W        W86197  19.695   1.393  13.820
82237W        W86198  20.806   2.546  13.683
82238W        W86199  19.456   1.000  13.795
82239W        W86200  19.435   3.466  12.411
82240W        W86201  18.752   3.425  14.045
82241W        W86202  18.864   2.786  11.175
82242W        W86203  21.381   2.544  11.985
82243W        W86204  18.985   1.336  13.871
82244W        W86205  21.758   1.266  11.352
82245W        W86206  19.503   2.323  11.823
82246W        W86207  20.602   1.705  13.904
82247W        W86208  20.493   1.333  13.448
82248W        W86209  19.053   1.705  13.477
82249W        W86210  21.263   3.593  13.306
82250W        W86211  21.054   0.227  14.300
82251W        W86212  18.718   0.377  13.887
82252W        W86213  19.057   1.400  12.940
82253W        W86214  19.426   1.214  11.062
82254W        W86215  18.229   2.973  13.607
82255W        W86216  19.814   1.682  13.050
82256W        W86217  19.637   0.707  11.155
82257W        W86218  18.772   1.523  11.936
82258W        W86219  18.543   3.375  13.373
82259W        W86220  21.338   1.601  11.481
82260W        W86221  21.433   0.517  14.167
82261W        W86222  20.869   2.726  12.130
82262W        W86223  18.467   1.650  14.307
82263W        W86224  21.433   0.114  11.603
82264W        W86225  20.953   2.589  11.614
82265W        W86226  19.855   1.647  11.699
82266W        W86227  21.042   0.451  11.222
82267W        W86228  21.107   1.058  13.408
82268W        W86229  18.816   1.651  12.615
82269W        W86230  19.110   2.590  12.264
82270W        W86231  20.873   1.210  12.229
82271W        W86232  19.896   0.589  12.925
82272W        W86233  21.858   2.500  13.436
82273W        W86234  21.776   0.487  12.997
82274W        W86235  18.315   3.317  12.373
82275W        W86236  18.824   2.504  11.909
82276W        W86237  18.739   0.121  14.462
82277W        W86238  19.858   2.974  14.564
82278W        W86239  21.613   1.942  12.354
82279W        W86240  20.967   2.119  11.234
82280W        W86241  20.262   3.640  13.446
82281W        W86242  21.119   2.362  14.483
82282W        W86243  19.934   0.072  11.763
82283W        W86244  20.647   0.941  12.622
82284W        W86245  18.333   2.528  12.954
82285W        W86246  19.586   0.490  11.595
82286W        W86247  19.390   1.974  14.444
82287W        W86248  20.384   0.955  12.158
82288W        W86249  20.589   2.365  13.280
82289W        W86250  18.743   2.970  13.715
82290W        W86251  19.334   2.953  14.438
82291W        W86252  19.185   0.750  11.452
82292W        W86253  20.702   0.892  11.777
82293W        W86254  20.660   3.000  14.014
82294W        W86255  19.345   1.592  12.613
82295W        W86256  19.000   3.290  13.478
82296W        W86257  21.745   3.407  11.079
82297W        W86258  18.608   2.079  14.075
82298W        W86259  20.603   2.341  12.763
82299W        W86260  19.039   1.990  12.005
82300W        W86261  19.410   2.997  13.400
82301W        W86262  19.788   0.416  12.441
82302W        W86263  18.399   2.400  11.371
82303W        W86264  19.918   1.351  11.241
82304W        W86265  18.564   1.900  12.260
82305W        W86266  19.854   0.542  13.724
82306W        W86267  21.526   0.251  11.151
82307W        W86268  21.619   1.997  14.250
82308W        W86269  20.273   3.254  14.402
82309W        W86270  21.831   2.348  13.924
82310W        W86271  21.239   3.146  14.535
82311W        W86272  18.978   3.602  13.013
82312W        W86273  21.837   2.224  11.887
82313W        W86274  20.367   1.491  12.400
82314W        W86275  20.134   0.103  12.290
82315W        W86276  19.193   3.087  12.127
82316W        W86277  19.692   0.828  13.352
82317W        W86278  19.392   0.197  12.821
82318W        W86279  18.455   3.019  11.369
82319W        W86280  20.271   2.383  12.087
82320W        W86281  19.146   3.178  13.966
82321W        W86282  18.623   2.001  11.662
82322W        W86283  18.508   0.544  12.661
82323W        W86284  20.056   2.509  12.718
82324W        W86285  18.308   0.363  11.738
82325W        W86286  20.972   1.569  13.665
82326W        W86287  20.849   0.955  11.237
82327W        W86288  21.366   2.627  12.885
82328W        W86289  20.027   3.111  12.716
82329W        W86290  19.439   3.215  11.627
82330W        W86291  20.721   0.118  11.057
82331W        W86292  18.521   3.378  12.798
82332W        W86293  20.718   1.136  14.433
82333W        W86294  18.701   0.666  14.432
82334W        W86295  18.432   1.266  11.765
82335W        W86296  19.123   1.255  11.490
82336W        W86297  20.886   1.582  14.307
82337W        W86298  19.229   1.863  13.016
82338W        W86299  20.703   0.149  12.136
82339W        W86300  19.834   3.580  12.639
82340W        W86301  21.048   3.042  13.576
82341W        W86302  20.632   3.191  12.687
82342W        W86303  20.651   2.171  12.281
82343W        W86304  20.113   0.396  11.352
82344W        W86305  21.794   0.024  12.074
82345W        W86306  19.482   1.659  11.237
82346W        W86307  21.648   0.996  12.227
82347W        W86308  20.340   2.166  11.104
82348W        W86309  21.276   2.366  13.852
82349W        W86310  20.930   3.067  11.319
82350W        W86311  19.545   0.742  14.225
82351W        W86312  19.365   1.326  13.466
82352W        W86313  21.457   2.821  13.743
82353W        W86314  20.557   0.771  14.120
82354W        W86315  18.401   1.242  13.897
82355W        W86316  20.161   1.719  13.623
82356W        W86317  18.518   2.477  12.280
82357W        W86318  18.665   1.774  13.170
82358W        W86319  20.982   2.060  13.520
82359W        W86320  20.754   3.440  14.331
82360W        W86321  20.650   1.179  13.884
82361W        W86322  20.927   3.233  12.289
82362W        W86323  19.929   2.953  13.612
82363W        W86324  19.414   3.308  12.881
82364W        W86325  21.219   2.479  13.300
82365W        W86326  20.269   2.551  14.437
82366W        W86327  18.874   2.504  12.776
82367W        W86328  21.220   2.263  12.421
82368W        W86329  20.861   3.329  13.172
82369W        W86330  18.839   3.058  13.042
82370W        W86331  19.860   1.110  14.252
82371W        W86332  20.311   3.276  11.763
82372W        W86333  19.619   2.531  14.401
82373W        W86334  19.745   2.769  11.778
82374W        W86335  18.966   1.509  11.037
82375W        W86336  18.305   3.595  17.936
82376W        W86337  18.681   2.488  17.459
82377W        W86338  21.386   2.218  15.229
82378W        W86339  21.516   3.303  17.256
82379W        W86340  19.434   3.294  14.782
82380W        W86341  19.517   1.446  15.765
82381W        W86342  19.032   1.294  15.929
82382W        W86343  20.023   2.109  15.363
82383W        W86344  19.698   3.201  17.718
82384W        W86345  18.347   0.762  17.681
82385W        W86346  19.109   0.042  17.483
82386W        W86347  20.803   0.430  16.370
82387W        W86348  20.452   1.301  14.940
82388W        W86349  21.022   0.735  18.031
82389W        W86350  18.388   0.527  17.156
82390W        W86351  18.487   3.146  18.177
82391W        W86352  20.009   2.536  14.909
82392W        W86353  18.441   1.319  16.602
82393W        W86354  19.334   1.210  17.839
82394W        W86355  21.793   1.069  16.338
82395W        W86356  21.557   2.112  17.197
82396W        W86357  19.865   1.445  16.224
82397W        W86358  20.411   2.784  16.593
82398W        W86359  18.911   2.218  16.825
82399W        W86360  18.270   1.746  16.396
82400W        W86361  19.306   1.718  17.588
82401W        W86362  21.577   1.501  17.842
82402W        W86363  19.193   2.945  16.287
82403W        W86364  20.314   2.634  17.421
82404W        W86365  19.534   1.274  16.646
82405W        W86366  19.826   2.058  16.289
82406W        W86367  20.823   2.831  18.137
82407W        W86368  19.902   2.151  18.147
82408W        W86369  19.883   1.867  17.625
82409W        W86370  18.292   1.258  18.147
82410W        W86371  21.124   2.793  17.746
82411W        W86372  18.705   0.375  15.744
82412W        W86373  19.232   2.633  16.743
82413W        W86374  21.695   2.416  16.033
82414W        W86375  21.108   0.816  16.600
82415W        W86376  21.393   0.769  14.695
82416W        W86377  21.858   1.570  17.001
82417W        W86378  19.825   3.277  16.754
82418W        W86379  21.599   2.743  15.192
82419W        W86380  18.728   3.529  14.946
82420W        W86381  19.121   3.575  15.622
82421W        W86382  18.918   0.329  17.048
82422W        W86383  21.541   1.347  17.323
82423W        W86384  20.946   1.769  15.782
82424W        W86385  20.912   1.457  14.809
82425W        W86386  20.120   2.601  16.949
82426W        W86387  19.926   0.931  16.148
82427W        W86388  20.526   3.018  17.142
82428W        W86389  21.397   1.809  15.564
82429W        W86390  20.299   0.467  15.580
82430W        W86391  18.956   3.161  15.263
82431W        W86392  18.327   0.660  15.862
82432W        W86393  21.113   1.267  16.336
82433W        W86394  18.571   2.884  16.251
82434W        W86395  19.912   3.234  15.121
82435W        W86396  21.304   1.260  14.585
82436W        W86397  18.327   3.018  16.749
82437W        W86398  19.118   2.590  17.229
82438W        W86399  19.491   1.950  15.848
82439W        W86400  19.513   0.355  16.941
82440W        W86401  21.742   0.117  16.238
82441W        W86402  18.961   1.989  14.706
82442W        W86403  18.616   1.022  14.885
82443W        W86404  18.678   2.978  15.679
82444W        W86405  19.809   2.461  15.927
82445W        W86406  21.141   3.320  17.641
82446W        W86407  20.067   0.962  15.325
82447W        W86408  21.450   3.360  16.097
82448W        W86409  21.127   1.213  17.695
82449W        W86410  21.840   2.869  15.829
82450W        W86411  20.467   2.161  17.313
82451W        W86412  18.233   1.712  15.519
82452W        W86413  19.344   2.127  17.092
82453W        W86414  20.548   1.391  15.470
82454W        W86415  20.425   1.881  15.574
82455W        W86416  18.768   1.301  17.048
82456W        W86417  18.753   1.177  17.970
82457W        W86418  18.643   0.094  16.129
82458W        W86419  20.411   0.441  16.690
82459W        W86420  20.059   0.626  17.853
82460W        W86421  20.414   0.775  15.031
82461W        W86422  21.597   3.168  17.785
82462W        W86423  20.564   0.249  17.824
82463W        W86424  21.583   2.550  17.946
82464W        W86425  21.013   0.717  17.542
82465W        W86426  20.813   0.655  15.812
82466W        W86427  21.206   1.789  18.216
82467W        W86428  18.946   3.365  16.202
82468W        W86429  19.604   1.082  15.188
82469W        W86430  19.173   0.366  17.852
82470W        W86431  21.225   0.850  15.533
82471W        W86432  21.592   1.332  15.478
82472W        W86433  19.335   3.549  17.949
82473W        W86434  19.261   0.085  15.184
82474W        W86435  21.582   0.619  16.219
82475W        W86436  21.732   2.868  14.664
82476W        W86437  18.639   2.071  16.366
82477W        W86438  20.556   0.658  14.596
82478W        W86439  21.690   2.990  16.316
82479W        W86440  21.729   0.184  17.066
82480W        W86441  20.174   1.396  17.620
82481W        W86442  20.267   2.735  15.323
82482W        W86443  20.667   2.029  18.063
82483W        W86444  20.341   0.006  16.372
82484W        W86445  18.953   0.909  16.435
82485W        W86446  18.507   2.109  17.209
82486W        W86447  20.366   3.302  15.915
82487W        W86448  21.560   0.899  16.787
82488W        W86449  20.197   3.246  17.554
82489W        W86450  21.540   2.305  14.759
82490W        W86451  19.975   1.788  15.820
82491W        W86452  21.827   0.299  17.561
82492W        W86453  19.976   2.134  17.155
82493W        W86454  20.193   1.020  16.600
82494W        W86455  21.045   1.318  15.438
82495W        W86456  21.332   1.051  15.080
82496W        W86457  21.141   3.091  15.469
82497W        W86458  20.975   2.694  16.265
82498W        W86459  20.871   1.773  15.243
82499W        W86460  20.304   1.983  16.229
82500W        W86461  21.185   1.771  16.296
82501W        W86462  18.560   0.786  16.720
82502W        W86463  21.338   1.838  17.547
82503W        W86464  21.689   3.456  16.693
82504W        W86465  19.619   2.900  16.095
82505W        W86466  20.626   3.433  17.419
82506W        W86467  20.620   0.763  17.183
82507W        W86468  19.827   3.471  17.244
82508W        W86469  21.524   0.425  15.710
82509W        W86470  21.315   1.744  17.011
82510W        W86471  18.298   1.065  17.049
82511W        W86472  21.158   0.860  16.067
82512W        W86473  21.569   1.011  17.844
82513W        W86474  20.454   2.710  16.062
82514W        W86475  19.710   3.301  15.675
82515W        W86476  18.825   0.481  14.933
82516W        W86477  19.929   0.135  16.743
82517W        W86478  18.957   3.255  14.591
82518W        W86479  19.331   1.721  15.342
82519W        W86480  19.985   2.350  17.655
82520W        W86481  19.815   0.708  15.645
82521W        W86482  21.171   0.305  16.073
82522W        W86483  20.891   3.587  16.401
82523W        W86484  20.303   3.235  16.741
82524W        W86485  19.699   2.272  16.702
82525W        W86486  21.469   2.995  16.828
82526W        W86487  19.163   0.498  15.597
82527W        W86488  19.685   2.795  16.557
82528W        W86489  19.168   0.726  14.622
82529W        W86490  19.969   1.335  17.016
82530W        W86491  20.817   0.201  16.886
82531W        W86492  18.237   2.044  16.771
82532W        W86493  19.941   1.862  14.929
82533W        W86494  19.209   0.177  14.699
82534W        W86495  19.947   1.258  15.750
82535W        W86496  20.917   0.234  17.449
82536W        W86497  19.505   2.246  17.558
82537W        W86498  20.309   2.028  17.775
82538W        W86499  20.926   2.058  17.668
82539W        W86500  20.210   0.198  18.173
82540W        W86501  19.432   0.814  16.566
82541W        W86502  18.858   0.770  15.964
82542W        W86503  18.644   3.482  15.640
82543W        W86504  19.976   2.812  17.765
82544W        W86505  19.011   2.297  15.124
82545W        W86506  20.691   1.682  16.345
82546W        W86507  20.971   1.481  16.744
82547W        W86508  20.176   2.155  16.678
82548W        W86509  20.646   2.529  14.810
82549W        W86510  20.318   0.550  16.138
82550W        W86511  21.797   0.828  15.406
82551W        W86512  18.291   3.417  17.437
82552W        W86513  18.708   2.643  16.969
82553W        W86514  18.275   3.489  15.201
82554W        W86515  20.174   0.759  17.007
82555W        W86516  19.537   2.782  14.856
82556W        W86517  21.442   3.164  15.042
82557W        W86518  20.417   1.817  15.056
82558W        W86519  19.260   1.008  15.573
82559W        W86520  20.092   0.918  14.625
82560W        W86521  20.676   2.483  17.803
82561W        W86522  21.029   0.389  15.420
82562W        W86523  18.359   0.237  14.868
82563W        W86524  19.645   2.556  17.158
82564W        W86525  19.444   2.472  16.250
82565W        W86526  19.186   2.424  14.648
82566W        W86527  18.427   2.665  15.416
82567W        W86528  18.931   1.735  17.858
82568W        W86529  19.635   0.295  18.044
82569W        W86530  20.344   0.437  17.400
82570W        W86531  19.539   0.205  15.681
82571W        W86532  20.598   0.282  15.186
82572W        W86533  18.543   0.214  16.763
82573W        W86534  18.591   1.177  16.133
82574W        W86535  21.280   0.285  16.539
82575W        W86536  18.702   0.783  15.353
82576W        W86537  21.273   0.471  16.969
82577W        W86538  21.669   1.674  14.654
82578W        W86539  18.961   0.432  16.473
82579W        W86540  20.075   1.004  17.413
82580W        W86541  18.223   0.694  14.891
82581W        W86542  19.009   2.083  17.452
82582W        W86543  20.367   1.481  16.631
82583W        W86544  20.234   3.560  14.927
82584W        W86545  18.380   2.067  14.624
82585W        W86546  19.115   2.478  17.750
82586W        W86547  18.636   1.645  17.381
82587W        W86548  19.627   1.750  17.175
82588W        W86549  21.395   0.109  17.437
82589W        W86550  21.793   1.719  17.428
82590W        W86551  21.781   1.919  15.114
82591W        W86552  20.644   2.251  15.213
82592W        W86553  21.118   3.551  14.908
82593W        W86554  20.295   1.541  18.050
82594W        W86555  18.625   2.508  18.090
82595W        W86556  21.831   0.430  18.042
82596W        W86557  21.549   1.358  16.663
82597W        W86558  19.857   3.488  18.140
82598W        W86559  19.712   0.117  14.867
82599W        W86560  21.251   2.716  14.810
82600W        W86561  19.020   0.809  17.696
82601W        W86562  19.454   2.803  17.558
82602W        W86563  21.580   0.794  17.356
82603W        W86564  20.791   3.453  15.324
82604W        W86565  21.030   2.072  16.691
82605W        W86566  19.280   0.488  17.358
82606W        W86567  19.749   1.557  18.115
82607W        W86568  19.252   2.736  15.309
82608W        W86569  21.007   2.234  15.573
82609W        W86570  18.775   0.860  17.297
82610W        W86571  20.104   2.922  15.761
82611W        W86572  21.854   1.482  15.942
82612W        W86573  20.076   0.115  17.661
82613W        W86574  20.856   2.820  16.740
82614W        W86575  21.159   3.164  16.448
82615W        W86576  20.378   2.966  14.876
82616W        W86577  18.388   2.858  17.718
82617W        W86578  19.131   0.850  16.956
82618W        W86579  19.101   0.198  16.066
82619W        W86580  20.722   1.040  16.758
82620W        W86581  19.520   2.211  14.958
82621W        W86582  21.518   2.153  16.457
82622W        W86583  18.845   2.911  17.880
82623W        W86584  21.232   3.593  15.677
82624W        W86585  19.331   0.613  16.122
82625W        W86586  19.100   2.106  16.212
82626W        W86587  19.413   3.517  16.962
82627W        W86588  21.480   3.613  17.994
82628W        W86589  20.639   1.801  16.927
82629W        W86590  18.488   1.599  14.842
82630W        W86591  21.622   3.257  15.539
82631W        W86592  21.459   0.581  15.158
82632W        W86593  19.598   0.100  17.561
82633W        W86594  21.304   2.902  16.019
82634W        W86595  21.333   1.458  15.924
82635W        W86596  19.450   1.131  16.140
82636W        W86597  19.695   1.393  17.464
82637W        W86598  20.806   2.546  17.327
82638W        W86599  19.456   1.000  17.439
82639W        W86600  19.435   3.466  16.055
82640W        W86601  18.752   3.425  17.689
82641W        W86602  18.864   2.786  14.819
82642W        W86603  21.381   2.544  15.629
82643W        W86604  18.985   1.336  17.515
82644W        W86605  21.758   1.266  14.996
82645W        W86606  19.503   2.323  15.467
82646W        W86607  20.602   1.705  17.548
82647W        W86608  20.493   1.333  17.092
82648W        W86609  19.053   1.705  17.121
82649W        W86610  21.263   3.593  16.950
82650W        W86611  21.054   0.227  17.944
82651W        W86612  18.718   0.377  17.531
82652W        W86613  19.057   1.400  16.584
82653W        W86614  19.426   1.214  14.706
82654W        W86615  18.229   2.973  17.251
82655W        W86616  19.814   1.682  16.694
82656W        W86617  19.637   0.707  14.799
82657W        W86618  18.772   1.523  15.580
82658W        W86619  18.543   3.375  17.017
82659W        W86620  21.338   1.601  15.125
82660W        W86621  21.433   0.517  17.811
82661W        W86622  20.869   2.726  15.774
82662W        W86623  18.467   1.650  17.951
82663W        W86624  21.433   0.114  15.247
82664W        W86625  20.953   2.589  15.258
82665W        W86626  19.855   1.647  15.343
82666W        W86627  21.042   0.451  14.866
82667W        W86628  21.107   1.058  17.052
82668W        W86629  18.816   1.651  16.259
82669W        W86630  19.110   2.590  15.908
82670W        W86631  20.873   1.210  15.873
82671W        W86632  19.896   0.589  16.569
82672W        W86633  21.858   2.500  17.080
82673W        W86634  21.776   0.487  16.641
82674W        W86635  18.315   3.317  16.017
82675W        W86636  18.824   2.504  15.553
82676W        W86637  18.739   0.121  18.106
82677W        W86638  19.858   2.974  18.208
82678W        W86639  21.613   1.942  15.998
82679W        W86640  20.967   2.119  14.878
82680W        W86641  20.262   3.640  17.090
82681W        W86642  21.119   2.362  18.127
82682W        W86643  19.934   0.072  15.407
82683W        W86644  20.647   0.941  16.266
82684W        W86645  18.333   2.528  16.598
82685W        W86646  19.586   0.490  15.239
82686W        W86647  19.390   1.974  18.088
82687W        W86648  20.384   0.955  15.802
82688W        W86649  20.589   2.365  16.924
82689W        W86650  18.743   2.970  17.359
82690W        W86651  19.334   2.953  18.082
82691W        W86652  19.185   0.750  15.096
82692W        W86653  20.702   0.892  15.421
82693W        W86654  20.660   3.000  17.658
82694W        W86655  19.345   1.592  16.257
82695W        W86656  19.000   3.290  17.122
82696W        W86657  21.745   3.407  14.723
82697W        W86658  18.608   2.079  17.719
82698W        W86659  20.603   2.341  16.407
82699W        W86660  19.039   1.990  15.649
82700W        W86661  19.410   2.997  17.044
82701W        W86662  19.788   0.416  16.085
82702W        W86663  18.399   2.400  15.015
82703W        W86664  19.918   1.351  14.885
82704W        W86665  18.564   1.900  15.904
82705W        W86666  19.854   0.542  17.368
82706W        W86667  21.526   0.251  14.795
82707W        W86668  21.619   1.997  17.894
82708W        W86669  20.273   3.254  18.046
82709W        W86670  21.831   2.348  17.568
82710W        W86671  21.239   3.146  18.179
82711W        W86672  18.978   3.602  16.657
82712W        W86673  21.837   2.224  15.531
82713W        W86674  20.367   1.491  16.044
82714W        W86675  20.134   0.103  15.934
82715W        W86676  19.193   3.087  15.771
82716W        W86677  19.692   0.828  16.996
82717W        W86678  19.392   0.197  16.465
82718W        W86679  18.455   3.019  15.013
82719W        W86680  20.271   2.383  15.731
82720W        W86681  19.146   3.178  17.610
82721W        W86682  18.623   2.001  15.306
82722W        W86683  18.508   0.544  16.305
82723W        W86684  20.056   2.509  16.362
82724W        W86685  18.308   0.363  15.382
82725W        W86686  20.972   1.569  17.309
82726W        W86687  20.849   0.955  14.881
82727W        W86688  21.366   2.627  16.529
82728W        W86689  20.027   3.111  16.360
82729W        W86690  19.439   3.215  15.271
82730W        W86691  20.721   0.118  14.701
82731W        W86692  18.521   3.378  16.442
82732W        W86693  20.718   1.136  18.077
82733W        W86694  18.701   0.666  18.076
82734W        W86695  18.432   1.266  15.409
82735W        W86696  19.123   1.255  15.134
82736W        W86697  20.886   1.582  17.951
82737W        W86698  19.229   1.863  16.660
82738W        W86699  20.703   0.149  15.780
82739W        W86700  19.834   3.580  16.283
82740W        W86701  21.048   3.042  17.220
82741W        W86702  20.632   3.191  16.331
82742W        W86703  20.651   2.171  15.925
82743W        W86704  20.113   0.396  14.996
82744W        W86705  21.794   0.024  15.718
82745W        W86706  19.482   1.659  14.881
82746W        W86707  21.648   0.996  15.871
82747W        W86708  20.340   2.166  14.748
82748W        W86709  21.276   2.366  17.496
82749W        W86710  20.930   3.067  14.963
82750W        W86711  19.545   0.742  17.869
82751W        W86712  19.365   1.326  17.110
82752W        W86713  21.457   2.821  17.387
82753W        W86714  20.557   0.771  17.764
82754W        W86715  18.401   1.242  17.541
82755W        W86716  20.161   1.719  17.267
82756W        W86717  18.518   2.477  15.924
82757W        W86718  18.665   1.774  16.814
82758W        W86719  20.982   2.060  17.164
82759W        W86720  20.754   3.440  17.975
82760W        W86721  20.650   1.179  17.528
82761W        W86722  20.927   3.233  15.933
82762W        W86723  19.929   2.953  17.256
82763W        W86724  19.414   3.308  16.525
82764W        W86725  21.219   2.479  16.944
82765W        W86726  20.269   2.551  18.081
82766W        W86727  18.874   2.504  16.420
82767W        W86728  21.220   2.263  16.065
82768W        W86729  20.861   3.329  16.816
82769W        W86730  18.839   3.058  16.686
82770W        W86731  19.860   1.110  17.896
82771W        W86732  20.311   3.276  15.407
82772W        W86733  19.619   2.531  18.045
82773W        W86734  19.745   2.769  15.422
82774W        W86735  18.966   1.509  14.681
82775W        W86736  18.305   3.595  21.580
82776W        W86737  18.681   2.488  21.103
82777W        W86738  21.386   2.218  18.873
82778W        W86739  21.516   3.303  20.900
82779W        W86740  19.434   3.294  18.426
82780W        W86741  19.517   1.446  19.409
82781W        W86742  19.032   1.294  19.573
82782W        W86743  20.023   2.109  19.007
82783W        W86744  19.698   3.201  21.362
82784W        W86745  18.347   0.762  21.325
82785W        W86746  19.109   0.042  21.127
82786W        W86747  20.803   0.430  20.014
82787W        W86748  20.452   1.301  18.584
82788W        W86749  21.022   0.735  21.675
82789W        W86750  18.388   0.527  20.800
82790W        W86751  18.487   3.146  21.821
82791W        W86752  20.009   2.536  18.553
82792W        W86753  18.441   1.319  20.246
82793W        W86754  19.334   1.210  21.483
82794W        W86755  21.793   1.069  19.982
82795W        W86756  21.557   2.112  20.841
82796W        W86757  19.865   1.445  19.868
82797W        W86758  20.411   2.784  20.237
82798W        W86759  18.911   2.218  20.469
82799W        W86760  18.270   1.746  20.040
82800W        W86761  19.306   1.718  21.232
82801W        W86762  21.577   1.501  21.486
82802W        W86763  19.193   2.945  19.931
82803W        W86764  20.314   2.634  21.065
82804W        W86765  19.534   1.274  20.290
82805W        W86766  19.826   2.058  19.933
82806W        W86767  20.823   2.831  21.781
82807W        W86768  19.902   2.151  21.791
82808W        W86769  19.883   1.867  21.269
82809W        W86770  18.292   1.258  21.791
82810W        W86771  21.124   2.793  21.390
82811W        W86772  18.705   0.375  19.388
82812W        W86773  19.232   2.633  20.387
82813W        W86774  21.695   2.416  19.677
82814W        W86775  21.108   0.816  20.244
82815W        W86776  21.393   0.769  18.339
82816W        W86777  21.858   1.570  20.645
82817W        W86778  19.825   3.277  20.398
82818W        W86779  21.599   2.743  18.836
82819W        W86780  18.728   3.529  18.590
82820W        W86781  19.121   3.575  19.266
82821W        W86782  18.918   0.329  20.692
82822W        W86783  21.541   1.347  20.967
82823W        W86784  20.946   1.769  19.426
82824W        W86785  20.912   1.457  18.453
82825W        W86786  20.120   2.601  20.593
82826W        W86787  19.926   0.931  19.792
82827W        W86788  20.526   3.018  20.786
82828W        W86789  21.397   1.809  19.208
82829W        W86790  20.299   0.467  19.224
82830W        W86791  18.956   3.161  18.907
82831W        W86792  18.327   0.660  19.506
82832W        W86793  21.113   1.267  19.980
82833W        W86794  18.571   2.884  19.895
82834W        W86795  19.912   3.234  18.765
82835W        W86796  21.304   1.260  18.229
82836W        W86797  18.327   3.018  20.393
82837W        W86798  19.118   2.590  20.873
82838W        W86799  19.491   1.950  19.492
82839W        W86800  19.513   0.355  20.585
82840W        W86801  21.742   0.117  19.882
82841W        W86802  18.961   1.989  18.350
82842W        W86803  18.616   1.022  18.529
82843W        W86804  18.678   2.978  19.323
82844W        W86805  19.809   2.461  19.571
82845W        W86806  21.141   3.320  21.285
82846W        W86807  20.067   0.962  18.969
82847W        W86808  21.450   3.360  19.741
82848W        W86809  21.127   1.213  21.339
82849W        W86810  21.840   2.869  19.473
82850W        W86811  20.467   2.161  20.957
82851W        W86812  18.233   1.712  19.163
82852W        W86813  19.344   2.127  20.736
82853W        W86814  20.548   1.391  19.114
82854W        W86815  20.425   1.881  19.218
82855W        W86816  18.768   1.301  20.692
82856W        W86817  18.753   1.177  21.614
82857W        W86818  18.643   0.094  19.773
82858W        W86819  20.411   0.441  20.334
82859W        W86820  20.059   0.626  21.497
82860W        W86821  20.414   0.775  18.675
82861W        W86822  21.597   3.168  21.429
82862W        W86823  20.564   0.249  21.468
82863W        W86824  21.583   2.550  21.590
82864W        W86825  21.013   0.717  21.186
82865W        W86826  20.813   0.655  19.456
82866W        W86827  21.206   1.789  21.860
82867W        W86828  18.946   3.365  19.846
82868W        W86829  19.604   1.082  18.832
82869W        W86830  19.173   0.366  21.496
82870W        W86831  21.225   0.850  19.177
82871W        W86832  21.592   1.332  19.122
82872W        W86833  19.335   3.549  21.593
82873W        W86834  19.261   0.085  18.828
82874W        W86835  21.582   0.619  19.863
82875W        W86836  21.732   2.868  18.308
82876W        W86837  18.639   2.071  20.010
82877W        W86838  20.556   0.658  18.240
82878W        W86839  21.690   2.990  19.960
82879W        W86840  21.729   0.184  20.710
82880W        W86841  20.174   1.396  21.264
82881W        W86842  20.267   2.735  18.967
82882W        W86843  20.667   2.029  21.707
82883W        W86844  20.341   0.006  20.016
82884W        W86845  18.953   0.909  20.079
82885W        W86846  18.507   2.109  20.853
82886W        W86847  20.366   3.302  19.559
82887W        W86848  21.560   0.899  20.431
82888W        W86849  20.197   3.246  21.198
82889W        W86850  21.540   2.305  18.403
82890W        W86851  19.975   1.788  19.464
82891W        W86852  21.827   0.299  21.205
82892W        W86853  19.976   2.134  20.799
82893W        W86854  20.193   1.020  20.244
82894W        W86855  21.045   1.318  19.082
82895W        W86856  21.332   1.051  18.724
82896W        W86857  21.141   3.091  19.113
82897W        W86858  20.975   2.694  19.909
82898W        W86859  20.871   1.773  18.887
82899W        W86860  20.304   1.983  19.873
82900W        W86861  21.185   1.771  19.940
82901W        W86862  18.560   0.786  20.364
82902W        W86863  21.338   1.838  21.191
82903W        W86864  21.689   3.456  20.337
82904W        W86865  19.619   2.900  19.739
82905W        W86866  20.626   3.433  21.063
82906W        W86867  20.620   0.763  20.827
82907W        W86868  19.827   3.471  20.888
82908W        W86869  21.524   0.425  19.354
82909W        W86870  21.315   1.744  20.655
82910W        W86871  18.298   1.065  20.693
82911W        W86872  21.158   0.860  19.711
82912W        W86873  21.569   1.011  21.488
82913W        W86874  20.454   2.710  19.706
82914W        W86875  19.710   3.301  19.319
82915W        W86876  18.825   0.481  18.577
82916W        W86877  19.929   0.135  20.387
82917W        W86878  18.957   3.255  18.235
82918W        W86879  19.331   1.721  18.986
82919W        W86880  19.985   2.350  21.299
82920W        W86881  19.815   0.708  19.289
82921W        W86882  21.171   0.305  19.717
82922W        W86883  20.891   3.587  20.045
82923W        W86884  20.303   3.235  20.385
82924W        W86885  19.699   2.272  20.346
82925W        W86886  21.469   2.995  20.472
82926W        W86887  19.163   0.498  19.241
82927W        W86888  19.685   2.795  20.201
82928W        W86889  19.168   0.726  18.266
82929W        W86890  19.969   1.335  20.660
82930W        W86891  20.817   0.201  20.530
82931W        W86892  18.237   2.044  20.415
82932W        W86893  19.941   1.862  18.573
82933W        W86894  19.209   0.177  18.343
82934W        W86895  19.947   1.258  19.394
82935W        W86896  20.917   0.234  21.093
82936W        W86897  19.505   2.246  21.202
82937W        W86898  20.309   2.028  21.419
82938W        W86899  20.926   2.058  21.312
82939W        W86900  20.210   0.198  21.817
82940W        W86901  19.432   0.814  20.210
82941W        W86902  18.858   0.770  19.608
82942W        W86903  18.644   3.482  19.284
82943W        W86904  19.976   2.812  21.409
82944W        W86905  19.011   2.297  18.768
82945W        W86906  20.691   1.682  19.989
82946W        W86907  20.971   1.481  20.388
82947W        W86908  20.176   2.155  20.322
82948W        W86909  20.646   2.529  18.454
82949W        W86910  20.318   0.550  19.782
82950W        W86911  21.797   0.828  19.050
82951W        W86912  18.291   3.417  21.081
82952W        W86913  18.708   2.643  20.613
82953W        W86914  18.275   3.489  18.845
82954W        W86915  20.174   0.759  20.651
82955W        W86916  19.537   2.782  18.500
82956W        W86917  21.442   3.164  18.686
82957W        W86918  20.417   1.817  18.700
82958W        W86919  19.260   1.008  19.217
82959W        W86920  20.092   0.918  18.269
82960W        W86921  20.676   2.483  21.447
82961W        W86922  21.029   0.389  19.064
82962W        W86923  18.359   0.237  18.512
82963W        W86924  19.645   2.556  20.802
82964W        W86925  19.444   2.472  19.894
82965W        W86926  19.186   2.424  18.292
82966W        W86927  18.427   2.665  19.060
82967W        W86928  18.931   1.735  21.502
82968W        W86929  19.635   0.295  21.688
82969W        W86930  20.344   0.437  21.044
82970W        W86931  19.539   0.205  19.325
82971W        W86932  20.598   0.282  18.830
82972W        W86933  18.543   0.214  20.407
82973W        W86934  18.591   1.177  19.777
82974W        W86935  21.280   0.285  20.183
82975W        W86936  18.702   0.783  18.997
82976W        W86937  21.273   0.471  20.613
82977W        W86938  21.669   1.674  18.298
82978W        W86939  18.961   0.432  20.117
82979W        W86940  20.075   1.004  21.057
82980W        W86941  18.223   0.694  18.535
82981W        W86942  19.009   2.083  21.096
82982W        W86943  20.367   1.481  20.275
82983W        W86944  20.234   3.560  18.571
82984W        W86945  18.380   2.067  18.268
82985W        W86946  19.115   2.478  21.394
82986W        W86947  18.636   1.645  21.025
82987W        W86948  19.627   1.750  20.819
82988W        W86949  21.395   0.109  21.081
82989W        W86950  21.793   1.719  21.072
82990W        W86951  21.781   1.919  18.758
82991W        W86952  20.644   2.251  18.857
82992W        W86953  21.118   3.551  18.552
82993W        W86954  20.295   1.541  21.694
82994W        W86955  18.625   2.508  21.734
82995W        W86956  21.831   0.430  21.686
82996W        W86957  21.549   1.358  20.307
82997W        W86958  19.857   3.488  21.784
82998W        W86959  19.712   0.117  18.511
82999W        W86960  21.251   2.716  18.454
83000W        W86961  19.020   0.809  21.340
83001W        W86962  19.454   2.803  21.202
83002W        W86963  21.580   0.794  21.000
83003W        W86964  20.791   3.453  18.968
83004W        W86965  21.030   2.072  20.335
83005W        W86966  19.280   0.488  21.002
83006W        W86967  19.749   1.557  21.759
83007W        W86968  19.252   2.736  18.953
83008W        W86969  21.007   2.234  19.217
83009W        W86970  18.775   0.860  20.941
83010W        W86971  20.104   2.922  19.405
83011W        W86972  21.854   1.482  19.586
83012W        W86973  20.076   0.115  21.305
83013W        W86974  20.856   2.820  20.384
83014W        W86975  21.159   3.164  20.092
83015W        W86976  20.378   2.966  18.520
83016W        W86977  18.388   2.858  21.362
83017W        W86978  19.131   0.850  20.600
83018W        W86979  19.101   0.198  19.710
83019W        W86980  20.722   1.040  20.402
83020W        W86981  19.520   2.211  18.602
83021W        W86982  21.518   2.153  20.101
83022W        W86983  18.845   2.911  21.524
83023W        W86984  21.232   3.593  19.321
83024W        W86985  19.331   0.613  19.766
83025W        W86986  19.100   2.106  19.856
83026W        W86987  19.413   3.517  20.606
83027W        W86988  21.480   3.613  21.638
83028W        W86989  20.639   1.801  20.571
83029W        W86990  18.488   1.599  18.486
83030W        W86991  21.622   3.257  19.183
83031W        W86992  21.459   0.581  18.802
83032W        W86993  19.598   0.100  21.205
83033W        W86994  21.304   2.902  19.663
83034W        W86995  21.333   1.458  19.568
83035W        W86996  19.450   1.131  19.784
83036W        W86997  19.695   1.393  21.108
83037W        W86998  20.806   2.546  20.971
83038W        W86999  19.456   1.000  21.083
83039W        W87000  19.435   3.466  19.699
83040W        W87001  18.752   3.425  21.333
83041W        W87002  18.864   2.786  18.463
83042W        W87003  21.381   2.544  19.273
83043W        W87004  18.985   1.336  21.159
83044W        W87005  21.758   1.266  18.640
83045W        W87006  19.503   2.323  19.111
83046W        W87007  20.602   1.705  21.192
83047W        W87008  20.493   1.333  20.736
83048W        W87009  19.053   1.705  20.765
83049W        W87010  21.263   3.593  20.594
83050W        W87011  21.054   0.227  21.588
83051W        W87012  18.718   0.377  21.175
83052W        W87013  19.057   1.400  20.228
83053W        W87014  19.426   1.214  18.350
83054W        W87015  18.229   2.973  20.895
83055W        W87016  19.814   1.682  20.338
83056W        W87017  19.637   0.707  18.443
83057W        W87018  18.772   1.523  19.224
83058W        W87019  18.543   3.375  20.661
83059W        W87020  21.338   1.601  18.769
83060W        W87021  21.433   0.517  21.455
83061W        W87022  20.869   2.726  19.418
83062W        W87023  18.467   1.650  21.595
83063W        W87024  21.433   0.114  18.891
83064W        W87025  20.953   2.589  18.902
83065W        W87026  19.855   1.647  18.987
83066W        W87027  21.042   0.451  18.510
83067W        W87028  21.107   1.058  20.696
83068W        W87029  18.816   1.651  19.903
83069W        W87030  19.110   2.590  19.552
83070W        W87031  20.873   1.210  19.517
83071W        W87032  19.896   0.589  20.213
83072W        W87033  21.858   2.500  20.724
83073W        W87034  21.776   0.487  20.285
83074W        W87035  18.315   3.317  19.661
83075W        W87036  18.824   2.504  19.197
83076W        W87037  18.739   0.121  21.750
83077W        W87038  19.858   2.974  21.852
83078W        W87039  21.613   1.942  19.642
83079W        W87040  20.967   2.119  18.522
83080W        W87041  20.262   3.640  20.734
83081W        W87042  21.119   2.362  21.771
83082W        W87043  19.934   0.072  19.051
83083W        W87044  20.647   0.941  19.910
83084W        W87045  18.333   2.528  20.242
83085W        W87046  19.586   0.490  18.883
83086W        W87047  19.390   1.974  21.732
83087W        W87048  20.384   0.955  19.446
83088W        W87049  20.589   2.365  20.568
83089W        W87050  18.743   2.970  21.003
83090W        W87051  19.334   2.953  21.726
83091W        W87052  19.185   0.750  18.740
83092W        W87053  20.702   0.892  19.065
83093W        W87054  20.660   3.000  21.302
83094W        W87055  19.345   1.592  19.901
83095W        W87056  19.000   3.290  20.766
83096W        W87057  21.745   3.407  18.367
83097W        W87058  18.608   2.079  21.363
83098W        W87059  20.603   2.341  20.051
83099W        W87060  19.039   1.990  19.293
83100W        W87061  19.410   2.997  20.688
83101W        W87062  19.788   0.416  19.729
83102W        W87063  18.399   2.400  18.659
83103W        W87064  19.918   1.351  18.529
83104W        W87065  18.564   1.900  19.548
83105W        W87066  19.854   0.542  21.012
83106W        W87067  21.526   0.251  18.439
83107W        W87068  21.619   1.997  21.538
83108W        W87069  20.273   3.254  21.690
83109W        W87070  21.831   2.348  21.212
83110W        W87071  21.239   3.146  21.823
83111W        W87072  18.978   3.602  20.301
83112W        W87073  21.837   2.224  19.175
83113W        W87074  20.367   1.491  19.688
83114W        W87075  20.134   0.103  19.578
83115W        W87076  19.193   3.087  19.415
83116W        W87077  19.692   0.828  20.640
83117W        W87078  19.392   0.197  20.109
83118W        W87079  18.455   3.019  18.657
83119W        W87080  20.271   2.383  19.375
83120W        W87081  19.146   3.178  21.254
83121W        W87082  18.623   2.001  18.950
83122W        W87083  18.508   0.544  19.949
83123W        W87084  20.056   2.509  20.006
83124W        W87085  18.308   0.363  19.026
83125W        W87086  20.972   1.569  20.953
83126W        W87087  20.849   0.955  18.525
83127W        W87088  21.366   2.627  20.173
83128W        W87089  20.027   3.111  20.004
83129W        W87090  19.439   3.215  18.915
83130W        W87091  20.721   0.118  18.345
83131W        W87092  18.521   3.378  20.086
83132W        W87093  20.718   1.136  21.721
83133W        W87094  18.701   0.666  21.720
83134W        W87095  18.432   1.266  19.053
83135W        W87096  19.123   1.255  18.778
83136W        W87097  20.886   1.582  21.595
83137W        W87098  19.229   1.863  20.304
83138W        W87099  20.703   0.149  19.424
83139W        W87100  19.834   3.580  19.927
83140W        W87101  21.048   3.042  20.864
83141W        W87102  20.632   3.191  19.975
83142W        W87103  20.651   2.171  19.569
83143W        W87104  20.113   0.396  18.640
83144W        W87105  21.794   0.024  19.362
83145W        W87106  19.482   1.659  18.525
83146W        W87107  21.648   0.996  19.515
83147W        W87108  20.340   2.166  18.392
83148W        W87109  21.276   2.366  21.140
83149W        W87110  20.930   3.067  18.607
83150W        W87111  19.545   0.742  21.513
83151W        W87112  19.365   1.326  20.754
83152W        W87113  21.457   2.821  21.031
83153W        W87114  20.557   0.771  21.408
83154W        W87115  18.401   1.242  21.185
83155W        W87116  20.161   1.719  20.911
83156W        W87117  18.518   2.477  19.568
83157W        W87118  18.665   1.774  20.458
83158W        W87119  20.982   2.060  20.808
83159W        W87120  20.754   3.440  21.619
83160W        W87121  20.650   1.179  21.172
83161W        W87122  20.927   3.233  19.577
83162W        W87123  19.929   2.953  20.900
83163W        W87124  19.414   3.308  20.169
83164W        W87125  21.219   2.479  20.588
83165W        W87126  20.269   2.551  21.725
83166W        W87127  18.874   2.504  20.064
83167W        W87128  21.220   2.263  19.709
83168W        W87129  20.861   3.329  20.460
83169W        W87130  18.839   3.058  20.330
83170W        W87131  19.860   1.110  21.540
83171W        W87132  20.311   3.276  19.051
83172W        W87133  19.619   2.531  21.689
83173W        W87134  19.745   2.769  19.066
83174W        W87135  18.966   1.509  18.325
83175W        W87136  21.386   2.218  22.518
83176W        W87137  19.434   3.294  22.071
83177W        W87138  19.517   1.446  23.054
83178W        W87139  19.032   1.294  23.218
83179W        W87140  20.023   2.109  22.652
83180W        W87141  20.452   1.301  22.229
83181W        W87142  20.009   2.536  22.198
83182W        W87143  18.705   0.375  23.033
83183W        W87144  21.393   0.769  21.984
83184W        W87145  21.599   2.743  22.481
83185W        W87146  18.728   3.529  22.235
83186W        W87147  19.121   3.575  22.911
83187W        W87148  20.946   1.769  23.071
83188W        W87149  20.912   1.457  22.098
83189W        W87150  21.397   1.809  22.853
83190W        W87151  20.299   0.467  22.869
83191W        W87152  18.956   3.161  22.552
83192W        W87153  19.912   3.234  22.410
83193W        W87154  21.304   1.260  21.874
83194W        W87155  19.491   1.950  23.137
83195W        W87156  18.961   1.989  21.995
83196W        W87157  18.616   1.022  22.174
83197W        W87158  18.678   2.978  22.968
83198W        W87159  19.809   2.461  23.216
83199W        W87160  20.067   0.962  22.614
83200W        W87161  18.233   1.712  22.808
83201W        W87162  20.548   1.391  22.759
83202W        W87163  20.425   1.881  22.863
83203W        W87164  20.414   0.775  22.320
83204W        W87165  20.813   0.655  23.101
83205W        W87166  19.604   1.082  22.477
83206W        W87167  21.225   0.850  22.822
83207W        W87168  21.592   1.332  22.767
83208W        W87169  19.261   0.085  22.473
83209W        W87170  21.732   2.868  21.953
83210W        W87171  20.556   0.658  21.885
83211W        W87172  20.267   2.735  22.612
83212W        W87173  20.366   3.302  23.204
83213W        W87174  21.540   2.305  22.048
83214W        W87175  19.975   1.788  23.109
83215W        W87176  21.045   1.318  22.727
83216W        W87177  21.332   1.051  22.369
83217W        W87178  21.141   3.091  22.758
83218W        W87179  20.871   1.773  22.532
83219W        W87180  21.524   0.425  22.999
83220W        W87181  19.710   3.301  22.964
83221W        W87182  18.825   0.481  22.222
83222W        W87183  18.957   3.255  21.880
83223W        W87184  19.331   1.721  22.631
83224W        W87185  19.815   0.708  22.934
83225W        W87186  19.163   0.498  22.886
83226W        W87187  19.168   0.726  21.911
83227W        W87188  19.941   1.862  22.218
83228W        W87189  19.209   0.177  21.988
83229W        W87190  19.947   1.258  23.039
83230W        W87191  18.858   0.770  23.253
83231W        W87192  18.644   3.482  22.929
83232W        W87193  19.011   2.297  22.413
83233W        W87194  20.646   2.529  22.099
83234W        W87195  21.797   0.828  22.695
83235W        W87196  18.275   3.489  22.490
83236W        W87197  19.537   2.782  22.145
83237W        W87198  21.442   3.164  22.331
83238W        W87199  20.417   1.817  22.345
83239W        W87200  19.260   1.008  22.862
83240W        W87201  20.092   0.918  21.914
83241W        W87202  21.029   0.389  22.709
83242W        W87203  18.359   0.237  22.157
83243W        W87204  19.186   2.424  21.937
83244W        W87205  18.427   2.665  22.705
83245W        W87206  19.539   0.205  22.970
83246W        W87207  20.598   0.282  22.475
83247W        W87208  18.702   0.783  22.642
83248W        W87209  21.669   1.674  21.943
83249W        W87210  18.223   0.694  22.180
83250W        W87211  20.234   3.560  22.216
83251W        W87212  18.380   2.067  21.913
83252W        W87213  21.781   1.919  22.403
83253W        W87214  20.644   2.251  22.502
83254W        W87215  21.118   3.551  22.197
83255W        W87216  19.712   0.117  22.156
83256W        W87217  21.251   2.716  22.099
83257W        W87218  20.791   3.453  22.613
83258W        W87219  19.252   2.736  22.598
83259W        W87220  21.007   2.234  22.862
83260W        W87221  20.104   2.922  23.050
83261W        W87222  21.854   1.482  23.231
83262W        W87223  20.378   2.966  22.165
83263W        W87224  19.520   2.211  22.247
83264W        W87225  21.232   3.593  22.966
83265W        W87226  18.488   1.599  22.131
83266W        W87227  21.622   3.257  22.828
83267W        W87228  21.459   0.581  22.447
83268W        W87229  21.333   1.458  23.213
83269W        W87230  18.864   2.786  22.108
83270W        W87231  21.381   2.544  22.918
83271W        W87232  21.758   1.266  22.285
83272W        W87233  19.503   2.323  22.756
83273W        W87234  19.426   1.214  21.995
83274W        W87235  19.637   0.707  22.088
83275W        W87236  18.772   1.523  22.869
83276W        W87237  21.338   1.601  22.414
83277W        W87238  20.869   2.726  23.063
83278W        W87239  21.433   0.114  22.536
83279W        W87240  20.953   2.589  22.547
83280W        W87241  19.855   1.647  22.632
83281W        W87242  21.042   0.451  22.155
83282W        W87243  19.110   2.590  23.197
83283W        W87244  20.873   1.210  23.162
83284W        W87245  18.315   3.317  23.306
83285W        W87246  18.824   2.504  22.842
83286W        W87247  21.613   1.942  23.287
83287W        W87248  20.967   2.119  22.167
83288W        W87249  19.934   0.072  22.696
83289W        W87250  19.586   0.490  22.528
83290W        W87251  20.384   0.955  23.091
83291W        W87252  19.185   0.750  22.385
83292W        W87253  20.702   0.892  22.710
83293W        W87254  21.745   3.407  22.012
83294W        W87255  18.399   2.400  22.304
83295W        W87256  19.918   1.351  22.174
83296W        W87257  18.564   1.900  23.193
83297W        W87258  21.526   0.251  22.084
83298W        W87259  21.837   2.224  22.820
83299W        W87260  20.134   0.103  23.223
83300W        W87261  19.193   3.087  23.060
83301W        W87262  18.455   3.019  22.302
83302W        W87263  20.271   2.383  23.020
83303W        W87264  18.623   2.001  22.595
83304W        W87265  18.308   0.363  22.671
83305W        W87266  20.849   0.955  22.170
83306W        W87267  19.439   3.215  22.560
83307W        W87268  20.721   0.118  21.990
83308W        W87269  18.432   1.266  22.698
83309W        W87270  19.123   1.255  22.423
83310W        W87271  20.651   2.171  23.214
83311W        W87272  20.113   0.396  22.285
83312W        W87273  21.794   0.024  23.007
83313W        W87274  19.482   1.659  22.170
83314W        W87275  21.648   0.996  23.160
83315W        W87276  20.340   2.166  22.037
83316W        W87277  20.930   3.067  22.252
83317W        W87278  18.518   2.477  23.213
83318W        W87279  20.927   3.233  23.222
83319W        W87280  20.311   3.276  22.696
83320W        W87281  19.745   2.769  22.711
83321W        W87282  18.966   1.509  21.970
83322W        W87283  18.305   7.239   3.359
83323W        W87284  18.681   6.132   2.882
83324W        W87285  21.386   5.862   0.652
83325W        W87286  21.516   6.947   2.679
83326W        W87287  19.434   6.938   0.205
83327W        W87288  19.517   5.090   1.188
83328W        W87289  19.032   4.938   1.352
83329W        W87290  20.023   5.753   0.786
83330W        W87291  19.698   6.845   3.141
83331W        W87292  18.347   4.406   3.104
83332W        W87293  19.109   3.686   2.906
83333W        W87294  20.803   4.074   1.793
83334W        W87295  20.452   4.945   0.363
83335W        W87296  21.022   4.379   3.454
83336W        W87297  18.388   4.171   2.579
83337W        W87298  18.487   6.790   3.600
83338W        W87299  20.009   6.180   0.332
83339W        W87300  18.441   4.963   2.025
83340W        W87301  19.334   4.854   3.262
83341W        W87302  21.793   4.713   1.761
83342W        W87303  21.557   5.756   2.620
83343W        W87304  20.411   6.428   2.016
83344W        W87305  18.911   5.862   2.248
83345W        W87306  18.270   5.390   1.819
83346W        W87307  19.306   5.362   3.011
83347W        W87308  21.577   5.145   3.265
83348W        W87309  19.193   6.589   1.710
83349W        W87310  20.314   6.278   2.844
83350W        W87311  19.534   4.918   2.069
83351W        W87312  19.826   5.702   1.712
83352W        W87313  20.823   6.475   3.560
83353W        W87314  19.902   5.795   3.570
83354W        W87315  19.883   5.511   3.048
83355W        W87316  18.292   4.902   3.570
83356W        W87317  21.124   6.437   3.169
83357W        W87318  18.705   4.019   1.167
83358W        W87319  19.232   6.277   2.166
83359W        W87320  21.695   6.060   1.456
83360W        W87321  21.108   4.460   2.023
83361W        W87322  21.393   4.413   0.118
83362W        W87323  21.858   5.214   2.424
83363W        W87324  19.825   6.921   2.177
83364W        W87325  21.599   6.387   0.615
83365W        W87326  18.728   7.173   0.369
83366W        W87327  19.121   7.219   1.045
83367W        W87328  18.918   3.973   2.471
83368W        W87329  21.541   4.991   2.746
83369W        W87330  20.946   5.413   1.205
83370W        W87331  20.912   5.101   0.232
83371W        W87332  20.120   6.245   2.372
83372W        W87333  19.926   4.575   1.571
83373W        W87334  20.526   6.662   2.565
83374W        W87335  21.397   5.453   0.987
83375W        W87336  20.299   4.111   1.003
83376W        W87337  18.956   6.805   0.686
83377W        W87338  18.327   4.304   1.285
83378W        W87339  21.113   4.911   1.759
83379W        W87340  18.571   6.528   1.674
83380W        W87341  19.912   6.878   0.544
83381W        W87342  21.304   4.904   0.008
83382W        W87343  18.327   6.662   2.172
83383W        W87344  19.118   6.234   2.652
83384W        W87345  19.491   5.594   1.271
83385W        W87346  19.513   3.999   2.364
83386W        W87347  21.742   3.761   1.661
83387W        W87348  18.961   5.633   0.129
83388W        W87349  18.616   4.666   0.308
83389W        W87350  18.678   6.622   1.102
83390W        W87351  19.809   6.105   1.350
83391W        W87352  21.141   6.964   3.064
83392W        W87353  20.067   4.606   0.748
83393W        W87354  21.450   7.004   1.520
83394W        W87355  21.127   4.857   3.118
83395W        W87356  21.840   6.513   1.252
83396W        W87357  20.467   5.805   2.736
83397W        W87358  18.233   5.356   0.942
83398W        W87359  19.344   5.771   2.515
83399W        W87360  20.548   5.035   0.893
83400W        W87361  20.425   5.525   0.997
83401W        W87362  18.768   4.945   2.471
83402W        W87363  18.753   4.821   3.393
83403W        W87364  18.643   3.738   1.552
83404W        W87365  20.411   4.085   2.113
83405W        W87366  20.059   4.270   3.276
83406W        W87367  20.414   4.419   0.454
83407W        W87368  21.597   6.812   3.208
83408W        W87369  20.564   3.893   3.247
83409W        W87370  21.583   6.194   3.369
83410W        W87371  21.013   4.361   2.965
83411W        W87372  20.813   4.299   1.235
83412W        W87373  21.206   5.433   3.639
83413W        W87374  18.946   7.009   1.625
83414W        W87375  19.604   4.726   0.611
83415W        W87376  19.173   4.010   3.275
83416W        W87377  21.225   4.494   0.956
83417W        W87378  21.592   4.976   0.901
83418W        W87379  19.335   7.193   3.372
83419W        W87380  19.261   3.729   0.607
83420W        W87381  21.582   4.263   1.642
83421W        W87382  21.732   6.512   0.087
83422W        W87383  18.639   5.715   1.789
83423W        W87384  20.556   4.302   0.019
83424W        W87385  21.690   6.634   1.739
83425W        W87386  21.729   3.828   2.489
83426W        W87387  20.174   5.040   3.043
83427W        W87388  20.267   6.379   0.746
83428W        W87389  20.667   5.673   3.486
83429W        W87390  20.341   3.650   1.795
83430W        W87391  18.953   4.553   1.858
83431W        W87392  18.507   5.753   2.632
83432W        W87393  20.366   6.946   1.338
83433W        W87394  21.560   4.543   2.210
83434W        W87395  20.197   6.890   2.977
83435W        W87396  21.540   5.949   0.182
83436W        W87397  19.975   5.432   1.243
83437W        W87398  21.827   3.943   2.984
83438W        W87399  19.976   5.778   2.578
83439W        W87400  21.045   4.962   0.861
83440W        W87401  21.332   4.695   0.503
83441W        W87402  21.141   6.735   0.892
83442W        W87403  20.975   6.338   1.688
83443W        W87404  20.871   5.417   0.666
83444W        W87405  20.304   5.627   1.652
83445W        W87406  21.185   5.415   1.719
83446W        W87407  18.560   4.430   2.143
83447W        W87408  21.338   5.482   2.970
83448W        W87409  21.689   7.100   2.116
83449W        W87410  19.619   6.544   1.518
83450W        W87411  20.626   7.077   2.842
83451W        W87412  20.620   4.407   2.606
83452W        W87413  19.827   7.115   2.667
83453W        W87414  21.524   4.069   1.133
83454W        W87415  21.315   5.388   2.434
83455W        W87416  18.298   4.709   2.472
83456W        W87417  21.158   4.504   1.490
83457W        W87418  21.569   4.655   3.267
83458W        W87419  20.454   6.354   1.485
83459W        W87420  19.710   6.945   1.098
83460W        W87421  18.825   4.125   0.356
83461W        W87422  19.929   3.779   2.166
83462W        W87423  18.957   6.899   0.014
83463W        W87424  19.331   5.365   0.765
83464W        W87425  19.985   5.994   3.078
83465W        W87426  19.815   4.352   1.068
83466W        W87427  21.171   3.949   1.496
83467W        W87428  20.891   7.231   1.824
83468W        W87429  20.303   6.879   2.164
83469W        W87430  19.699   5.916   2.125
83470W        W87431  21.469   6.639   2.251
83471W        W87432  19.163   4.142   1.020
83472W        W87433  19.685   6.439   1.980
83473W        W87434  19.168   4.370   0.045
83474W        W87435  19.969   4.979   2.439
83475W        W87436  20.817   3.845   2.309
83476W        W87437  18.237   5.688   2.194
83477W        W87438  19.941   5.506   0.352
83478W        W87439  19.209   3.821   0.122
83479W        W87440  19.947   4.902   1.173
83480W        W87441  20.917   3.878   2.872
83481W        W87442  19.505   5.890   2.981
83482W        W87443  20.309   5.672   3.198
83483W        W87444  20.926   5.702   3.091
83484W        W87445  20.210   3.842   3.596
83485W        W87446  19.432   4.458   1.989
83486W        W87447  18.858   4.414   1.387
83487W        W87448  18.644   7.126   1.063
83488W        W87449  19.976   6.456   3.188
83489W        W87450  19.011   5.941   0.547
83490W        W87451  20.691   5.326   1.768
83491W        W87452  20.971   5.125   2.167
83492W        W87453  20.176   5.799   2.101
83493W        W87454  20.646   6.173   0.233
83494W        W87455  20.318   4.194   1.561
83495W        W87456  21.797   4.472   0.829
83496W        W87457  18.291   7.061   2.860
83497W        W87458  18.708   6.287   2.392
83498W        W87459  18.275   7.133   0.624
83499W        W87460  19.537   6.426   0.279
83500W        W87461  21.442   6.808   0.465
83501W        W87462  20.417   5.461   0.479
83502W        W87463  19.260   4.652   0.996
83503W        W87464  20.092   4.562   0.048
83504W        W87465  20.676   6.127   3.226
83505W        W87466  21.029   4.033   0.843
83506W        W87467  18.359   3.881   0.291
83507W        W87468  19.645   6.200   2.581
83508W        W87469  19.444   6.116   1.673
83509W        W87470  19.186   6.068   0.071
83510W        W87471  18.427   6.309   0.839
83511W        W87472  18.931   5.379   3.281
83512W        W87473  19.635   3.939   3.467
83513W        W87474  20.344   4.081   2.823
83514W        W87475  19.539   3.849   1.104
83515W        W87476  20.598   3.926   0.609
83516W        W87477  18.543   3.858   2.186
83517W        W87478  18.591   4.821   1.556
83518W        W87479  21.280   3.929   1.962
83519W        W87480  18.702   4.427   0.776
83520W        W87481  21.273   4.115   2.392
83521W        W87482  21.669   5.318   0.077
83522W        W87483  18.961   4.076   1.896
83523W        W87484  20.075   4.648   2.836
83524W        W87485  18.223   4.338   0.314
83525W        W87486  19.009   5.727   2.875
83526W        W87487  20.367   5.125   2.054
83527W        W87488  20.234   7.204   0.350
83528W        W87489  18.380   5.711   0.047
83529W        W87490  19.115   6.122   3.173
83530W        W87491  18.636   5.289   2.804
83531W        W87492  19.627   5.394   2.598
83532W        W87493  21.395   3.753   2.860
83533W        W87494  21.793   5.363   2.851
83534W        W87495  21.781   5.563   0.537
83535W        W87496  20.644   5.895   0.636
83536W        W87497  21.118   7.195   0.331
83537W        W87498  20.295   5.185   3.473
83538W        W87499  18.625   6.152   3.513
83539W        W87500  21.831   4.074   3.465
83540W        W87501  21.549   5.002   2.086
83541W        W87502  19.857   7.132   3.563
83542W        W87503  19.712   3.761   0.290
83543W        W87504  21.251   6.360   0.233
83544W        W87505  19.020   4.453   3.119
83545W        W87506  19.454   6.447   2.981
83546W        W87507  21.580   4.438   2.779
83547W        W87508  20.791   7.097   0.747
83548W        W87509  21.030   5.716   2.114
83549W        W87510  19.280   4.132   2.781
83550W        W87511  19.749   5.201   3.538
83551W        W87512  19.252   6.380   0.732
83552W        W87513  21.007   5.878   0.996
83553W        W87514  18.775   4.504   2.720
83554W        W87515  20.104   6.566   1.184
83555W        W87516  21.854   5.126   1.365
83556W        W87517  20.076   3.759   3.084
83557W        W87518  20.856   6.464   2.163
83558W        W87519  21.159   6.808   1.871
83559W        W87520  20.378   6.610   0.299
83560W        W87521  18.388   6.502   3.141
83561W        W87522  19.131   4.494   2.379
83562W        W87523  19.101   3.842   1.489
83563W        W87524  20.722   4.684   2.181
83564W        W87525  19.520   5.855   0.381
83565W        W87526  21.518   5.797   1.880
83566W        W87527  18.845   6.555   3.303
83567W        W87528  21.232   7.237   1.100
83568W        W87529  19.331   4.257   1.545
83569W        W87530  19.100   5.750   1.635
83570W        W87531  19.413   7.161   2.385
83571W        W87532  21.480   7.257   3.417
83572W        W87533  20.639   5.445   2.350
83573W        W87534  18.488   5.243   0.265
83574W        W87535  21.622   6.901   0.962
83575W        W87536  21.459   4.225   0.581
83576W        W87537  19.598   3.744   2.984
83577W        W87538  21.304   6.546   1.442
83578W        W87539  21.333   5.102   1.347
83579W        W87540  19.450   4.775   1.563
83580W        W87541  19.695   5.037   2.887
83581W        W87542  20.806   6.190   2.750
83582W        W87543  19.456   4.644   2.862
83583W        W87544  19.435   7.110   1.478
83584W        W87545  18.752   7.069   3.112
83585W        W87546  18.864   6.430   0.242
83586W        W87547  21.381   6.188   1.052
83587W        W87548  18.985   4.980   2.938
83588W        W87549  21.758   4.910   0.419
83589W        W87550  19.503   5.967   0.890
83590W        W87551  20.602   5.349   2.971
83591W        W87552  20.493   4.977   2.515
83592W        W87553  19.053   5.349   2.544
83593W        W87554  21.263   7.237   2.373
83594W        W87555  21.054   3.871   3.367
83595W        W87556  18.718   4.021   2.954
83596W        W87557  19.057   5.044   2.007
83597W        W87558  19.426   4.858   0.129
83598W        W87559  18.229   6.617   2.674
83599W        W87560  19.814   5.326   2.117
83600W        W87561  19.637   4.351   0.222
83601W        W87562  18.772   5.167   1.003
83602W        W87563  18.543   7.019   2.440
83603W        W87564  21.338   5.245   0.548
83604W        W87565  21.433   4.161   3.234
83605W        W87566  20.869   6.370   1.197
83606W        W87567  18.467   5.294   3.374
83607W        W87568  21.433   3.758   0.670
83608W        W87569  20.953   6.233   0.681
83609W        W87570  19.855   5.291   0.766
83610W        W87571  21.042   4.095   0.289
83611W        W87572  21.107   4.702   2.475
83612W        W87573  18.816   5.295   1.682
83613W        W87574  19.110   6.234   1.331
83614W        W87575  20.873   4.854   1.296
83615W        W87576  21.858   6.144   2.503
83616W        W87577  21.776   4.131   2.064
83617W        W87578  18.315   6.961   1.440
83618W        W87579  18.824   6.148   0.976
83619W        W87580  18.739   3.765   3.529
83620W        W87581  19.858   6.618   3.631
83621W        W87582  21.613   5.586   1.421
83622W        W87583  20.967   5.763   0.301
83623W        W87584  20.262   7.284   2.513
83624W        W87585  21.119   6.006   3.550
83625W        W87586  19.934   3.716   0.830
83626W        W87587  20.647   4.585   1.689
83627W        W87588  18.333   6.172   2.021
83628W        W87589  19.586   4.134   0.662
83629W        W87590  19.390   5.618   3.511
83630W        W87591  20.384   4.599   1.225
83631W        W87592  20.589   6.009   2.347
83632W        W87593  18.743   6.614   2.782
83633W        W87594  19.334   6.597   3.505
83634W        W87595  19.185   4.394   0.519
83635W        W87596  20.702   4.536   0.844
83636W        W87597  20.660   6.644   3.081
83637W        W87598  19.345   5.236   1.680
83638W        W87599  19.000   6.934   2.545
83639W        W87600  21.745   7.051   0.146
83640W        W87601  18.608   5.723   3.142
83641W        W87602  20.603   5.985   1.830
83642W        W87603  19.039   5.634   1.072
83643W        W87604  19.410   6.641   2.467
83644W        W87605  19.788   4.060   1.508
83645W        W87606  18.399   6.044   0.438
83646W        W87607  19.918   4.995   0.308
83647W        W87608  18.564   5.544   1.327
83648W        W87609  19.854   4.186   2.791
83649W        W87610  21.526   3.895   0.218
83650W        W87611  21.619   5.641   3.317
83651W        W87612  20.273   6.898   3.469
83652W        W87613  21.831   5.992   2.991
83653W        W87614  21.239   6.790   3.602
83654W        W87615  18.978   7.246   2.080
83655W        W87616  21.837   5.868   0.954
83656W        W87617  20.367   5.135   1.467
83657W        W87618  20.134   3.747   1.357
83658W        W87619  19.193   6.731   1.194
83659W        W87620  19.692   4.472   2.419
83660W        W87621  19.392   3.841   1.888
83661W        W87622  18.455   6.663   0.436
83662W        W87623  20.271   6.027   1.154
83663W        W87624  19.146   6.822   3.033
83664W        W87625  18.623   5.645   0.729
83665W        W87626  18.508   4.188   1.728
83666W        W87627  20.056   6.153   1.785
83667W        W87628  18.308   4.007   0.805
83668W        W87629  20.972   5.213   2.732
83669W        W87630  20.849   4.599   0.304
83670W        W87631  21.366   6.271   1.952
83671W        W87632  20.027   6.755   1.783
83672W        W87633  19.439   6.859   0.694
83673W        W87634  20.721   3.762   0.124
83674W        W87635  18.521   7.022   1.865
83675W        W87636  20.718   4.780   3.500
83676W        W87637  18.701   4.310   3.499
83677W        W87638  18.432   4.910   0.832
83678W        W87639  19.123   4.899   0.557
83679W        W87640  20.886   5.226   3.374
83680W        W87641  19.229   5.507   2.083
83681W        W87642  20.703   3.793   1.203
83682W        W87643  19.834   7.224   1.706
83683W        W87644  21.048   6.686   2.643
83684W        W87645  20.632   6.835   1.754
83685W        W87646  20.651   5.815   1.348
83686W        W87647  20.113   4.040   0.419
83687W        W87648  21.794   3.668   1.141
83688W        W87649  19.482   5.303   0.304
83689W        W87650  21.648   4.640   1.294
83690W        W87651  20.340   5.810   0.171
83691W        W87652  21.276   6.010   2.919
83692W        W87653  20.930   6.711   0.386
83693W        W87654  19.545   4.386   3.292
83694W        W87655  19.365   4.970   2.533
83695W        W87656  21.457   6.465   2.810
83696W        W87657  20.557   4.415   3.187
83697W        W87658  18.401   4.886   2.964
83698W        W87659  20.161   5.363   2.690
83699W        W87660  18.518   6.121   1.347
83700W        W87661  18.665   5.418   2.237
83701W        W87662  20.982   5.704   2.587
83702W        W87663  20.754   7.084   3.398
83703W        W87664  20.650   4.823   2.951
83704W        W87665  20.927   6.877   1.356
83705W        W87666  19.929   6.597   2.679
83706W        W87667  19.414   6.952   1.948
83707W        W87668  21.219   6.123   2.367
83708W        W87669  20.269   6.195   3.504
83709W        W87670  18.874   6.148   1.843
83710W        W87671  21.220   5.907   1.488
83711W        W87672  20.861   6.973   2.239
83712W        W87673  18.839   6.702   2.109
83713W        W87674  19.860   4.754   3.319
83714W        W87675  20.311   6.920   0.830
83715W        W87676  19.619   6.175   3.468
83716W        W87677  19.745   6.413   0.845
83717W        W87678  18.966   5.153   0.104
83718W        W87679  18.305   7.239   7.003
83719W        W87680  18.681   6.132   6.526
83720W        W87681  21.386   5.862   4.296
83721W        W87682  21.516   6.947   6.323
83722W        W87683  19.434   6.938   3.849
83723W        W87684  19.517   5.090   4.832
83724W        W87685  19.032   4.938   4.996
83725W        W87686  20.023   5.753   4.430
83726W        W87687  19.698   6.845   6.785
83727W        W87688  18.347   4.406   6.748
83728W        W87689  19.109   3.686   6.550
83729W        W87690  20.803   4.074   5.437
83730W        W87691  20.452   4.945   4.007
83731W        W87692  21.022   4.379   7.098
83732W        W87693  18.388   4.171   6.223
83733W        W87694  18.487   6.790   7.244
83734W        W87695  20.009   6.180   3.976
83735W        W87696  18.441   4.963   5.669
83736W        W87697  19.334   4.854   6.906
83737W        W87698  21.793   4.713   5.405
83738W        W87699  21.557   5.756   6.264
83739W        W87700  19.865   5.089   5.291
83740W        W87701  20.411   6.428   5.660
83741W        W87702  18.911   5.862   5.892
83742W        W87703  18.270   5.390   5.463
83743W        W87704  21.577   5.145   6.909
83744W        W87705  19.193   6.589   5.354
83745W        W87706  20.314   6.278   6.488
83746W        W87707  19.534   4.918   5.713
83747W        W87708  19.826   5.702   5.356
83748W        W87709  20.823   6.475   7.204
83749W        W87710  19.902   5.795   7.214
83750W        W87711  19.883   5.511   6.692
83751W        W87712  18.292   4.902   7.214
83752W        W87713  21.124   6.437   6.813
83753W        W87714  18.705   4.019   4.811
83754W        W87715  19.232   6.277   5.810
83755W        W87716  21.695   6.060   5.100
83756W        W87717  21.108   4.460   5.667
83757W        W87718  21.393   4.413   3.762
83758W        W87719  21.858   5.214   6.068
83759W        W87720  19.825   6.921   5.821
83760W        W87721  21.599   6.387   4.259
83761W        W87722  18.728   7.173   4.013
83762W        W87723  19.121   7.219   4.689
83763W        W87724  18.918   3.973   6.115
83764W        W87725  21.541   4.991   6.390
83765W        W87726  20.946   5.413   4.849
83766W        W87727  20.912   5.101   3.876
83767W        W87728  20.120   6.245   6.016
83768W        W87729  19.926   4.575   5.215
83769W        W87730  20.526   6.662   6.209
83770W        W87731  21.397   5.453   4.631
83771W        W87732  20.299   4.111   4.647
83772W        W87733  18.956   6.805   4.330
83773W        W87734  18.327   4.304   4.929
83774W        W87735  21.113   4.911   5.403
83775W        W87736  18.571   6.528   5.318
83776W        W87737  19.912   6.878   4.188
83777W        W87738  21.304   4.904   3.652
83778W        W87739  18.327   6.662   5.816
83779W        W87740  19.118   6.234   6.296
83780W        W87741  19.491   5.594   4.915
83781W        W87742  19.513   3.999   6.008
83782W        W87743  21.742   3.761   5.305
83783W        W87744  18.961   5.633   3.773
83784W        W87745  18.616   4.666   3.952
83785W        W87746  18.678   6.622   4.746
83786W        W87747  19.809   6.105   4.994
83787W        W87748  21.141   6.964   6.708
83788W        W87749  20.067   4.606   4.392
83789W        W87750  21.450   7.004   5.164
83790W        W87751  21.127   4.857   6.762
83791W        W87752  21.840   6.513   4.896
83792W        W87753  20.467   5.805   6.380
83793W        W87754  18.233   5.356   4.586
83794W        W87755  19.344   5.771   6.159
83795W        W87756  20.548   5.035   4.537
83796W        W87757  20.425   5.525   4.641
83797W        W87758  18.768   4.945   6.115
83798W        W87759  18.753   4.821   7.037
83799W        W87760  18.643   3.738   5.196
83800W        W87761  20.411   4.085   5.757
83801W        W87762  20.059   4.270   6.920
83802W        W87763  20.414   4.419   4.098
83803W        W87764  21.597   6.812   6.852
83804W        W87765  20.564   3.893   6.891
83805W        W87766  21.583   6.194   7.013
83806W        W87767  21.013   4.361   6.609
83807W        W87768  20.813   4.299   4.879
83808W        W87769  21.206   5.433   7.283
83809W        W87770  18.946   7.009   5.269
83810W        W87771  19.604   4.726   4.255
83811W        W87772  19.173   4.010   6.919
83812W        W87773  21.225   4.494   4.600
83813W        W87774  21.592   4.976   4.545
83814W        W87775  19.335   7.193   7.016
83815W        W87776  19.261   3.729   4.251
83816W        W87777  21.582   4.263   5.286
83817W        W87778  21.732   6.512   3.731
83818W        W87779  18.639   5.715   5.433
83819W        W87780  20.556   4.302   3.663
83820W        W87781  21.690   6.634   5.383
83821W        W87782  21.729   3.828   6.133
83822W        W87783  20.174   5.040   6.687
83823W        W87784  20.267   6.379   4.390
83824W        W87785  20.667   5.673   7.130
83825W        W87786  20.341   3.650   5.439
83826W        W87787  18.953   4.553   5.502
83827W        W87788  18.507   5.753   6.276
83828W        W87789  20.366   6.946   4.982
83829W        W87790  21.560   4.543   5.854
83830W        W87791  20.197   6.890   6.621
83831W        W87792  21.540   5.949   3.826
83832W        W87793  19.975   5.432   4.887
83833W        W87794  21.827   3.943   6.628
83834W        W87795  19.976   5.778   6.222
83835W        W87796  20.193   4.664   5.667
83836W        W87797  21.045   4.962   4.505
83837W        W87798  21.332   4.695   4.147
83838W        W87799  21.141   6.735   4.536
83839W        W87800  20.975   6.338   5.332
83840W        W87801  20.871   5.417   4.310
83841W        W87802  20.304   5.627   5.296
83842W        W87803  21.185   5.415   5.363
83843W        W87804  18.560   4.430   5.787
83844W        W87805  21.338   5.482   6.614
83845W        W87806  21.689   7.100   5.760
83846W        W87807  19.619   6.544   5.162
83847W        W87808  20.626   7.077   6.486
83848W        W87809  20.620   4.407   6.250
83849W        W87810  19.827   7.115   6.311
83850W        W87811  21.524   4.069   4.777
83851W        W87812  21.315   5.388   6.078
83852W        W87813  18.298   4.709   6.116
83853W        W87814  21.158   4.504   5.134
83854W        W87815  21.569   4.655   6.911
83855W        W87816  20.454   6.354   5.129
83856W        W87817  19.710   6.945   4.742
83857W        W87818  18.825   4.125   4.000
83858W        W87819  19.929   3.779   5.810
83859W        W87820  18.957   6.899   3.658
83860W        W87821  19.331   5.365   4.409
83861W        W87822  19.815   4.352   4.712
83862W        W87823  21.171   3.949   5.140
83863W        W87824  20.891   7.231   5.468
83864W        W87825  20.303   6.879   5.808
83865W        W87826  19.699   5.916   5.769
83866W        W87827  21.469   6.639   5.895
83867W        W87828  19.163   4.142   4.664
83868W        W87829  19.685   6.439   5.624
83869W        W87830  19.168   4.370   3.689
83870W        W87831  19.969   4.979   6.083
83871W        W87832  20.817   3.845   5.953
83872W        W87833  18.237   5.688   5.838
83873W        W87834  19.941   5.506   3.996
83874W        W87835  19.209   3.821   3.766
83875W        W87836  19.947   4.902   4.817
83876W        W87837  20.917   3.878   6.516
83877W        W87838  20.309   5.672   6.842
83878W        W87839  20.926   5.702   6.735
83879W        W87840  20.210   3.842   7.240
83880W        W87841  19.432   4.458   5.633
83881W        W87842  18.858   4.414   5.031
83882W        W87843  18.644   7.126   4.707
83883W        W87844  19.976   6.456   6.832
83884W        W87845  19.011   5.941   4.191
83885W        W87846  20.691   5.326   5.412
83886W        W87847  20.971   5.125   5.811
83887W        W87848  20.176   5.799   5.745
83888W        W87849  20.646   6.173   3.877
83889W        W87850  20.318   4.194   5.205
83890W        W87851  21.797   4.472   4.473
83891W        W87852  18.291   7.061   6.504
83892W        W87853  18.708   6.287   6.036
83893W        W87854  18.275   7.133   4.268
83894W        W87855  20.174   4.403   6.074
83895W        W87856  19.537   6.426   3.923
83896W        W87857  21.442   6.808   4.109
83897W        W87858  20.417   5.461   4.123
83898W        W87859  19.260   4.652   4.640
83899W        W87860  20.092   4.562   3.692
83900W        W87861  20.676   6.127   6.870
83901W        W87862  21.029   4.033   4.487
83902W        W87863  18.359   3.881   3.935
83903W        W87864  19.645   6.200   6.225
83904W        W87865  19.444   6.116   5.317
83905W        W87866  19.186   6.068   3.715
83906W        W87867  18.427   6.309   4.483
83907W        W87868  19.635   3.939   7.111
83908W        W87869  20.344   4.081   6.467
83909W        W87870  19.539   3.849   4.748
83910W        W87871  20.598   3.926   4.253
83911W        W87872  18.543   3.858   5.830
83912W        W87873  18.591   4.821   5.200
83913W        W87874  21.280   3.929   5.606
83914W        W87875  18.702   4.427   4.420
83915W        W87876  21.273   4.115   6.036
83916W        W87877  21.669   5.318   3.721
83917W        W87878  18.961   4.076   5.540
83918W        W87879  20.075   4.648   6.480
83919W        W87880  18.223   4.338   3.958
83920W        W87881  19.009   5.727   6.519
83921W        W87882  20.367   5.125   5.698
83922W        W87883  20.234   7.204   3.994
83923W        W87884  18.380   5.711   3.691
83924W        W87885  19.115   6.122   6.817
83925W        W87886  18.636   5.289   6.448
83926W        W87887  19.627   5.394   6.242
83927W        W87888  21.395   3.753   6.504
83928W        W87889  21.793   5.363   6.495
83929W        W87890  21.781   5.563   4.181
83930W        W87891  20.644   5.895   4.280
83931W        W87892  21.118   7.195   3.975
83932W        W87893  20.295   5.185   7.117
83933W        W87894  18.625   6.152   7.157
83934W        W87895  21.831   4.074   7.109
83935W        W87896  21.549   5.002   5.730
83936W        W87897  19.857   7.132   7.207
83937W        W87898  19.712   3.761   3.934
83938W        W87899  21.251   6.360   3.877
83939W        W87900  19.020   4.453   6.763
83940W        W87901  19.454   6.447   6.625
83941W        W87902  21.580   4.438   6.423
83942W        W87903  20.791   7.097   4.391
83943W        W87904  21.030   5.716   5.758
83944W        W87905  19.280   4.132   6.425
83945W        W87906  19.749   5.201   7.182
83946W        W87907  19.252   6.380   4.376
83947W        W87908  21.007   5.878   4.640
83948W        W87909  18.775   4.504   6.364
83949W        W87910  20.104   6.566   4.828
83950W        W87911  21.854   5.126   5.009
83951W        W87912  20.076   3.759   6.728
83952W        W87913  20.856   6.464   5.807
83953W        W87914  21.159   6.808   5.515
83954W        W87915  20.378   6.610   3.943
83955W        W87916  18.388   6.502   6.785
83956W        W87917  19.131   4.494   6.023
83957W        W87918  19.101   3.842   5.133
83958W        W87919  20.722   4.684   5.825
83959W        W87920  19.520   5.855   4.025
83960W        W87921  21.518   5.797   5.524
83961W        W87922  18.845   6.555   6.947
83962W        W87923  21.232   7.237   4.744
83963W        W87924  19.331   4.257   5.189
83964W        W87925  19.100   5.750   5.279
83965W        W87926  19.413   7.161   6.029
83966W        W87927  21.480   7.257   7.061
83967W        W87928  20.639   5.445   5.994
83968W        W87929  18.488   5.243   3.909
83969W        W87930  21.622   6.901   4.606
83970W        W87931  21.459   4.225   4.225
83971W        W87932  19.598   3.744   6.628
83972W        W87933  21.304   6.546   5.086
83973W        W87934  21.333   5.102   4.991
83974W        W87935  19.450   4.775   5.207
83975W        W87936  19.695   5.037   6.531
83976W        W87937  20.806   6.190   6.394
83977W        W87938  19.456   4.644   6.506
83978W        W87939  19.435   7.110   5.122
83979W        W87940  18.752   7.069   6.756
83980W        W87941  18.864   6.430   3.886
83981W        W87942  21.381   6.188   4.696
83982W        W87943  18.985   4.980   6.582
83983W        W87944  21.758   4.910   4.063
83984W        W87945  19.503   5.967   4.534
83985W        W87946  20.602   5.349   6.615
83986W        W87947  20.493   4.977   6.159
83987W        W87948  19.053   5.349   6.188
83988W        W87949  21.263   7.237   6.017
83989W        W87950  21.054   3.871   7.011
83990W        W87951  18.718   4.021   6.598
83991W        W87952  19.057   5.044   5.651
83992W        W87953  19.426   4.858   3.773
83993W        W87954  18.229   6.617   6.318
83994W        W87955  19.814   5.326   5.761
83995W        W87956  19.637   4.351   3.866
83996W        W87957  18.772   5.167   4.647
83997W        W87958  18.543   7.019   6.084
83998W        W87959  21.338   5.245   4.192
83999W        W87960  21.433   4.161   6.878
84000W        W87961  20.869   6.370   4.841
84001W        W87962  18.467   5.294   7.018
84002W        W87963  21.433   3.758   4.314
84003W        W87964  20.953   6.233   4.325
84004W        W87965  19.855   5.291   4.410
84005W        W87966  21.042   4.095   3.933
84006W        W87967  21.107   4.702   6.119
84007W        W87968  18.816   5.295   5.326
84008W        W87969  19.110   6.234   4.975
84009W        W87970  20.873   4.854   4.940
84010W        W87971  19.896   4.233   5.636
84011W        W87972  21.858   6.144   6.147
84012W        W87973  21.776   4.131   5.708
84013W        W87974  18.315   6.961   5.084
84014W        W87975  18.824   6.148   4.620
84015W        W87976  18.739   3.765   7.173
84016W        W87977  19.858   6.618   7.275
84017W        W87978  21.613   5.586   5.065
84018W        W87979  20.967   5.763   3.945
84019W        W87980  20.262   7.284   6.157
84020W        W87981  21.119   6.006   7.194
84021W        W87982  19.934   3.716   4.474
84022W        W87983  20.647   4.585   5.333
84023W        W87984  18.333   6.172   5.665
84024W        W87985  19.586   4.134   4.306
84025W        W87986  19.390   5.618   7.155
84026W        W87987  20.384   4.599   4.869
84027W        W87988  20.589   6.009   5.991
84028W        W87989  18.743   6.614   6.426
84029W        W87990  19.334   6.597   7.149
84030W        W87991  19.185   4.394   4.163
84031W        W87992  20.702   4.536   4.488
84032W        W87993  20.660   6.644   6.725
84033W        W87994  19.345   5.236   5.324
84034W        W87995  19.000   6.934   6.189
84035W        W87996  21.745   7.051   3.790
84036W        W87997  20.603   5.985   5.474
84037W        W87998  19.039   5.634   4.716
84038W        W87999  19.410   6.641   6.111
84039W        W88000  19.788   4.060   5.152
84040W        W88001  18.399   6.044   4.082
84041W        W88002  19.918   4.995   3.952
84042W        W88003  18.564   5.544   4.971
84043W        W88004  19.854   4.186   6.435
84044W        W88005  21.526   3.895   3.862
84045W        W88006  21.619   5.641   6.961
84046W        W88007  20.273   6.898   7.113
84047W        W88008  21.831   5.992   6.635
84048W        W88009  21.239   6.790   7.246
84049W        W88010  18.978   7.246   5.724
84050W        W88011  21.837   5.868   4.598
84051W        W88012  20.367   5.135   5.111
84052W        W88013  20.134   3.747   5.001
84053W        W88014  19.193   6.731   4.838
84054W        W88015  19.692   4.472   6.063
84055W        W88016  19.392   3.841   5.532
84056W        W88017  18.455   6.663   4.080
84057W        W88018  20.271   6.027   4.798
84058W        W88019  19.146   6.822   6.677
84059W        W88020  18.623   5.645   4.373
84060W        W88021  18.508   4.188   5.372
84061W        W88022  20.056   6.153   5.429
84062W        W88023  18.308   4.007   4.449
84063W        W88024  20.972   5.213   6.376
84064W        W88025  20.849   4.599   3.948
84065W        W88026  21.366   6.271   5.596
84066W        W88027  20.027   6.755   5.427
84067W        W88028  19.439   6.859   4.338
84068W        W88029  20.721   3.762   3.768
84069W        W88030  18.521   7.022   5.509
84070W        W88031  20.718   4.780   7.144
84071W        W88032  18.701   4.310   7.143
84072W        W88033  18.432   4.910   4.476
84073W        W88034  19.123   4.899   4.201
84074W        W88035  20.886   5.226   7.018
84075W        W88036  19.229   5.507   5.727
84076W        W88037  20.703   3.793   4.847
84077W        W88038  19.834   7.224   5.350
84078W        W88039  21.048   6.686   6.287
84079W        W88040  20.632   6.835   5.398
84080W        W88041  20.651   5.815   4.992
84081W        W88042  20.113   4.040   4.063
84082W        W88043  21.794   3.668   4.785
84083W        W88044  19.482   5.303   3.948
84084W        W88045  21.648   4.640   4.938
84085W        W88046  20.340   5.810   3.815
84086W        W88047  21.276   6.010   6.563
84087W        W88048  20.930   6.711   4.030
84088W        W88049  19.545   4.386   6.936
84089W        W88050  19.365   4.970   6.177
84090W        W88051  21.457   6.465   6.454
84091W        W88052  20.557   4.415   6.831
84092W        W88053  18.401   4.886   6.608
84093W        W88054  20.161   5.363   6.334
84094W        W88055  18.518   6.121   4.991
84095W        W88056  18.665   5.418   5.881
84096W        W88057  20.982   5.704   6.231
84097W        W88058  20.754   7.084   7.042
84098W        W88059  20.650   4.823   6.595
84099W        W88060  20.927   6.877   5.000
84100W        W88061  19.929   6.597   6.323
84101W        W88062  19.414   6.952   5.592
84102W        W88063  21.219   6.123   6.011
84103W        W88064  20.269   6.195   7.148
84104W        W88065  18.874   6.148   5.487
84105W        W88066  21.220   5.907   5.132
84106W        W88067  20.861   6.973   5.883
84107W        W88068  18.839   6.702   5.753
84108W        W88069  19.860   4.754   6.963
84109W        W88070  20.311   6.920   4.474
84110W        W88071  19.619   6.175   7.112
84111W        W88072  19.745   6.413   4.489
84112W        W88073  18.966   5.153   3.748
84113W        W88074  18.305   7.239  10.648
84114W        W88075  18.681   6.132  10.171
84115W        W88076  21.386   5.862   7.941
84116W        W88077  21.516   6.947   9.968
84117W        W88078  19.434   6.938   7.494
84118W        W88079  19.517   5.090   8.477
84119W        W88080  19.032   4.938   8.641
84120W        W88081  20.023   5.753   8.075
84121W        W88082  19.698   6.845  10.430
84122W        W88083  18.347   4.406  10.393
84123W        W88084  19.109   3.686  10.195
84124W        W88085  20.803   4.074   9.082
84125W        W88086  20.452   4.945   7.652
84126W        W88087  21.022   4.379  10.743
84127W        W88088  18.388   4.171   9.868
84128W        W88089  18.487   6.790  10.889
84129W        W88090  20.009   6.180   7.621
84130W        W88091  18.441   4.963   9.314
84131W        W88092  19.334   4.854  10.551
84132W        W88093  21.793   4.713   9.050
84133W        W88094  21.557   5.756   9.909
84134W        W88095  19.865   5.089   8.936
84135W        W88096  20.411   6.428   9.305
84136W        W88097  18.911   5.862   9.537
84137W        W88098  18.270   5.390   9.108
84138W        W88099  19.306   5.362  10.300
84139W        W88100  21.577   5.145  10.554
84140W        W88101  19.193   6.589   8.999
84141W        W88102  20.314   6.278  10.133
84142W        W88103  19.534   4.918   9.358
84143W        W88104  19.826   5.702   9.001
84144W        W88105  20.823   6.475  10.849
84145W        W88106  19.902   5.795  10.859
84146W        W88107  19.883   5.511  10.337
84147W        W88108  18.292   4.902  10.859
84148W        W88109  21.124   6.437  10.458
84149W        W88110  18.705   4.019   8.456
84150W        W88111  19.232   6.277   9.455
84151W        W88112  21.695   6.060   8.745
84152W        W88113  21.108   4.460   9.312
84153W        W88114  21.393   4.413   7.407
84154W        W88115  21.858   5.214   9.713
84155W        W88116  19.825   6.921   9.466
84156W        W88117  21.599   6.387   7.904
84157W        W88118  18.728   7.173   7.658
84158W        W88119  19.121   7.219   8.334
84159W        W88120  18.918   3.973   9.760
84160W        W88121  21.541   4.991  10.035
84161W        W88122  20.946   5.413   8.494
84162W        W88123  20.912   5.101   7.521
84163W        W88124  20.120   6.245   9.661
84164W        W88125  19.926   4.575   8.860
84165W        W88126  20.526   6.662   9.854
84166W        W88127  21.397   5.453   8.276
84167W        W88128  20.299   4.111   8.292
84168W        W88129  18.956   6.805   7.975
84169W        W88130  18.327   4.304   8.574
84170W        W88131  21.113   4.911   9.048
84171W        W88132  18.571   6.528   8.963
84172W        W88133  19.912   6.878   7.833
84173W        W88134  21.304   4.904   7.297
84174W        W88135  18.327   6.662   9.461
84175W        W88136  19.118   6.234   9.941
84176W        W88137  19.491   5.594   8.560
84177W        W88138  19.513   3.999   9.653
84178W        W88139  21.742   3.761   8.950
84179W        W88140  18.961   5.633   7.418
84180W        W88141  18.616   4.666   7.597
84181W        W88142  18.678   6.622   8.391
84182W        W88143  19.809   6.105   8.639
84183W        W88144  21.141   6.964  10.353
84184W        W88145  20.067   4.606   8.037
84185W        W88146  21.450   7.004   8.809
84186W        W88147  21.127   4.857  10.407
84187W        W88148  21.840   6.513   8.541
84188W        W88149  20.467   5.805  10.025
84189W        W88150  18.233   5.356   8.231
84190W        W88151  19.344   5.771   9.804
84191W        W88152  20.548   5.035   8.182
84192W        W88153  20.425   5.525   8.286
84193W        W88154  18.768   4.945   9.760
84194W        W88155  18.753   4.821  10.682
84195W        W88156  18.643   3.738   8.841
84196W        W88157  20.411   4.085   9.402
84197W        W88158  20.059   4.270  10.565
84198W        W88159  20.414   4.419   7.743
84199W        W88160  21.597   6.812  10.497
84200W        W88161  20.564   3.893  10.536
84201W        W88162  21.583   6.194  10.658
84202W        W88163  21.013   4.361  10.254
84203W        W88164  20.813   4.299   8.524
84204W        W88165  21.206   5.433  10.928
84205W        W88166  18.946   7.009   8.914
84206W        W88167  19.604   4.726   7.900
84207W        W88168  19.173   4.010  10.564
84208W        W88169  21.225   4.494   8.245
84209W        W88170  21.592   4.976   8.190
84210W        W88171  19.335   7.193  10.661
84211W        W88172  19.261   3.729   7.896
84212W        W88173  21.582   4.263   8.931
84213W        W88174  21.732   6.512   7.376
84214W        W88175  18.639   5.715   9.078
84215W        W88176  20.556   4.302   7.308
84216W        W88177  21.690   6.634   9.028
84217W        W88178  21.729   3.828   9.778
84218W        W88179  20.174   5.040  10.332
84219W        W88180  20.267   6.379   8.035
84220W        W88181  20.667   5.673  10.775
84221W        W88182  20.341   3.650   9.084
84222W        W88183  18.953   4.553   9.147
84223W        W88184  18.507   5.753   9.921
84224W        W88185  20.366   6.946   8.627
84225W        W88186  21.560   4.543   9.499
84226W        W88187  20.197   6.890  10.266
84227W        W88188  21.540   5.949   7.471
84228W        W88189  19.975   5.432   8.532
84229W        W88190  21.827   3.943  10.273
84230W        W88191  19.976   5.778   9.867
84231W        W88192  20.193   4.664   9.312
84232W        W88193  21.045   4.962   8.150
84233W        W88194  21.332   4.695   7.792
84234W        W88195  21.141   6.735   8.181
84235W        W88196  20.975   6.338   8.977
84236W        W88197  20.871   5.417   7.955
84237W        W88198  20.304   5.627   8.941
84238W        W88199  21.185   5.415   9.008
84239W        W88200  18.560   4.430   9.432
84240W        W88201  21.338   5.482  10.259
84241W        W88202  21.689   7.100   9.405
84242W        W88203  19.619   6.544   8.807
84243W        W88204  20.626   7.077  10.131
84244W        W88205  20.620   4.407   9.895
84245W        W88206  19.827   7.115   9.956
84246W        W88207  21.524   4.069   8.422
84247W        W88208  21.315   5.388   9.723
84248W        W88209  18.298   4.709   9.761
84249W        W88210  21.158   4.504   8.779
84250W        W88211  21.569   4.655  10.556
84251W        W88212  20.454   6.354   8.774
84252W        W88213  19.710   6.945   8.387
84253W        W88214  18.825   4.125   7.645
84254W        W88215  19.929   3.779   9.455
84255W        W88216  18.957   6.899   7.303
84256W        W88217  19.331   5.365   8.054
84257W        W88218  19.985   5.994  10.367
84258W        W88219  19.815   4.352   8.357
84259W        W88220  21.171   3.949   8.785
84260W        W88221  20.891   7.231   9.113
84261W        W88222  20.303   6.879   9.453
84262W        W88223  19.699   5.916   9.414
84263W        W88224  21.469   6.639   9.540
84264W        W88225  19.163   4.142   8.309
84265W        W88226  19.685   6.439   9.269
84266W        W88227  19.168   4.370   7.334
84267W        W88228  19.969   4.979   9.728
84268W        W88229  20.817   3.845   9.598
84269W        W88230  18.237   5.688   9.483
84270W        W88231  19.941   5.506   7.641
84271W        W88232  19.209   3.821   7.411
84272W        W88233  19.947   4.902   8.462
84273W        W88234  20.917   3.878  10.161
84274W        W88235  19.505   5.890  10.270
84275W        W88236  20.309   5.672  10.487
84276W        W88237  20.926   5.702  10.380
84277W        W88238  20.210   3.842  10.885
84278W        W88239  19.432   4.458   9.278
84279W        W88240  18.858   4.414   8.676
84280W        W88241  18.644   7.126   8.352
84281W        W88242  19.976   6.456  10.477
84282W        W88243  19.011   5.941   7.836
84283W        W88244  20.691   5.326   9.057
84284W        W88245  20.971   5.125   9.456
84285W        W88246  20.176   5.799   9.390
84286W        W88247  20.646   6.173   7.522
84287W        W88248  20.318   4.194   8.850
84288W        W88249  21.797   4.472   8.118
84289W        W88250  18.291   7.061  10.149
84290W        W88251  18.708   6.287   9.681
84291W        W88252  18.275   7.133   7.913
84292W        W88253  20.174   4.403   9.719
84293W        W88254  19.537   6.426   7.568
84294W        W88255  21.442   6.808   7.754
84295W        W88256  20.417   5.461   7.768
84296W        W88257  19.260   4.652   8.285
84297W        W88258  20.092   4.562   7.337
84298W        W88259  20.676   6.127  10.515
84299W        W88260  21.029   4.033   8.132
84300W        W88261  18.359   3.881   7.580
84301W        W88262  19.645   6.200   9.870
84302W        W88263  19.444   6.116   8.962
84303W        W88264  19.186   6.068   7.360
84304W        W88265  18.427   6.309   8.128
84305W        W88266  18.931   5.379  10.570
84306W        W88267  19.635   3.939  10.756
84307W        W88268  20.344   4.081  10.112
84308W        W88269  19.539   3.849   8.393
84309W        W88270  20.598   3.926   7.898
84310W        W88271  18.543   3.858   9.475
84311W        W88272  18.591   4.821   8.845
84312W        W88273  21.280   3.929   9.251
84313W        W88274  18.702   4.427   8.065
84314W        W88275  21.273   4.115   9.681
84315W        W88276  21.669   5.318   7.366
84316W        W88277  18.961   4.076   9.185
84317W        W88278  20.075   4.648  10.125
84318W        W88279  18.223   4.338   7.603
84319W        W88280  19.009   5.727  10.164
84320W        W88281  20.367   5.125   9.343
84321W        W88282  20.234   7.204   7.639
84322W        W88283  18.380   5.711   7.336
84323W        W88284  19.115   6.122  10.462
84324W        W88285  18.636   5.289  10.093
84325W        W88286  19.627   5.394   9.887
84326W        W88287  21.395   3.753  10.149
84327W        W88288  21.793   5.363  10.140
84328W        W88289  21.781   5.563   7.826
84329W        W88290  20.644   5.895   7.925
84330W        W88291  21.118   7.195   7.620
84331W        W88292  20.295   5.185  10.762
84332W        W88293  18.625   6.152  10.802
84333W        W88294  21.831   4.074  10.754
84334W        W88295  21.549   5.002   9.375
84335W        W88296  19.857   7.132  10.852
84336W        W88297  19.712   3.761   7.579
84337W        W88298  21.251   6.360   7.522
84338W        W88299  19.020   4.453  10.408
84339W        W88300  19.454   6.447  10.270
84340W        W88301  21.580   4.438  10.068
84341W        W88302  20.791   7.097   8.036
84342W        W88303  21.030   5.716   9.403
84343W        W88304  19.280   4.132  10.070
84344W        W88305  19.749   5.201  10.827
84345W        W88306  19.252   6.380   8.021
84346W        W88307  21.007   5.878   8.285
84347W        W88308  18.775   4.504  10.009
84348W        W88309  20.104   6.566   8.473
84349W        W88310  21.854   5.126   8.654
84350W        W88311  20.076   3.759  10.373
84351W        W88312  20.856   6.464   9.452
84352W        W88313  21.159   6.808   9.160
84353W        W88314  20.378   6.610   7.588
84354W        W88315  18.388   6.502  10.430
84355W        W88316  19.131   4.494   9.668
84356W        W88317  19.101   3.842   8.778
84357W        W88318  20.722   4.684   9.470
84358W        W88319  19.520   5.855   7.670
84359W        W88320  21.518   5.797   9.169
84360W        W88321  18.845   6.555  10.592
84361W        W88322  21.232   7.237   8.389
84362W        W88323  19.331   4.257   8.834
84363W        W88324  19.100   5.750   8.924
84364W        W88325  19.413   7.161   9.674
84365W        W88326  21.480   7.257  10.706
84366W        W88327  20.639   5.445   9.639
84367W        W88328  18.488   5.243   7.554
84368W        W88329  21.622   6.901   8.251
84369W        W88330  21.459   4.225   7.870
84370W        W88331  19.598   3.744  10.273
84371W        W88332  21.304   6.546   8.731
84372W        W88333  21.333   5.102   8.636
84373W        W88334  19.450   4.775   8.852
84374W        W88335  19.695   5.037  10.176
84375W        W88336  20.806   6.190  10.039
84376W        W88337  19.456   4.644  10.151
84377W        W88338  19.435   7.110   8.767
84378W        W88339  18.752   7.069  10.401
84379W        W88340  18.864   6.430   7.531
84380W        W88341  21.381   6.188   8.341
84381W        W88342  18.985   4.980  10.227
84382W        W88343  21.758   4.910   7.708
84383W        W88344  19.503   5.967   8.179
84384W        W88345  20.602   5.349  10.260
84385W        W88346  20.493   4.977   9.804
84386W        W88347  19.053   5.349   9.833
84387W        W88348  21.263   7.237   9.662
84388W        W88349  21.054   3.871  10.656
84389W        W88350  18.718   4.021  10.243
84390W        W88351  19.057   5.044   9.296
84391W        W88352  19.426   4.858   7.418
84392W        W88353  18.229   6.617   9.963
84393W        W88354  19.814   5.326   9.406
84394W        W88355  19.637   4.351   7.511
84395W        W88356  18.772   5.167   8.292
84396W        W88357  18.543   7.019   9.729
84397W        W88358  21.338   5.245   7.837
84398W        W88359  21.433   4.161  10.523
84399W        W88360  20.869   6.370   8.486
84400W        W88361  18.467   5.294  10.663
84401W        W88362  21.433   3.758   7.959
84402W        W88363  20.953   6.233   7.970
84403W        W88364  19.855   5.291   8.055
84404W        W88365  21.042   4.095   7.578
84405W        W88366  21.107   4.702   9.764
84406W        W88367  18.816   5.295   8.971
84407W        W88368  19.110   6.234   8.620
84408W        W88369  20.873   4.854   8.585
84409W        W88370  19.896   4.233   9.281
84410W        W88371  21.858   6.144   9.792
84411W        W88372  21.776   4.131   9.353
84412W        W88373  18.315   6.961   8.729
84413W        W88374  18.824   6.148   8.265
84414W        W88375  18.739   3.765  10.818
84415W        W88376  19.858   6.618  10.920
84416W        W88377  21.613   5.586   8.710
84417W        W88378  20.967   5.763   7.590
84418W        W88379  20.262   7.284   9.802
84419W        W88380  21.119   6.006  10.839
84420W        W88381  19.934   3.716   8.119
84421W        W88382  20.647   4.585   8.978
84422W        W88383  18.333   6.172   9.310
84423W        W88384  19.586   4.134   7.951
84424W        W88385  19.390   5.618  10.800
84425W        W88386  20.384   4.599   8.514
84426W        W88387  20.589   6.009   9.636
84427W        W88388  18.743   6.614  10.071
84428W        W88389  19.334   6.597  10.794
84429W        W88390  19.185   4.394   7.808
84430W        W88391  20.702   4.536   8.133
84431W        W88392  20.660   6.644  10.370
84432W        W88393  19.345   5.236   8.969
84433W        W88394  19.000   6.934   9.834
84434W        W88395  21.745   7.051   7.435
84435W        W88396  18.608   5.723  10.431
84436W        W88397  20.603   5.985   9.119
84437W        W88398  19.039   5.634   8.361
84438W        W88399  19.410   6.641   9.756
84439W        W88400  19.788   4.060   8.797
84440W        W88401  18.399   6.044   7.727
84441W        W88402  19.918   4.995   7.597
84442W        W88403  18.564   5.544   8.616
84443W        W88404  19.854   4.186  10.080
84444W        W88405  21.526   3.895   7.507
84445W        W88406  21.619   5.641  10.606
84446W        W88407  20.273   6.898  10.758
84447W        W88408  21.831   5.992  10.280
84448W        W88409  21.239   6.790  10.891
84449W        W88410  18.978   7.246   9.369
84450W        W88411  21.837   5.868   8.243
84451W        W88412  20.367   5.135   8.756
84452W        W88413  20.134   3.747   8.646
84453W        W88414  19.193   6.731   8.483
84454W        W88415  19.692   4.472   9.708
84455W        W88416  19.392   3.841   9.177
84456W        W88417  18.455   6.663   7.725
84457W        W88418  20.271   6.027   8.443
84458W        W88419  19.146   6.822  10.322
84459W        W88420  18.623   5.645   8.018
84460W        W88421  18.508   4.188   9.017
84461W        W88422  20.056   6.153   9.074
84462W        W88423  18.308   4.007   8.094
84463W        W88424  20.972   5.213  10.021
84464W        W88425  20.849   4.599   7.593
84465W        W88426  21.366   6.271   9.241
84466W        W88427  20.027   6.755   9.072
84467W        W88428  19.439   6.859   7.983
84468W        W88429  20.721   3.762   7.413
84469W        W88430  18.521   7.022   9.154
84470W        W88431  20.718   4.780  10.789
84471W        W88432  18.701   4.310  10.788
84472W        W88433  18.432   4.910   8.121
84473W        W88434  19.123   4.899   7.846
84474W        W88435  20.886   5.226  10.663
84475W        W88436  19.229   5.507   9.372
84476W        W88437  20.703   3.793   8.492
84477W        W88438  19.834   7.224   8.995
84478W        W88439  21.048   6.686   9.932
84479W        W88440  20.632   6.835   9.043
84480W        W88441  20.651   5.815   8.637
84481W        W88442  20.113   4.040   7.708
84482W        W88443  21.794   3.668   8.430
84483W        W88444  19.482   5.303   7.593
84484W        W88445  21.648   4.640   8.583
84485W        W88446  20.340   5.810   7.460
84486W        W88447  21.276   6.010  10.208
84487W        W88448  20.930   6.711   7.675
84488W        W88449  19.545   4.386  10.581
84489W        W88450  19.365   4.970   9.822
84490W        W88451  21.457   6.465  10.099
84491W        W88452  20.557   4.415  10.476
84492W        W88453  18.401   4.886  10.253
84493W        W88454  20.161   5.363   9.979
84494W        W88455  18.518   6.121   8.636
84495W        W88456  18.665   5.418   9.526
84496W        W88457  20.982   5.704   9.876
84497W        W88458  20.754   7.084  10.687
84498W        W88459  20.650   4.823  10.240
84499W        W88460  20.927   6.877   8.645
84500W        W88461  19.929   6.597   9.968
84501W        W88462  19.414   6.952   9.237
84502W        W88463  21.219   6.123   9.656
84503W        W88464  20.269   6.195  10.793
84504W        W88465  18.874   6.148   9.132
84505W        W88466  21.220   5.907   8.777
84506W        W88467  20.861   6.973   9.528
84507W        W88468  18.839   6.702   9.398
84508W        W88469  19.860   4.754  10.608
84509W        W88470  20.311   6.920   8.119
84510W        W88471  19.619   6.175  10.757
84511W        W88472  19.745   6.413   8.134
84512W        W88473  18.966   5.153   7.393
84513W        W88474  18.305   7.239  14.292
84514W        W88475  18.681   6.132  13.815
84515W        W88476  21.386   5.862  11.585
84516W        W88477  21.516   6.947  13.612
84517W        W88478  19.434   6.938  11.138
84518W        W88479  19.517   5.090  12.121
84519W        W88480  19.032   4.938  12.285
84520W        W88481  20.023   5.753  11.719
84521W        W88482  19.698   6.845  14.074
84522W        W88483  18.347   4.406  14.037
84523W        W88484  19.109   3.686  13.839
84524W        W88485  20.803   4.074  12.726
84525W        W88486  20.452   4.945  11.296
84526W        W88487  21.022   4.379  14.387
84527W        W88488  18.388   4.171  13.512
84528W        W88489  18.487   6.790  14.533
84529W        W88490  20.009   6.180  11.265
84530W        W88491  18.441   4.963  12.958
84531W        W88492  19.334   4.854  14.195
84532W        W88493  21.793   4.713  12.694
84533W        W88494  21.557   5.756  13.553
84534W        W88495  19.865   5.089  12.580
84535W        W88496  20.411   6.428  12.949
84536W        W88497  18.911   5.862  13.181
84537W        W88498  18.270   5.390  12.752
84538W        W88499  19.306   5.362  13.944
84539W        W88500  21.577   5.145  14.198
84540W        W88501  19.193   6.589  12.643
84541W        W88502  20.314   6.278  13.777
84542W        W88503  19.534   4.918  13.002
84543W        W88504  19.826   5.702  12.645
84544W        W88505  20.823   6.475  14.493
84545W        W88506  19.902   5.795  14.503
84546W        W88507  19.883   5.511  13.981
84547W        W88508  18.292   4.902  14.503
84548W        W88509  21.124   6.437  14.102
84549W        W88510  18.705   4.019  12.100
84550W        W88511  19.232   6.277  13.099
84551W        W88512  21.695   6.060  12.389
84552W        W88513  21.108   4.460  12.956
84553W        W88514  21.393   4.413  11.051
84554W        W88515  21.858   5.214  13.357
84555W        W88516  19.825   6.921  13.110
84556W        W88517  21.599   6.387  11.548
84557W        W88518  18.728   7.173  11.302
84558W        W88519  19.121   7.219  11.978
84559W        W88520  18.918   3.973  13.404
84560W        W88521  21.541   4.991  13.679
84561W        W88522  20.946   5.413  12.138
84562W        W88523  20.912   5.101  11.165
84563W        W88524  20.120   6.245  13.305
84564W        W88525  19.926   4.575  12.504
84565W        W88526  20.526   6.662  13.498
84566W        W88527  21.397   5.453  11.920
84567W        W88528  20.299   4.111  11.936
84568W        W88529  18.956   6.805  11.619
84569W        W88530  18.327   4.304  12.218
84570W        W88531  21.113   4.911  12.692
84571W        W88532  18.571   6.528  12.607
84572W        W88533  19.912   6.878  11.477
84573W        W88534  21.304   4.904  10.941
84574W        W88535  18.327   6.662  13.105
84575W        W88536  19.118   6.234  13.585
84576W        W88537  19.491   5.594  12.204
84577W        W88538  19.513   3.999  13.297
84578W        W88539  21.742   3.761  12.594
84579W        W88540  18.961   5.633  11.062
84580W        W88541  18.616   4.666  11.241
84581W        W88542  18.678   6.622  12.035
84582W        W88543  19.809   6.105  12.283
84583W        W88544  21.141   6.964  13.997
84584W        W88545  21.450   7.004  12.453
84585W        W88546  21.127   4.857  14.051
84586W        W88547  21.840   6.513  12.185
84587W        W88548  20.467   5.805  13.669
84588W        W88549  18.233   5.356  11.875
84589W        W88550  19.344   5.771  13.448
84590W        W88551  20.548   5.035  11.826
84591W        W88552  20.425   5.525  11.930
84592W        W88553  18.768   4.945  13.404
84593W        W88554  18.753   4.821  14.326
84594W        W88555  18.643   3.738  12.485
84595W        W88556  20.411   4.085  13.046
84596W        W88557  20.059   4.270  14.209
84597W        W88558  20.414   4.419  11.387
84598W        W88559  21.597   6.812  14.141
84599W        W88560  20.564   3.893  14.180
84600W        W88561  21.583   6.194  14.302
84601W        W88562  21.013   4.361  13.898
84602W        W88563  20.813   4.299  12.168
84603W        W88564  21.206   5.433  14.572
84604W        W88565  18.946   7.009  12.558
84605W        W88566  19.173   4.010  14.208
84606W        W88567  21.225   4.494  11.889
84607W        W88568  21.592   4.976  11.834
84608W        W88569  19.335   7.193  14.305
84609W        W88570  19.261   3.729  11.540
84610W        W88571  21.582   4.263  12.575
84611W        W88572  21.732   6.512  11.020
84612W        W88573  18.639   5.715  12.722
84613W        W88574  20.556   4.302  10.952
84614W        W88575  21.690   6.634  12.672
84615W        W88576  21.729   3.828  13.422
84616W        W88577  20.174   5.040  13.976
84617W        W88578  20.267   6.379  11.679
84618W        W88579  20.667   5.673  14.419
84619W        W88580  20.341   3.650  12.728
84620W        W88581  18.953   4.553  12.791
84621W        W88582  18.507   5.753  13.565
84622W        W88583  20.366   6.946  12.271
84623W        W88584  21.560   4.543  13.143
84624W        W88585  20.197   6.890  13.910
84625W        W88586  21.540   5.949  11.115
84626W        W88587  19.975   5.432  12.176
84627W        W88588  21.827   3.943  13.917
84628W        W88589  19.976   5.778  13.511
84629W        W88590  20.193   4.664  12.956
84630W        W88591  21.045   4.962  11.794
84631W        W88592  21.332   4.695  11.436
84632W        W88593  21.141   6.735  11.825
84633W        W88594  20.975   6.338  12.621
84634W        W88595  20.871   5.417  11.599
84635W        W88596  20.304   5.627  12.585
84636W        W88597  21.185   5.415  12.652
84637W        W88598  18.560   4.430  13.076
84638W        W88599  21.338   5.482  13.903
84639W        W88600  21.689   7.100  13.049
84640W        W88601  19.619   6.544  12.451
84641W        W88602  20.626   7.077  13.775
84642W        W88603  20.620   4.407  13.539
84643W        W88604  19.827   7.115  13.600
84644W        W88605  21.524   4.069  12.066
84645W        W88606  21.315   5.388  13.367
84646W        W88607  18.298   4.709  13.405
84647W        W88608  21.158   4.504  12.423
84648W        W88609  21.569   4.655  14.200
84649W        W88610  20.454   6.354  12.418
84650W        W88611  19.710   6.945  12.031
84651W        W88612  18.825   4.125  11.289
84652W        W88613  19.929   3.779  13.099
84653W        W88614  18.957   6.899  10.947
84654W        W88615  19.331   5.365  11.698
84655W        W88616  19.985   5.994  14.011
84656W        W88617  19.815   4.352  12.001
84657W        W88618  21.171   3.949  12.429
84658W        W88619  20.891   7.231  12.757
84659W        W88620  20.303   6.879  13.097
84660W        W88621  19.699   5.916  13.058
84661W        W88622  21.469   6.639  13.184
84662W        W88623  19.163   4.142  11.953
84663W        W88624  19.685   6.439  12.913
84664W        W88625  19.168   4.370  10.978
84665W        W88626  19.969   4.979  13.372
84666W        W88627  20.817   3.845  13.242
84667W        W88628  18.237   5.688  13.127
84668W        W88629  19.941   5.506  11.285
84669W        W88630  19.209   3.821  11.055
84670W        W88631  19.947   4.902  12.106
84671W        W88632  20.917   3.878  13.805
84672W        W88633  19.505   5.890  13.914
84673W        W88634  20.309   5.672  14.131
84674W        W88635  20.926   5.702  14.024
84675W        W88636  20.210   3.842  14.529
84676W        W88637  19.432   4.458  12.922
84677W        W88638  18.858   4.414  12.320
84678W        W88639  18.644   7.126  11.996
84679W        W88640  19.976   6.456  14.121
84680W        W88641  19.011   5.941  11.480
84681W        W88642  20.691   5.326  12.701
84682W        W88643  20.971   5.125  13.100
84683W        W88644  20.176   5.799  13.034
84684W        W88645  20.646   6.173  11.166
84685W        W88646  20.318   4.194  12.494
84686W        W88647  21.797   4.472  11.762
84687W        W88648  18.291   7.061  13.793
84688W        W88649  18.708   6.287  13.325
84689W        W88650  18.275   7.133  11.557
84690W        W88651  20.174   4.403  13.363
84691W        W88652  19.537   6.426  11.212
84692W        W88653  21.442   6.808  11.398
84693W        W88654  20.417   5.461  11.412
84694W        W88655  19.260   4.652  11.929
84695W        W88656  20.092   4.562  10.981
84696W        W88657  20.676   6.127  14.159
84697W        W88658  21.029   4.033  11.776
84698W        W88659  18.359   3.881  11.224
84699W        W88660  19.645   6.200  13.514
84700W        W88661  19.444   6.116  12.606
84701W        W88662  19.186   6.068  11.004
84702W        W88663  18.427   6.309  11.772
84703W        W88664  18.931   5.379  14.214
84704W        W88665  19.635   3.939  14.400
84705W        W88666  20.344   4.081  13.756
84706W        W88667  19.539   3.849  12.037
84707W        W88668  20.598   3.926  11.542
84708W        W88669  18.543   3.858  13.119
84709W        W88670  18.591   4.821  12.489
84710W        W88671  21.280   3.929  12.895
84711W        W88672  18.702   4.427  11.709
84712W        W88673  21.273   4.115  13.325
84713W        W88674  21.669   5.318  11.010
84714W        W88675  18.961   4.076  12.829
84715W        W88676  20.075   4.648  13.769
84716W        W88677  18.223   4.338  11.247
84717W        W88678  19.009   5.727  13.808
84718W        W88679  20.367   5.125  12.987
84719W        W88680  20.234   7.204  11.283
84720W        W88681  18.380   5.711  10.980
84721W        W88682  19.115   6.122  14.106
84722W        W88683  18.636   5.289  13.737
84723W        W88684  19.627   5.394  13.531
84724W        W88685  21.395   3.753  13.793
84725W        W88686  21.793   5.363  13.784
84726W        W88687  21.781   5.563  11.470
84727W        W88688  20.644   5.895  11.569
84728W        W88689  21.118   7.195  11.264
84729W        W88690  20.295   5.185  14.406
84730W        W88691  18.625   6.152  14.446
84731W        W88692  21.831   4.074  14.398
84732W        W88693  21.549   5.002  13.019
84733W        W88694  19.857   7.132  14.496
84734W        W88695  19.712   3.761  11.223
84735W        W88696  21.251   6.360  11.166
84736W        W88697  19.020   4.453  14.052
84737W        W88698  19.454   6.447  13.914
84738W        W88699  21.580   4.438  13.712
84739W        W88700  20.791   7.097  11.680
84740W        W88701  21.030   5.716  13.047
84741W        W88702  19.280   4.132  13.714
84742W        W88703  19.749   5.201  14.471
84743W        W88704  19.252   6.380  11.665
84744W        W88705  21.007   5.878  11.929
84745W        W88706  18.775   4.504  13.653
84746W        W88707  20.104   6.566  12.117
84747W        W88708  21.854   5.126  12.298
84748W        W88709  20.076   3.759  14.017
84749W        W88710  20.856   6.464  13.096
84750W        W88711  21.159   6.808  12.804
84751W        W88712  20.378   6.610  11.232
84752W        W88713  18.388   6.502  14.074
84753W        W88714  19.131   4.494  13.312
84754W        W88715  19.101   3.842  12.422
84755W        W88716  20.722   4.684  13.114
84756W        W88717  19.520   5.855  11.314
84757W        W88718  21.518   5.797  12.813
84758W        W88719  18.845   6.555  14.236
84759W        W88720  21.232   7.237  12.033
84760W        W88721  19.331   4.257  12.478
84761W        W88722  19.100   5.750  12.568
84762W        W88723  19.413   7.161  13.318
84763W        W88724  21.480   7.257  14.350
84764W        W88725  20.639   5.445  13.283
84765W        W88726  18.488   5.243  11.198
84766W        W88727  21.622   6.901  11.895
84767W        W88728  21.459   4.225  11.514
84768W        W88729  19.598   3.744  13.917
84769W        W88730  21.304   6.546  12.375
84770W        W88731  21.333   5.102  12.280
84771W        W88732  19.450   4.775  12.496
84772W        W88733  19.695   5.037  13.820
84773W        W88734  20.806   6.190  13.683
84774W        W88735  19.456   4.644  13.795
84775W        W88736  19.435   7.110  12.411
84776W        W88737  18.752   7.069  14.045
84777W        W88738  18.864   6.430  11.175
84778W        W88739  21.381   6.188  11.985
84779W        W88740  18.985   4.980  13.871
84780W        W88741  21.758   4.910  11.352
84781W        W88742  19.503   5.967  11.823
84782W        W88743  20.602   5.349  13.904
84783W        W88744  20.493   4.977  13.448
84784W        W88745  19.053   5.349  13.477
84785W        W88746  21.263   7.237  13.306
84786W        W88747  21.054   3.871  14.300
84787W        W88748  18.718   4.021  13.887
84788W        W88749  19.057   5.044  12.940
84789W        W88750  18.229   6.617  13.607
84790W        W88751  19.814   5.326  13.050
84791W        W88752  18.772   5.167  11.936
84792W        W88753  18.543   7.019  13.373
84793W        W88754  21.338   5.245  11.481
84794W        W88755  21.433   4.161  14.167
84795W        W88756  20.869   6.370  12.130
84796W        W88757  18.467   5.294  14.307
84797W        W88758  21.433   3.758  11.603
84798W        W88759  20.953   6.233  11.614
84799W        W88760  19.855   5.291  11.699
84800W        W88761  21.042   4.095  11.222
84801W        W88762  21.107   4.702  13.408
84802W        W88763  18.816   5.295  12.615
84803W        W88764  19.110   6.234  12.264
84804W        W88765  20.873   4.854  12.229
84805W        W88766  19.896   4.233  12.925
84806W        W88767  21.858   6.144  13.436
84807W        W88768  21.776   4.131  12.997
84808W        W88769  18.315   6.961  12.373
84809W        W88770  18.824   6.148  11.909
84810W        W88771  18.739   3.765  14.462
84811W        W88772  19.858   6.618  14.564
84812W        W88773  21.613   5.586  12.354
84813W        W88774  20.967   5.763  11.234
84814W        W88775  20.262   7.284  13.446
84815W        W88776  21.119   6.006  14.483
84816W        W88777  19.934   3.716  11.763
84817W        W88778  20.647   4.585  12.622
84818W        W88779  18.333   6.172  12.954
84819W        W88780  19.586   4.134  11.595
84820W        W88781  19.390   5.618  14.444
84821W        W88782  20.384   4.599  12.158
84822W        W88783  20.589   6.009  13.280
84823W        W88784  18.743   6.614  13.715
84824W        W88785  19.334   6.597  14.438
84825W        W88786  19.185   4.394  11.452
84826W        W88787  20.702   4.536  11.777
84827W        W88788  20.660   6.644  14.014
84828W        W88789  19.345   5.236  12.613
84829W        W88790  19.000   6.934  13.478
84830W        W88791  21.745   7.051  11.079
84831W        W88792  18.608   5.723  14.075
84832W        W88793  20.603   5.985  12.763
84833W        W88794  19.039   5.634  12.005
84834W        W88795  19.410   6.641  13.400
84835W        W88796  19.788   4.060  12.441
84836W        W88797  18.399   6.044  11.371
84837W        W88798  18.564   5.544  12.260
84838W        W88799  19.854   4.186  13.724
84839W        W88800  21.526   3.895  11.151
84840W        W88801  21.619   5.641  14.250
84841W        W88802  20.273   6.898  14.402
84842W        W88803  21.831   5.992  13.924
84843W        W88804  21.239   6.790  14.535
84844W        W88805  18.978   7.246  13.013
84845W        W88806  21.837   5.868  11.887
84846W        W88807  20.367   5.135  12.400
84847W        W88808  20.134   3.747  12.290
84848W        W88809  19.193   6.731  12.127
84849W        W88810  19.692   4.472  13.352
84850W        W88811  19.392   3.841  12.821
84851W        W88812  18.455   6.663  11.369
84852W        W88813  20.271   6.027  12.087
84853W        W88814  19.146   6.822  13.966
84854W        W88815  18.623   5.645  11.662
84855W        W88816  18.508   4.188  12.661
84856W        W88817  20.056   6.153  12.718
84857W        W88818  18.308   4.007  11.738
84858W        W88819  20.972   5.213  13.665
84859W        W88820  20.849   4.599  11.237
84860W        W88821  21.366   6.271  12.885
84861W        W88822  20.027   6.755  12.716
84862W        W88823  19.439   6.859  11.627
84863W        W88824  20.721   3.762  11.057
84864W        W88825  18.521   7.022  12.798
84865W        W88826  20.718   4.780  14.433
84866W        W88827  18.701   4.310  14.432
84867W        W88828  18.432   4.910  11.765
84868W        W88829  19.123   4.899  11.490
84869W        W88830  20.886   5.226  14.307
84870W        W88831  19.229   5.507  13.016
84871W        W88832  20.703   3.793  12.136
84872W        W88833  19.834   7.224  12.639
84873W        W88834  21.048   6.686  13.576
84874W        W88835  20.632   6.835  12.687
84875W        W88836  20.651   5.815  12.281
84876W        W88837  20.113   4.040  11.352
84877W        W88838  21.794   3.668  12.074
84878W        W88839  19.482   5.303  11.237
84879W        W88840  21.648   4.640  12.227
84880W        W88841  20.340   5.810  11.104
84881W        W88842  21.276   6.010  13.852
84882W        W88843  20.930   6.711  11.319
84883W        W88844  19.545   4.386  14.225
84884W        W88845  19.365   4.970  13.466
84885W        W88846  21.457   6.465  13.743
84886W        W88847  20.557   4.415  14.120
84887W        W88848  18.401   4.886  13.897
84888W        W88849  20.161   5.363  13.623
84889W        W88850  18.518   6.121  12.280
84890W        W88851  18.665   5.418  13.170
84891W        W88852  20.982   5.704  13.520
84892W        W88853  20.754   7.084  14.331
84893W        W88854  20.650   4.823  13.884
84894W        W88855  20.927   6.877  12.289
84895W        W88856  19.929   6.597  13.612
84896W        W88857  19.414   6.952  12.881
84897W        W88858  21.219   6.123  13.300
84898W        W88859  20.269   6.195  14.437
84899W        W88860  18.874   6.148  12.776
84900W        W88861  21.220   5.907  12.421
84901W        W88862  20.861   6.973  13.172
84902W        W88863  18.839   6.702  13.042
84903W        W88864  19.860   4.754  14.252
84904W        W88865  20.311   6.920  11.763
84905W        W88866  19.619   6.175  14.401
84906W        W88867  19.745   6.413  11.778
84907W        W88868  18.966   5.153  11.037
84908W        W88869  18.305   7.239  17.936
84909W        W88870  18.681   6.132  17.459
84910W        W88871  21.386   5.862  15.229
84911W        W88872  21.516   6.947  17.256
84912W        W88873  19.434   6.938  14.782
84913W        W88874  19.517   5.090  15.765
84914W        W88875  19.032   4.938  15.929
84915W        W88876  20.023   5.753  15.363
84916W        W88877  19.698   6.845  17.718
84917W        W88878  18.347   4.406  17.681
84918W        W88879  19.109   3.686  17.483
84919W        W88880  20.803   4.074  16.370
84920W        W88881  20.452   4.945  14.940
84921W        W88882  21.022   4.379  18.031
84922W        W88883  18.388   4.171  17.156
84923W        W88884  18.487   6.790  18.177
84924W        W88885  20.009   6.180  14.909
84925W        W88886  18.441   4.963  16.602
84926W        W88887  19.334   4.854  17.839
84927W        W88888  21.793   4.713  16.338
84928W        W88889  21.557   5.756  17.197
84929W        W88890  19.865   5.089  16.224
84930W        W88891  20.411   6.428  16.593
84931W        W88892  18.911   5.862  16.825
84932W        W88893  18.270   5.390  16.396
84933W        W88894  19.306   5.362  17.588
84934W        W88895  21.577   5.145  17.842
84935W        W88896  19.193   6.589  16.287
84936W        W88897  20.314   6.278  17.421
84937W        W88898  19.534   4.918  16.646
84938W        W88899  19.826   5.702  16.289
84939W        W88900  20.823   6.475  18.137
84940W        W88901  19.902   5.795  18.147
84941W        W88902  19.883   5.511  17.625
84942W        W88903  18.292   4.902  18.147
84943W        W88904  21.124   6.437  17.746
84944W        W88905  18.705   4.019  15.744
84945W        W88906  19.232   6.277  16.743
84946W        W88907  21.695   6.060  16.033
84947W        W88908  21.108   4.460  16.600
84948W        W88909  21.393   4.413  14.695
84949W        W88910  21.858   5.214  17.001
84950W        W88911  19.825   6.921  16.754
84951W        W88912  21.599   6.387  15.192
84952W        W88913  18.728   7.173  14.946
84953W        W88914  19.121   7.219  15.622
84954W        W88915  18.918   3.973  17.048
84955W        W88916  21.541   4.991  17.323
84956W        W88917  20.946   5.413  15.782
84957W        W88918  20.912   5.101  14.809
84958W        W88919  20.120   6.245  16.949
84959W        W88920  19.926   4.575  16.148
84960W        W88921  20.526   6.662  17.142
84961W        W88922  21.397   5.453  15.564
84962W        W88923  20.299   4.111  15.580
84963W        W88924  18.956   6.805  15.263
84964W        W88925  18.327   4.304  15.862
84965W        W88926  21.113   4.911  16.336
84966W        W88927  18.571   6.528  16.251
84967W        W88928  19.912   6.878  15.121
84968W        W88929  21.304   4.904  14.585
84969W        W88930  18.327   6.662  16.749
84970W        W88931  19.118   6.234  17.229
84971W        W88932  19.491   5.594  15.848
84972W        W88933  19.513   3.999  16.941
84973W        W88934  21.742   3.761  16.238
84974W        W88935  18.961   5.633  14.706
84975W        W88936  18.616   4.666  14.885
84976W        W88937  18.678   6.622  15.679
84977W        W88938  19.809   6.105  15.927
84978W        W88939  21.141   6.964  17.641
84979W        W88940  20.067   4.606  15.325
84980W        W88941  21.450   7.004  16.097
84981W        W88942  21.127   4.857  17.695
84982W        W88943  21.840   6.513  15.829
84983W        W88944  20.467   5.805  17.313
84984W        W88945  18.233   5.356  15.519
84985W        W88946  19.344   5.771  17.092
84986W        W88947  20.548   5.035  15.470
84987W        W88948  20.425   5.525  15.574
84988W        W88949  18.768   4.945  17.048
84989W        W88950  18.753   4.821  17.970
84990W        W88951  18.643   3.738  16.129
84991W        W88952  20.411   4.085  16.690
84992W        W88953  20.059   4.270  17.853
84993W        W88954  20.414   4.419  15.031
84994W        W88955  21.597   6.812  17.785
84995W        W88956  20.564   3.893  17.824
84996W        W88957  21.583   6.194  17.946
84997W        W88958  21.013   4.361  17.542
84998W        W88959  20.813   4.299  15.812
84999W        W88960  21.206   5.433  18.216
85000W        W88961  18.946   7.009  16.202
85001W        W88962  19.604   4.726  15.188
85002W        W88963  19.173   4.010  17.852
85003W        W88964  21.225   4.494  15.533
85004W        W88965  21.592   4.976  15.478
85005W        W88966  19.335   7.193  17.949
85006W        W88967  19.261   3.729  15.184
85007W        W88968  21.582   4.263  16.219
85008W        W88969  21.732   6.512  14.664
85009W        W88970  18.639   5.715  16.366
85010W        W88971  20.556   4.302  14.596
85011W        W88972  21.690   6.634  16.316
85012W        W88973  21.729   3.828  17.066
85013W        W88974  20.174   5.040  17.620
85014W        W88975  20.267   6.379  15.323
85015W        W88976  20.667   5.673  18.063
85016W        W88977  20.341   3.650  16.372
85017W        W88978  18.953   4.553  16.435
85018W        W88979  18.507   5.753  17.209
85019W        W88980  20.366   6.946  15.915
85020W        W88981  21.560   4.543  16.787
85021W        W88982  20.197   6.890  17.554
85022W        W88983  21.540   5.949  14.759
85023W        W88984  19.975   5.432  15.820
85024W        W88985  21.827   3.943  17.561
85025W        W88986  19.976   5.778  17.155
85026W        W88987  20.193   4.664  16.600
85027W        W88988  21.045   4.962  15.438
85028W        W88989  21.332   4.695  15.080
85029W        W88990  21.141   6.735  15.469
85030W        W88991  20.975   6.338  16.265
85031W        W88992  20.871   5.417  15.243
85032W        W88993  20.304   5.627  16.229
85033W        W88994  21.185   5.415  16.296
85034W        W88995  18.560   4.430  16.720
85035W        W88996  21.338   5.482  17.547
85036W        W88997  21.689   7.100  16.693
85037W        W88998  19.619   6.544  16.095
85038W        W88999  20.626   7.077  17.419
85039W        W89000  20.620   4.407  17.183
85040W        W89001  19.827   7.115  17.244
85041W        W89002  21.524   4.069  15.710
85042W        W89003  21.315   5.388  17.011
85043W        W89004  18.298   4.709  17.049
85044W        W89005  21.158   4.504  16.067
85045W        W89006  21.569   4.655  17.844
85046W        W89007  20.454   6.354  16.062
85047W        W89008  19.710   6.945  15.675
85048W        W89009  18.825   4.125  14.933
85049W        W89010  19.929   3.779  16.743
85050W        W89011  18.957   6.899  14.591
85051W        W89012  19.331   5.365  15.342
85052W        W89013  19.985   5.994  17.655
85053W        W89014  19.815   4.352  15.645
85054W        W89015  21.171   3.949  16.073
85055W        W89016  20.891   7.231  16.401
85056W        W89017  20.303   6.879  16.741
85057W        W89018  19.699   5.916  16.702
85058W        W89019  21.469   6.639  16.828
85059W        W89020  19.163   4.142  15.597
85060W        W89021  19.685   6.439  16.557
85061W        W89022  19.168   4.370  14.622
85062W        W89023  19.969   4.979  17.016
85063W        W89024  20.817   3.845  16.886
85064W        W89025  18.237   5.688  16.771
85065W        W89026  19.941   5.506  14.929
85066W        W89027  19.209   3.821  14.699
85067W        W89028  19.947   4.902  15.750
85068W        W89029  20.917   3.878  17.449
85069W        W89030  19.505   5.890  17.558
85070W        W89031  20.309   5.672  17.775
85071W        W89032  20.926   5.702  17.668
85072W        W89033  20.210   3.842  18.173
85073W        W89034  19.432   4.458  16.566
85074W        W89035  18.858   4.414  15.964
85075W        W89036  18.644   7.126  15.640
85076W        W89037  19.976   6.456  17.765
85077W        W89038  19.011   5.941  15.124
85078W        W89039  20.691   5.326  16.345
85079W        W89040  20.971   5.125  16.744
85080W        W89041  20.176   5.799  16.678
85081W        W89042  20.646   6.173  14.810
85082W        W89043  20.318   4.194  16.138
85083W        W89044  21.797   4.472  15.406
85084W        W89045  18.291   7.061  17.437
85085W        W89046  18.708   6.287  16.969
85086W        W89047  18.275   7.133  15.201
85087W        W89048  20.174   4.403  17.007
85088W        W89049  19.537   6.426  14.856
85089W        W89050  21.442   6.808  15.042
85090W        W89051  20.417   5.461  15.056
85091W        W89052  19.260   4.652  15.573
85092W        W89053  20.092   4.562  14.625
85093W        W89054  20.676   6.127  17.803
85094W        W89055  21.029   4.033  15.420
85095W        W89056  18.359   3.881  14.868
85096W        W89057  19.645   6.200  17.158
85097W        W89058  19.444   6.116  16.250
85098W        W89059  19.186   6.068  14.648
85099W        W89060  18.427   6.309  15.416
85100W        W89061  18.931   5.379  17.858
85101W        W89062  19.635   3.939  18.044
85102W        W89063  20.344   4.081  17.400
85103W        W89064  19.539   3.849  15.681
85104W        W89065  20.598   3.926  15.186
85105W        W89066  18.543   3.858  16.763
85106W        W89067  18.591   4.821  16.133
85107W        W89068  21.280   3.929  16.539
85108W        W89069  18.702   4.427  15.353
85109W        W89070  21.273   4.115  16.969
85110W        W89071  21.669   5.318  14.654
85111W        W89072  18.961   4.076  16.473
85112W        W89073  20.075   4.648  17.413
85113W        W89074  18.223   4.338  14.891
85114W        W89075  19.009   5.727  17.452
85115W        W89076  20.367   5.125  16.631
85116W        W89077  20.234   7.204  14.927
85117W        W89078  18.380   5.711  14.624
85118W        W89079  19.115   6.122  17.750
85119W        W89080  18.636   5.289  17.381
85120W        W89081  19.627   5.394  17.175
85121W        W89082  21.395   3.753  17.437
85122W        W89083  21.793   5.363  17.428
85123W        W89084  21.781   5.563  15.114
85124W        W89085  20.644   5.895  15.213
85125W        W89086  21.118   7.195  14.908
85126W        W89087  20.295   5.185  18.050
85127W        W89088  18.625   6.152  18.090
85128W        W89089  21.831   4.074  18.042
85129W        W89090  21.549   5.002  16.663
85130W        W89091  19.857   7.132  18.140
85131W        W89092  19.712   3.761  14.867
85132W        W89093  21.251   6.360  14.810
85133W        W89094  19.020   4.453  17.696
85134W        W89095  19.454   6.447  17.558
85135W        W89096  21.580   4.438  17.356
85136W        W89097  20.791   7.097  15.324
85137W        W89098  21.030   5.716  16.691
85138W        W89099  19.280   4.132  17.358
85139W        W89100  19.749   5.201  18.115
85140W        W89101  19.252   6.380  15.309
85141W        W89102  21.007   5.878  15.573
85142W        W89103  18.775   4.504  17.297
85143W        W89104  20.104   6.566  15.761
85144W        W89105  21.854   5.126  15.942
85145W        W89106  20.076   3.759  17.661
85146W        W89107  20.856   6.464  16.740
85147W        W89108  21.159   6.808  16.448
85148W        W89109  20.378   6.610  14.876
85149W        W89110  18.388   6.502  17.718
85150W        W89111  19.131   4.494  16.956
85151W        W89112  19.101   3.842  16.066
85152W        W89113  20.722   4.684  16.758
85153W        W89114  19.520   5.855  14.958
85154W        W89115  21.518   5.797  16.457
85155W        W89116  18.845   6.555  17.880
85156W        W89117  21.232   7.237  15.677
85157W        W89118  19.331   4.257  16.122
85158W        W89119  19.100   5.750  16.212
85159W        W89120  19.413   7.161  16.962
85160W        W89121  21.480   7.257  17.994
85161W        W89122  20.639   5.445  16.927
85162W        W89123  18.488   5.243  14.842
85163W        W89124  21.622   6.901  15.539
85164W        W89125  21.459   4.225  15.158
85165W        W89126  19.598   3.744  17.561
85166W        W89127  21.304   6.546  16.019
85167W        W89128  21.333   5.102  15.924
85168W        W89129  19.450   4.775  16.140
85169W        W89130  19.695   5.037  17.464
85170W        W89131  20.806   6.190  17.327
85171W        W89132  19.456   4.644  17.439
85172W        W89133  19.435   7.110  16.055
85173W        W89134  18.752   7.069  17.689
85174W        W89135  18.864   6.430  14.819
85175W        W89136  21.381   6.188  15.629
85176W        W89137  18.985   4.980  17.515
85177W        W89138  21.758   4.910  14.996
85178W        W89139  19.503   5.967  15.467
85179W        W89140  20.602   5.349  17.548
85180W        W89141  20.493   4.977  17.092
85181W        W89142  19.053   5.349  17.121
85182W        W89143  21.263   7.237  16.950
85183W        W89144  21.054   3.871  17.944
85184W        W89145  18.718   4.021  17.531
85185W        W89146  19.057   5.044  16.584
85186W        W89147  19.426   4.858  14.706
85187W        W89148  18.229   6.617  17.251
85188W        W89149  19.814   5.326  16.694
85189W        W89150  19.637   4.351  14.799
85190W        W89151  18.772   5.167  15.580
85191W        W89152  18.543   7.019  17.017
85192W        W89153  21.338   5.245  15.125
85193W        W89154  21.433   4.161  17.811
85194W        W89155  20.869   6.370  15.774
85195W        W89156  18.467   5.294  17.951
85196W        W89157  21.433   3.758  15.247
85197W        W89158  20.953   6.233  15.258
85198W        W89159  19.855   5.291  15.343
85199W        W89160  21.042   4.095  14.866
85200W        W89161  21.107   4.702  17.052
85201W        W89162  18.816   5.295  16.259
85202W        W89163  19.110   6.234  15.908
85203W        W89164  20.873   4.854  15.873
85204W        W89165  19.896   4.233  16.569
85205W        W89166  21.858   6.144  17.080
85206W        W89167  21.776   4.131  16.641
85207W        W89168  18.315   6.961  16.017
85208W        W89169  18.824   6.148  15.553
85209W        W89170  18.739   3.765  18.106
85210W        W89171  19.858   6.618  18.208
85211W        W89172  21.613   5.586  15.998
85212W        W89173  20.967   5.763  14.878
85213W        W89174  20.262   7.284  17.090
85214W        W89175  21.119   6.006  18.127
85215W        W89176  19.934   3.716  15.407
85216W        W89177  20.647   4.585  16.266
85217W        W89178  18.333   6.172  16.598
85218W        W89179  19.586   4.134  15.239
85219W        W89180  19.390   5.618  18.088
85220W        W89181  20.384   4.599  15.802
85221W        W89182  20.589   6.009  16.924
85222W        W89183  18.743   6.614  17.359
85223W        W89184  19.334   6.597  18.082
85224W        W89185  19.185   4.394  15.096
85225W        W89186  20.702   4.536  15.421
85226W        W89187  20.660   6.644  17.658
85227W        W89188  19.345   5.236  16.257
85228W        W89189  19.000   6.934  17.122
85229W        W89190  21.745   7.051  14.723
85230W        W89191  18.608   5.723  17.719
85231W        W89192  20.603   5.985  16.407
85232W        W89193  19.039   5.634  15.649
85233W        W89194  19.410   6.641  17.044
85234W        W89195  19.788   4.060  16.085
85235W        W89196  18.399   6.044  15.015
85236W        W89197  19.918   4.995  14.885
85237W        W89198  18.564   5.544  15.904
85238W        W89199  19.854   4.186  17.368
85239W        W89200  21.526   3.895  14.795
85240W        W89201  21.619   5.641  17.894
85241W        W89202  20.273   6.898  18.046
85242W        W89203  21.831   5.992  17.568
85243W        W89204  21.239   6.790  18.179
85244W        W89205  18.978   7.246  16.657
85245W        W89206  21.837   5.868  15.531
85246W        W89207  20.367   5.135  16.044
85247W        W89208  20.134   3.747  15.934
85248W        W89209  19.193   6.731  15.771
85249W        W89210  19.692   4.472  16.996
85250W        W89211  19.392   3.841  16.465
85251W        W89212  18.455   6.663  15.013
85252W        W89213  20.271   6.027  15.731
85253W        W89214  19.146   6.822  17.610
85254W        W89215  18.623   5.645  15.306
85255W        W89216  18.508   4.188  16.305
85256W        W89217  20.056   6.153  16.362
85257W        W89218  18.308   4.007  15.382
85258W        W89219  20.972   5.213  17.309
85259W        W89220  20.849   4.599  14.881
85260W        W89221  21.366   6.271  16.529
85261W        W89222  20.027   6.755  16.360
85262W        W89223  19.439   6.859  15.271
85263W        W89224  20.721   3.762  14.701
85264W        W89225  18.521   7.022  16.442
85265W        W89226  20.718   4.780  18.077
85266W        W89227  18.701   4.310  18.076
85267W        W89228  18.432   4.910  15.409
85268W        W89229  19.123   4.899  15.134
85269W        W89230  20.886   5.226  17.951
85270W        W89231  19.229   5.507  16.660
85271W        W89232  20.703   3.793  15.780
85272W        W89233  19.834   7.224  16.283
85273W        W89234  21.048   6.686  17.220
85274W        W89235  20.632   6.835  16.331
85275W        W89236  20.651   5.815  15.925
85276W        W89237  20.113   4.040  14.996
85277W        W89238  21.794   3.668  15.718
85278W        W89239  19.482   5.303  14.881
85279W        W89240  21.648   4.640  15.871
85280W        W89241  20.340   5.810  14.748
85281W        W89242  21.276   6.010  17.496
85282W        W89243  20.930   6.711  14.963
85283W        W89244  19.545   4.386  17.869
85284W        W89245  19.365   4.970  17.110
85285W        W89246  21.457   6.465  17.387
85286W        W89247  20.557   4.415  17.764
85287W        W89248  18.401   4.886  17.541
85288W        W89249  20.161   5.363  17.267
85289W        W89250  18.518   6.121  15.924
85290W        W89251  18.665   5.418  16.814
85291W        W89252  20.982   5.704  17.164
85292W        W89253  20.754   7.084  17.975
85293W        W89254  20.650   4.823  17.528
85294W        W89255  20.927   6.877  15.933
85295W        W89256  19.929   6.597  17.256
85296W        W89257  19.414   6.952  16.525
85297W        W89258  21.219   6.123  16.944
85298W        W89259  20.269   6.195  18.081
85299W        W89260  18.874   6.148  16.420
85300W        W89261  21.220   5.907  16.065
85301W        W89262  20.861   6.973  16.816
85302W        W89263  18.839   6.702  16.686
85303W        W89264  19.860   4.754  17.896
85304W        W89265  20.311   6.920  15.407
85305W        W89266  19.619   6.175  18.045
85306W        W89267  19.745   6.413  15.422
85307W        W89268  18.966   5.153  14.681
85308W        W89269  18.305   7.239  21.580
85309W        W89270  18.681   6.132  21.103
85310W        W89271  21.386   5.862  18.873
85311W        W89272  21.516   6.947  20.900
85312W        W89273  19.434   6.938  18.426
85313W        W89274  19.517   5.090  19.409
85314W        W89275  19.032   4.938  19.573
85315W        W89276  20.023   5.753  19.007
85316W        W89277  19.698   6.845  21.362
85317W        W89278  18.347   4.406  21.325
85318W        W89279  19.109   3.686  21.127
85319W        W89280  20.803   4.074  20.014
85320W        W89281  20.452   4.945  18.584
85321W        W89282  21.022   4.379  21.675
85322W        W89283  18.388   4.171  20.800
85323W        W89284  18.487   6.790  21.821
85324W        W89285  20.009   6.180  18.553
85325W        W89286  18.441   4.963  20.246
85326W        W89287  19.334   4.854  21.483
85327W        W89288  21.793   4.713  19.982
85328W        W89289  21.557   5.756  20.841
85329W        W89290  19.865   5.089  19.868
85330W        W89291  20.411   6.428  20.237
85331W        W89292  18.911   5.862  20.469
85332W        W89293  18.270   5.390  20.040
85333W        W89294  19.306   5.362  21.232
85334W        W89295  21.577   5.145  21.486
85335W        W89296  19.193   6.589  19.931
85336W        W89297  20.314   6.278  21.065
85337W        W89298  19.534   4.918  20.290
85338W        W89299  19.826   5.702  19.933
85339W        W89300  20.823   6.475  21.781
85340W        W89301  19.902   5.795  21.791
85341W        W89302  19.883   5.511  21.269
85342W        W89303  18.292   4.902  21.791
85343W        W89304  21.124   6.437  21.390
85344W        W89305  18.705   4.019  19.388
85345W        W89306  19.232   6.277  20.387
85346W        W89307  21.695   6.060  19.677
85347W        W89308  21.108   4.460  20.244
85348W        W89309  21.393   4.413  18.339
85349W        W89310  21.858   5.214  20.645
85350W        W89311  19.825   6.921  20.398
85351W        W89312  21.599   6.387  18.836
85352W        W89313  18.728   7.173  18.590
85353W        W89314  19.121   7.219  19.266
85354W        W89315  18.918   3.973  20.692
85355W        W89316  21.541   4.991  20.967
85356W        W89317  20.946   5.413  19.426
85357W        W89318  20.912   5.101  18.453
85358W        W89319  20.120   6.245  20.593
85359W        W89320  19.926   4.575  19.792
85360W        W89321  20.526   6.662  20.786
85361W        W89322  21.397   5.453  19.208
85362W        W89323  20.299   4.111  19.224
85363W        W89324  18.956   6.805  18.907
85364W        W89325  18.327   4.304  19.506
85365W        W89326  21.113   4.911  19.980
85366W        W89327  18.571   6.528  19.895
85367W        W89328  19.912   6.878  18.765
85368W        W89329  21.304   4.904  18.229
85369W        W89330  18.327   6.662  20.393
85370W        W89331  19.118   6.234  20.873
85371W        W89332  19.491   5.594  19.492
85372W        W89333  19.513   3.999  20.585
85373W        W89334  21.742   3.761  19.882
85374W        W89335  18.961   5.633  18.350
85375W        W89336  18.616   4.666  18.529
85376W        W89337  18.678   6.622  19.323
85377W        W89338  19.809   6.105  19.571
85378W        W89339  21.141   6.964  21.285
85379W        W89340  20.067   4.606  18.969
85380W        W89341  21.450   7.004  19.741
85381W        W89342  21.127   4.857  21.339
85382W        W89343  21.840   6.513  19.473
85383W        W89344  20.467   5.805  20.957
85384W        W89345  18.233   5.356  19.163
85385W        W89346  19.344   5.771  20.736
85386W        W89347  20.548   5.035  19.114
85387W        W89348  20.425   5.525  19.218
85388W        W89349  18.768   4.945  20.692
85389W        W89350  18.753   4.821  21.614
85390W        W89351  18.643   3.738  19.773
85391W        W89352  20.411   4.085  20.334
85392W        W89353  20.059   4.270  21.497
85393W        W89354  20.414   4.419  18.675
85394W        W89355  21.597   6.812  21.429
85395W        W89356  20.564   3.893  21.468
85396W        W89357  21.583   6.194  21.590
85397W        W89358  21.013   4.361  21.186
85398W        W89359  20.813   4.299  19.456
85399W        W89360  21.206   5.433  21.860
85400W        W89361  18.946   7.009  19.846
85401W        W89362  19.604   4.726  18.832
85402W        W89363  19.173   4.010  21.496
85403W        W89364  21.225   4.494  19.177
85404W        W89365  21.592   4.976  19.122
85405W        W89366  19.335   7.193  21.593
85406W        W89367  19.261   3.729  18.828
85407W        W89368  21.582   4.263  19.863
85408W        W89369  21.732   6.512  18.308
85409W        W89370  18.639   5.715  20.010
85410W        W89371  20.556   4.302  18.240
85411W        W89372  21.690   6.634  19.960
85412W        W89373  21.729   3.828  20.710
85413W        W89374  20.174   5.040  21.264
85414W        W89375  20.267   6.379  18.967
85415W        W89376  20.667   5.673  21.707
85416W        W89377  20.341   3.650  20.016
85417W        W89378  18.953   4.553  20.079
85418W        W89379  18.507   5.753  20.853
85419W        W89380  20.366   6.946  19.559
85420W        W89381  21.560   4.543  20.431
85421W        W89382  20.197   6.890  21.198
85422W        W89383  21.540   5.949  18.403
85423W        W89384  19.975   5.432  19.464
85424W        W89385  21.827   3.943  21.205
85425W        W89386  19.976   5.778  20.799
85426W        W89387  20.193   4.664  20.244
85427W        W89388  21.045   4.962  19.082
85428W        W89389  21.332   4.695  18.724
85429W        W89390  21.141   6.735  19.113
85430W        W89391  20.975   6.338  19.909
85431W        W89392  20.871   5.417  18.887
85432W        W89393  20.304   5.627  19.873
85433W        W89394  21.185   5.415  19.940
85434W        W89395  18.560   4.430  20.364
85435W        W89396  21.338   5.482  21.191
85436W        W89397  21.689   7.100  20.337
85437W        W89398  19.619   6.544  19.739
85438W        W89399  20.626   7.077  21.063
85439W        W89400  20.620   4.407  20.827
85440W        W89401  19.827   7.115  20.888
85441W        W89402  21.524   4.069  19.354
85442W        W89403  21.315   5.388  20.655
85443W        W89404  18.298   4.709  20.693
85444W        W89405  21.158   4.504  19.711
85445W        W89406  21.569   4.655  21.488
85446W        W89407  20.454   6.354  19.706
85447W        W89408  19.710   6.945  19.319
85448W        W89409  18.825   4.125  18.577
85449W        W89410  19.929   3.779  20.387
85450W        W89411  18.957   6.899  18.235
85451W        W89412  19.331   5.365  18.986
85452W        W89413  19.985   5.994  21.299
85453W        W89414  19.815   4.352  19.289
85454W        W89415  21.171   3.949  19.717
85455W        W89416  20.891   7.231  20.045
85456W        W89417  20.303   6.879  20.385
85457W        W89418  19.699   5.916  20.346
85458W        W89419  21.469   6.639  20.472
85459W        W89420  19.163   4.142  19.241
85460W        W89421  19.685   6.439  20.201
85461W        W89422  19.168   4.370  18.266
85462W        W89423  19.969   4.979  20.660
85463W        W89424  20.817   3.845  20.530
85464W        W89425  18.237   5.688  20.415
85465W        W89426  19.941   5.506  18.573
85466W        W89427  19.209   3.821  18.343
85467W        W89428  19.947   4.902  19.394
85468W        W89429  20.917   3.878  21.093
85469W        W89430  19.505   5.890  21.202
85470W        W89431  20.309   5.672  21.419
85471W        W89432  20.926   5.702  21.312
85472W        W89433  20.210   3.842  21.817
85473W        W89434  19.432   4.458  20.210
85474W        W89435  18.858   4.414  19.608
85475W        W89436  18.644   7.126  19.284
85476W        W89437  19.976   6.456  21.409
85477W        W89438  19.011   5.941  18.768
85478W        W89439  20.691   5.326  19.989
85479W        W89440  20.971   5.125  20.388
85480W        W89441  20.176   5.799  20.322
85481W        W89442  20.646   6.173  18.454
85482W        W89443  20.318   4.194  19.782
85483W        W89444  21.797   4.472  19.050
85484W        W89445  18.291   7.061  21.081
85485W        W89446  18.708   6.287  20.613
85486W        W89447  18.275   7.133  18.845
85487W        W89448  20.174   4.403  20.651
85488W        W89449  19.537   6.426  18.500
85489W        W89450  21.442   6.808  18.686
85490W        W89451  20.417   5.461  18.700
85491W        W89452  19.260   4.652  19.217
85492W        W89453  20.092   4.562  18.269
85493W        W89454  20.676   6.127  21.447
85494W        W89455  21.029   4.033  19.064
85495W        W89456  18.359   3.881  18.512
85496W        W89457  19.645   6.200  20.802
85497W        W89458  19.444   6.116  19.894
85498W        W89459  19.186   6.068  18.292
85499W        W89460  18.427   6.309  19.060
85500W        W89461  18.931   5.379  21.502
85501W        W89462  19.635   3.939  21.688
85502W        W89463  20.344   4.081  21.044
85503W        W89464  19.539   3.849  19.325
85504W        W89465  20.598   3.926  18.830
85505W        W89466  18.543   3.858  20.407
85506W        W89467  18.591   4.821  19.777
85507W        W89468  21.280   3.929  20.183
85508W        W89469  18.702   4.427  18.997
85509W        W89470  21.273   4.115  20.613
85510W        W89471  21.669   5.318  18.298
85511W        W89472  18.961   4.076  20.117
85512W        W89473  20.075   4.648  21.057
85513W        W89474  18.223   4.338  18.535
85514W        W89475  19.009   5.727  21.096
85515W        W89476  20.367   5.125  20.275
85516W        W89477  20.234   7.204  18.571
85517W        W89478  18.380   5.711  18.268
85518W        W89479  19.115   6.122  21.394
85519W        W89480  18.636   5.289  21.025
85520W        W89481  19.627   5.394  20.819
85521W        W89482  21.395   3.753  21.081
85522W        W89483  21.793   5.363  21.072
85523W        W89484  21.781   5.563  18.758
85524W        W89485  20.644   5.895  18.857
85525W        W89486  21.118   7.195  18.552
85526W        W89487  20.295   5.185  21.694
85527W        W89488  18.625   6.152  21.734
85528W        W89489  21.831   4.074  21.686
85529W        W89490  21.549   5.002  20.307
85530W        W89491  19.857   7.132  21.784
85531W        W89492  19.712   3.761  18.511
85532W        W89493  21.251   6.360  18.454
85533W        W89494  19.020   4.453  21.340
85534W        W89495  19.454   6.447  21.202
85535W        W89496  21.580   4.438  21.000
85536W        W89497  20.791   7.097  18.968
85537W        W89498  21.030   5.716  20.335
85538W        W89499  19.280   4.132  21.002
85539W        W89500  19.749   5.201  21.759
85540W        W89501  19.252   6.380  18.953
85541W        W89502  21.007   5.878  19.217
85542W        W89503  18.775   4.504  20.941
85543W        W89504  20.104   6.566  19.405
85544W        W89505  21.854   5.126  19.586
85545W        W89506  20.076   3.759  21.305
85546W        W89507  20.856   6.464  20.384
85547W        W89508  21.159   6.808  20.092
85548W        W89509  20.378   6.610  18.520
85549W        W89510  18.388   6.502  21.362
85550W        W89511  19.131   4.494  20.600
85551W        W89512  19.101   3.842  19.710
85552W        W89513  20.722   4.684  20.402
85553W        W89514  19.520   5.855  18.602
85554W        W89515  21.518   5.797  20.101
85555W        W89516  18.845   6.555  21.524
85556W        W89517  21.232   7.237  19.321
85557W        W89518  19.331   4.257  19.766
85558W        W89519  19.100   5.750  19.856
85559W        W89520  19.413   7.161  20.606
85560W        W89521  21.480   7.257  21.638
85561W        W89522  20.639   5.445  20.571
85562W        W89523  18.488   5.243  18.486
85563W        W89524  21.622   6.901  19.183
85564W        W89525  21.459   4.225  18.802
85565W        W89526  19.598   3.744  21.205
85566W        W89527  21.304   6.546  19.663
85567W        W89528  21.333   5.102  19.568
85568W        W89529  19.450   4.775  19.784
85569W        W89530  19.695   5.037  21.108
85570W        W89531  20.806   6.190  20.971
85571W        W89532  19.456   4.644  21.083
85572W        W89533  19.435   7.110  19.699
85573W        W89534  18.752   7.069  21.333
85574W        W89535  18.864   6.430  18.463
85575W        W89536  21.381   6.188  19.273
85576W        W89537  18.985   4.980  21.159
85577W        W89538  21.758   4.910  18.640
85578W        W89539  19.503   5.967  19.111
85579W        W89540  20.602   5.349  21.192
85580W        W89541  20.493   4.977  20.736
85581W        W89542  19.053   5.349  20.765
85582W        W89543  21.263   7.237  20.594
85583W        W89544  21.054   3.871  21.588
85584W        W89545  18.718   4.021  21.175
85585W        W89546  19.057   5.044  20.228
85586W        W89547  19.426   4.858  18.350
85587W        W89548  18.229   6.617  20.895
85588W        W89549  19.814   5.326  20.338
85589W        W89550  19.637   4.351  18.443
85590W        W89551  18.772   5.167  19.224
85591W        W89552  18.543   7.019  20.661
85592W        W89553  21.338   5.245  18.769
85593W        W89554  21.433   4.161  21.455
85594W        W89555  20.869   6.370  19.418
85595W        W89556  18.467   5.294  21.595
85596W        W89557  21.433   3.758  18.891
85597W        W89558  20.953   6.233  18.902
85598W        W89559  19.855   5.291  18.987
85599W        W89560  21.042   4.095  18.510
85600W        W89561  21.107   4.702  20.696
85601W        W89562  18.816   5.295  19.903
85602W        W89563  19.110   6.234  19.552
85603W        W89564  20.873   4.854  19.517
85604W        W89565  19.896   4.233  20.213
85605W        W89566  21.858   6.144  20.724
85606W        W89567  21.776   4.131  20.285
85607W        W89568  18.315   6.961  19.661
85608W        W89569  18.824   6.148  19.197
85609W        W89570  18.739   3.765  21.750
85610W        W89571  19.858   6.618  21.852
85611W        W89572  21.613   5.586  19.642
85612W        W89573  20.967   5.763  18.522
85613W        W89574  20.262   7.284  20.734
85614W        W89575  21.119   6.006  21.771
85615W        W89576  19.934   3.716  19.051
85616W        W89577  20.647   4.585  19.910
85617W        W89578  18.333   6.172  20.242
85618W        W89579  19.586   4.134  18.883
85619W        W89580  19.390   5.618  21.732
85620W        W89581  20.384   4.599  19.446
85621W        W89582  20.589   6.009  20.568
85622W        W89583  18.743   6.614  21.003
85623W        W89584  19.334   6.597  21.726
85624W        W89585  19.185   4.394  18.740
85625W        W89586  20.702   4.536  19.065
85626W        W89587  20.660   6.644  21.302
85627W        W89588  19.345   5.236  19.901
85628W        W89589  19.000   6.934  20.766
85629W        W89590  21.745   7.051  18.367
85630W        W89591  18.608   5.723  21.363
85631W        W89592  20.603   5.985  20.051
85632W        W89593  19.039   5.634  19.293
85633W        W89594  19.410   6.641  20.688
85634W        W89595  19.788   4.060  19.729
85635W        W89596  18.399   6.044  18.659
85636W        W89597  19.918   4.995  18.529
85637W        W89598  18.564   5.544  19.548
85638W        W89599  19.854   4.186  21.012
85639W        W89600  21.526   3.895  18.439
85640W        W89601  21.619   5.641  21.538
85641W        W89602  20.273   6.898  21.690
85642W        W89603  21.831   5.992  21.212
85643W        W89604  21.239   6.790  21.823
85644W        W89605  18.978   7.246  20.301
85645W        W89606  21.837   5.868  19.175
85646W        W89607  20.367   5.135  19.688
85647W        W89608  20.134   3.747  19.578
85648W        W89609  19.193   6.731  19.415
85649W        W89610  19.692   4.472  20.640
85650W        W89611  19.392   3.841  20.109
85651W        W89612  18.455   6.663  18.657
85652W        W89613  20.271   6.027  19.375
85653W        W89614  19.146   6.822  21.254
85654W        W89615  18.623   5.645  18.950
85655W        W89616  18.508   4.188  19.949
85656W        W89617  20.056   6.153  20.006
85657W        W89618  18.308   4.007  19.026
85658W        W89619  20.972   5.213  20.953
85659W        W89620  20.849   4.599  18.525
85660W        W89621  21.366   6.271  20.173
85661W        W89622  20.027   6.755  20.004
85662W        W89623  19.439   6.859  18.915
85663W        W89624  20.721   3.762  18.345
85664W        W89625  18.521   7.022  20.086
85665W        W89626  20.718   4.780  21.721
85666W        W89627  18.701   4.310  21.720
85667W        W89628  18.432   4.910  19.053
85668W        W89629  19.123   4.899  18.778
85669W        W89630  20.886   5.226  21.595
85670W        W89631  19.229   5.507  20.304
85671W        W89632  20.703   3.793  19.424
85672W        W89633  19.834   7.224  19.927
85673W        W89634  21.048   6.686  20.864
85674W        W89635  20.632   6.835  19.975
85675W        W89636  20.651   5.815  19.569
85676W        W89637  20.113   4.040  18.640
85677W        W89638  21.794   3.668  19.362
85678W        W89639  19.482   5.303  18.525
85679W        W89640  21.648   4.640  19.515
85680W        W89641  20.340   5.810  18.392
85681W        W89642  21.276   6.010  21.140
85682W        W89643  20.930   6.711  18.607
85683W        W89644  19.545   4.386  21.513
85684W        W89645  19.365   4.970  20.754
85685W        W89646  21.457   6.465  21.031
85686W        W89647  20.557   4.415  21.408
85687W        W89648  18.401   4.886  21.185
85688W        W89649  20.161   5.363  20.911
85689W        W89650  18.518   6.121  19.568
85690W        W89651  18.665   5.418  20.458
85691W        W89652  20.982   5.704  20.808
85692W        W89653  20.754   7.084  21.619
85693W        W89654  20.650   4.823  21.172
85694W        W89655  20.927   6.877  19.577
85695W        W89656  19.929   6.597  20.900
85696W        W89657  19.414   6.952  20.169
85697W        W89658  21.219   6.123  20.588
85698W        W89659  20.269   6.195  21.725
85699W        W89660  18.874   6.148  20.064
85700W        W89661  21.220   5.907  19.709
85701W        W89662  20.861   6.973  20.460
85702W        W89663  18.839   6.702  20.330
85703W        W89664  19.860   4.754  21.540
85704W        W89665  20.311   6.920  19.051
85705W        W89666  19.619   6.175  21.689
85706W        W89667  19.745   6.413  19.066
85707W        W89668  18.966   5.153  18.325
85708W        W89669  21.386   5.862  22.518
85709W        W89670  19.434   6.938  22.071
85710W        W89671  19.517   5.090  23.054
85711W        W89672  19.032   4.938  23.218
85712W        W89673  20.023   5.753  22.652
85713W        W89674  20.452   4.945  22.229
85714W        W89675  20.009   6.180  22.198
85715W        W89676  18.705   4.019  23.033
85716W        W89677  21.393   4.413  21.984
85717W        W89678  21.599   6.387  22.481
85718W        W89679  18.728   7.173  22.235
85719W        W89680  19.121   7.219  22.911
85720W        W89681  20.946   5.413  23.071
85721W        W89682  20.912   5.101  22.098
85722W        W89683  21.397   5.453  22.853
85723W        W89684  20.299   4.111  22.869
85724W        W89685  18.956   6.805  22.552
85725W        W89686  19.912   6.878  22.410
85726W        W89687  21.304   4.904  21.874
85727W        W89688  19.491   5.594  23.137
85728W        W89689  18.961   5.633  21.995
85729W        W89690  18.616   4.666  22.174
85730W        W89691  18.678   6.622  22.968
85731W        W89692  19.809   6.105  23.216
85732W        W89693  20.067   4.606  22.614
85733W        W89694  18.233   5.356  22.808
85734W        W89695  20.548   5.035  22.759
85735W        W89696  20.425   5.525  22.863
85736W        W89697  20.414   4.419  22.320
85737W        W89698  20.813   4.299  23.101
85738W        W89699  19.604   4.726  22.477
85739W        W89700  21.225   4.494  22.822
85740W        W89701  21.592   4.976  22.767
85741W        W89702  19.261   3.729  22.473
85742W        W89703  21.732   6.512  21.953
85743W        W89704  20.556   4.302  21.885
85744W        W89705  20.267   6.379  22.612
85745W        W89706  20.366   6.946  23.204
85746W        W89707  21.540   5.949  22.048
85747W        W89708  19.975   5.432  23.109
85748W        W89709  21.045   4.962  22.727
85749W        W89710  21.332   4.695  22.369
85750W        W89711  21.141   6.735  22.758
85751W        W89712  20.871   5.417  22.532
85752W        W89713  21.524   4.069  22.999
85753W        W89714  19.710   6.945  22.964
85754W        W89715  18.825   4.125  22.222
85755W        W89716  18.957   6.899  21.880
85756W        W89717  19.331   5.365  22.631
85757W        W89718  19.815   4.352  22.934
85758W        W89719  19.163   4.142  22.886
85759W        W89720  19.168   4.370  21.911
85760W        W89721  19.941   5.506  22.218
85761W        W89722  19.209   3.821  21.988
85762W        W89723  19.947   4.902  23.039
85763W        W89724  18.858   4.414  23.253
85764W        W89725  18.644   7.126  22.929
85765W        W89726  19.011   5.941  22.413
85766W        W89727  20.646   6.173  22.099
85767W        W89728  21.797   4.472  22.695
85768W        W89729  18.275   7.133  22.490
85769W        W89730  19.537   6.426  22.145
85770W        W89731  21.442   6.808  22.331
85771W        W89732  20.417   5.461  22.345
85772W        W89733  19.260   4.652  22.862
85773W        W89734  20.092   4.562  21.914
85774W        W89735  21.029   4.033  22.709
85775W        W89736  18.359   3.881  22.157
85776W        W89737  19.186   6.068  21.937
85777W        W89738  18.427   6.309  22.705
85778W        W89739  19.539   3.849  22.970
85779W        W89740  20.598   3.926  22.475
85780W        W89741  18.702   4.427  22.642
85781W        W89742  21.669   5.318  21.943
85782W        W89743  18.223   4.338  22.180
85783W        W89744  20.234   7.204  22.216
85784W        W89745  18.380   5.711  21.913
85785W        W89746  21.781   5.563  22.403
85786W        W89747  20.644   5.895  22.502
85787W        W89748  21.118   7.195  22.197
85788W        W89749  19.712   3.761  22.156
85789W        W89750  21.251   6.360  22.099
85790W        W89751  20.791   7.097  22.613
85791W        W89752  19.252   6.380  22.598
85792W        W89753  21.007   5.878  22.862
85793W        W89754  20.104   6.566  23.050
85794W        W89755  21.854   5.126  23.231
85795W        W89756  20.378   6.610  22.165
85796W        W89757  19.520   5.855  22.247
85797W        W89758  21.232   7.237  22.966
85798W        W89759  18.488   5.243  22.131
85799W        W89760  21.622   6.901  22.828
85800W        W89761  21.459   4.225  22.447
85801W        W89762  21.333   5.102  23.213
85802W        W89763  18.864   6.430  22.108
85803W        W89764  21.381   6.188  22.918
85804W        W89765  21.758   4.910  22.285
85805W        W89766  19.503   5.967  22.756
85806W        W89767  19.426   4.858  21.995
85807W        W89768  19.637   4.351  22.088
85808W        W89769  18.772   5.167  22.869
85809W        W89770  21.338   5.245  22.414
85810W        W89771  20.869   6.370  23.063
85811W        W89772  21.433   3.758  22.536
85812W        W89773  20.953   6.233  22.547
85813W        W89774  19.855   5.291  22.632
85814W        W89775  21.042   4.095  22.155
85815W        W89776  19.110   6.234  23.197
85816W        W89777  20.873   4.854  23.162
85817W        W89778  18.315   6.961  23.306
85818W        W89779  18.824   6.148  22.842
85819W        W89780  21.613   5.586  23.287
85820W        W89781  20.967   5.763  22.167
85821W        W89782  19.934   3.716  22.696
85822W        W89783  19.586   4.134  22.528
85823W        W89784  20.384   4.599  23.091
85824W        W89785  19.185   4.394  22.385
85825W        W89786  20.702   4.536  22.710
85826W        W89787  21.745   7.051  22.012
85827W        W89788  18.399   6.044  22.304
85828W        W89789  19.918   4.995  22.174
85829W        W89790  18.564   5.544  23.193
85830W        W89791  21.526   3.895  22.084
85831W        W89792  21.837   5.868  22.820
85832W        W89793  20.134   3.747  23.223
85833W        W89794  19.193   6.731  23.060
85834W        W89795  18.455   6.663  22.302
85835W        W89796  20.271   6.027  23.020
85836W        W89797  18.623   5.645  22.595
85837W        W89798  18.308   4.007  22.671
85838W        W89799  20.849   4.599  22.170
85839W        W89800  19.439   6.859  22.560
85840W        W89801  20.721   3.762  21.990
85841W        W89802  18.432   4.910  22.698
85842W        W89803  19.123   4.899  22.423
85843W        W89804  20.651   5.815  23.214
85844W        W89805  20.113   4.040  22.285
85845W        W89806  21.794   3.668  23.007
85846W        W89807  19.482   5.303  22.170
85847W        W89808  21.648   4.640  23.160
85848W        W89809  20.340   5.810  22.037
85849W        W89810  20.930   6.711  22.252
85850W        W89811  18.518   6.121  23.213
85851W        W89812  20.927   6.877  23.222
85852W        W89813  20.311   6.920  22.696
85853W        W89814  19.745   6.413  22.711
85854W        W89815  18.966   5.153  21.970
85855W        W89816  18.305  10.884   3.359
85856W        W89817  18.681   9.777   2.882
85857W        W89818  21.386   9.507   0.652
85858W        W89819  21.516  10.592   2.679
85859W        W89820  19.434  10.583   0.205
85860W        W89821  19.517   8.735   1.188
85861W        W89822  19.032   8.583   1.352
85862W        W89823  20.023   9.398   0.786
85863W        W89824  19.698  10.490   3.141
85864W        W89825  18.347   8.051   3.104
85865W        W89826  19.109   7.331   2.906
85866W        W89827  20.803   7.719   1.793
85867W        W89828  20.452   8.590   0.363
85868W        W89829  21.022   8.024   3.454
85869W        W89830  18.388   7.816   2.579
85870W        W89831  18.487  10.435   3.600
85871W        W89832  20.009   9.825   0.332
85872W        W89833  18.441   8.608   2.025
85873W        W89834  19.334   8.499   3.262
85874W        W89835  21.793   8.358   1.761
85875W        W89836  21.557   9.401   2.620
85876W        W89837  19.865   8.734   1.647
85877W        W89838  20.411  10.073   2.016
85878W        W89839  18.911   9.507   2.248
85879W        W89840  18.270   9.035   1.819
85880W        W89841  19.306   9.007   3.011
85881W        W89842  21.577   8.790   3.265
85882W        W89843  19.193  10.234   1.710
85883W        W89844  20.314   9.923   2.844
85884W        W89845  19.534   8.563   2.069
85885W        W89846  19.826   9.347   1.712
85886W        W89847  20.823  10.120   3.560
85887W        W89848  19.902   9.440   3.570
85888W        W89849  19.883   9.156   3.048
85889W        W89850  18.292   8.547   3.570
85890W        W89851  21.124  10.082   3.169
85891W        W89852  18.705   7.664   1.167
85892W        W89853  19.232   9.922   2.166
85893W        W89854  21.695   9.705   1.456
85894W        W89855  21.108   8.105   2.023
85895W        W89856  21.393   8.058   0.118
85896W        W89857  21.858   8.859   2.424
85897W        W89858  19.825  10.566   2.177
85898W        W89859  21.599  10.032   0.615
85899W        W89860  18.728  10.818   0.369
85900W        W89861  19.121  10.864   1.045
85901W        W89862  18.918   7.618   2.471
85902W        W89863  21.541   8.636   2.746
85903W        W89864  20.946   9.058   1.205
85904W        W89865  20.912   8.746   0.232
85905W        W89866  20.120   9.890   2.372
85906W        W89867  19.926   8.220   1.571
85907W        W89868  20.526  10.307   2.565
85908W        W89869  21.397   9.098   0.987
85909W        W89870  20.299   7.756   1.003
85910W        W89871  18.956  10.450   0.686
85911W        W89872  18.327   7.949   1.285
85912W        W89873  21.113   8.556   1.759
85913W        W89874  18.571  10.173   1.674
85914W        W89875  19.912  10.523   0.544
85915W        W89876  21.304   8.549   0.008
85916W        W89877  18.327  10.307   2.172
85917W        W89878  19.118   9.879   2.652
85918W        W89879  19.491   9.239   1.271
85919W        W89880  19.513   7.644   2.364
85920W        W89881  21.742   7.406   1.661
85921W        W89882  18.961   9.278   0.129
85922W        W89883  18.616   8.311   0.308
85923W        W89884  18.678  10.267   1.102
85924W        W89885  19.809   9.750   1.350
85925W        W89886  21.141  10.609   3.064
85926W        W89887  20.067   8.251   0.748
85927W        W89888  21.450  10.649   1.520
85928W        W89889  21.127   8.502   3.118
85929W        W89890  21.840  10.158   1.252
85930W        W89891  20.467   9.450   2.736
85931W        W89892  18.233   9.001   0.942
85932W        W89893  19.344   9.416   2.515
85933W        W89894  20.548   8.680   0.893
85934W        W89895  20.425   9.170   0.997
85935W        W89896  18.768   8.590   2.471
85936W        W89897  18.753   8.466   3.393
85937W        W89898  18.643   7.383   1.552
85938W        W89899  20.411   7.730   2.113
85939W        W89900  20.059   7.915   3.276
85940W        W89901  20.414   8.064   0.454
85941W        W89902  21.597  10.457   3.208
85942W        W89903  20.564   7.538   3.247
85943W        W89904  21.583   9.839   3.369
85944W        W89905  21.013   8.006   2.965
85945W        W89906  20.813   7.944   1.235
85946W        W89907  21.206   9.078   3.639
85947W        W89908  18.946  10.654   1.625
85948W        W89909  19.604   8.371   0.611
85949W        W89910  19.173   7.655   3.275
85950W        W89911  21.225   8.139   0.956
85951W        W89912  21.592   8.621   0.901
85952W        W89913  19.335  10.838   3.372
85953W        W89914  19.261   7.374   0.607
85954W        W89915  21.582   7.908   1.642
85955W        W89916  21.732  10.157   0.087
85956W        W89917  18.639   9.360   1.789
85957W        W89918  20.556   7.947   0.019
85958W        W89919  21.690  10.279   1.739
85959W        W89920  21.729   7.473   2.489
85960W        W89921  20.174   8.685   3.043
85961W        W89922  20.267  10.024   0.746
85962W        W89923  20.667   9.318   3.486
85963W        W89924  20.341   7.295   1.795
85964W        W89925  18.953   8.198   1.858
85965W        W89926  18.507   9.398   2.632
85966W        W89927  20.366  10.591   1.338
85967W        W89928  21.560   8.188   2.210
85968W        W89929  20.197  10.535   2.977
85969W        W89930  21.540   9.594   0.182
85970W        W89931  19.975   9.077   1.243
85971W        W89932  21.827   7.588   2.984
85972W        W89933  19.976   9.423   2.578
85973W        W89934  20.193   8.309   2.023
85974W        W89935  21.045   8.607   0.861
85975W        W89936  21.332   8.340   0.503
85976W        W89937  21.141  10.380   0.892
85977W        W89938  20.975   9.983   1.688
85978W        W89939  20.871   9.062   0.666
85979W        W89940  20.304   9.272   1.652
85980W        W89941  21.185   9.060   1.719
85981W        W89942  18.560   8.075   2.143
85982W        W89943  21.338   9.127   2.970
85983W        W89944  21.689  10.745   2.116
85984W        W89945  19.619  10.189   1.518
85985W        W89946  20.626  10.722   2.842
85986W        W89947  20.620   8.052   2.606
85987W        W89948  19.827  10.760   2.667
85988W        W89949  21.524   7.714   1.133
85989W        W89950  21.315   9.033   2.434
85990W        W89951  18.298   8.354   2.472
85991W        W89952  21.158   8.149   1.490
85992W        W89953  21.569   8.300   3.267
85993W        W89954  20.454   9.999   1.485
85994W        W89955  19.710  10.590   1.098
85995W        W89956  18.825   7.770   0.356
85996W        W89957  19.929   7.424   2.166
85997W        W89958  18.957  10.544   0.014
85998W        W89959  19.331   9.010   0.765
85999W        W89960  19.985   9.639   3.078
86000W        W89961  19.815   7.997   1.068
86001W        W89962  21.171   7.594   1.496
86002W        W89963  20.891  10.876   1.824
86003W        W89964  20.303  10.524   2.164
86004W        W89965  19.699   9.561   2.125
86005W        W89966  21.469  10.284   2.251
86006W        W89967  19.163   7.787   1.020
86007W        W89968  19.685  10.084   1.980
86008W        W89969  19.168   8.015   0.045
86009W        W89970  19.969   8.624   2.439
86010W        W89971  20.817   7.490   2.309
86011W        W89972  18.237   9.333   2.194
86012W        W89973  19.941   9.151   0.352
86013W        W89974  19.209   7.466   0.122
86014W        W89975  19.947   8.547   1.173
86015W        W89976  20.917   7.523   2.872
86016W        W89977  19.505   9.535   2.981
86017W        W89978  20.309   9.317   3.198
86018W        W89979  20.926   9.347   3.091
86019W        W89980  20.210   7.487   3.596
86020W        W89981  19.432   8.103   1.989
86021W        W89982  18.858   8.059   1.387
86022W        W89983  18.644  10.771   1.063
86023W        W89984  19.976  10.101   3.188
86024W        W89985  19.011   9.586   0.547
86025W        W89986  20.691   8.971   1.768
86026W        W89987  20.971   8.770   2.167
86027W        W89988  20.176   9.444   2.101
86028W        W89989  20.646   9.818   0.233
86029W        W89990  20.318   7.839   1.561
86030W        W89991  21.797   8.117   0.829
86031W        W89992  18.291  10.706   2.860
86032W        W89993  18.708   9.932   2.392
86033W        W89994  18.275  10.778   0.624
86034W        W89995  20.174   8.048   2.430
86035W        W89996  19.537  10.071   0.279
86036W        W89997  21.442  10.453   0.465
86037W        W89998  20.417   9.106   0.479
86038W        W89999  19.260   8.297   0.996
86039W        W90000  20.092   8.207   0.048
86040W        W90001  20.676   9.772   3.226
86041W        W90002  21.029   7.678   0.843
86042W        W90003  18.359   7.526   0.291
86043W        W90004  19.645   9.845   2.581
86044W        W90005  19.444   9.761   1.673
86045W        W90006  19.186   9.713   0.071
86046W        W90007  18.427   9.954   0.839
86047W        W90008  18.931   9.024   3.281
86048W        W90009  19.635   7.584   3.467
86049W        W90010  20.344   7.726   2.823
86050W        W90011  19.539   7.494   1.104
86051W        W90012  20.598   7.571   0.609
86052W        W90013  18.543   7.503   2.186
86053W        W90014  18.591   8.466   1.556
86054W        W90015  21.280   7.574   1.962
86055W        W90016  18.702   8.072   0.776
86056W        W90017  21.273   7.760   2.392
86057W        W90018  21.669   8.963   0.077
86058W        W90019  18.961   7.721   1.896
86059W        W90020  20.075   8.293   2.836
86060W        W90021  18.223   7.983   0.314
86061W        W90022  19.009   9.372   2.875
86062W        W90023  20.367   8.770   2.054
86063W        W90024  20.234  10.849   0.350
86064W        W90025  18.380   9.356   0.047
86065W        W90026  19.115   9.767   3.173
86066W        W90027  18.636   8.934   2.804
86067W        W90028  19.627   9.039   2.598
86068W        W90029  21.395   7.398   2.860
86069W        W90030  21.793   9.008   2.851
86070W        W90031  21.781   9.208   0.537
86071W        W90032  20.644   9.540   0.636
86072W        W90033  21.118  10.840   0.331
86073W        W90034  20.295   8.830   3.473
86074W        W90035  18.625   9.797   3.513
86075W        W90036  21.831   7.719   3.465
86076W        W90037  21.549   8.647   2.086
86077W        W90038  19.857  10.777   3.563
86078W        W90039  19.712   7.406   0.290
86079W        W90040  21.251  10.005   0.233
86080W        W90041  19.020   8.098   3.119
86081W        W90042  19.454  10.092   2.981
86082W        W90043  21.580   8.083   2.779
86083W        W90044  20.791  10.742   0.747
86084W        W90045  21.030   9.361   2.114
86085W        W90046  19.280   7.777   2.781
86086W        W90047  19.749   8.846   3.538
86087W        W90048  19.252  10.025   0.732
86088W        W90049  21.007   9.523   0.996
86089W        W90050  18.775   8.149   2.720
86090W        W90051  20.104  10.211   1.184
86091W        W90052  21.854   8.771   1.365
86092W        W90053  20.076   7.404   3.084
86093W        W90054  20.856  10.109   2.163
86094W        W90055  21.159  10.453   1.871
86095W        W90056  20.378  10.255   0.299
86096W        W90057  18.388  10.147   3.141
86097W        W90058  19.131   8.139   2.379
86098W        W90059  19.101   7.487   1.489
86099W        W90060  20.722   8.329   2.181
86100W        W90061  19.520   9.500   0.381
86101W        W90062  21.518   9.442   1.880
86102W        W90063  18.845  10.200   3.303
86103W        W90064  21.232  10.882   1.100
86104W        W90065  19.331   7.902   1.545
86105W        W90066  19.100   9.395   1.635
86106W        W90067  19.413  10.806   2.385
86107W        W90068  21.480  10.902   3.417
86108W        W90069  20.639   9.090   2.350
86109W        W90070  18.488   8.888   0.265
86110W        W90071  21.622  10.546   0.962
86111W        W90072  21.459   7.870   0.581
86112W        W90073  19.598   7.389   2.984
86113W        W90074  21.304  10.191   1.442
86114W        W90075  21.333   8.747   1.347
86115W        W90076  19.450   8.420   1.563
86116W        W90077  19.695   8.682   2.887
86117W        W90078  20.806   9.835   2.750
86118W        W90079  19.456   8.289   2.862
86119W        W90080  19.435  10.755   1.478
86120W        W90081  18.752  10.714   3.112
86121W        W90082  18.864  10.075   0.242
86122W        W90083  21.381   9.833   1.052
86123W        W90084  18.985   8.625   2.938
86124W        W90085  21.758   8.555   0.419
86125W        W90086  19.503   9.612   0.890
86126W        W90087  20.602   8.994   2.971
86127W        W90088  20.493   8.622   2.515
86128W        W90089  19.053   8.994   2.544
86129W        W90090  21.263  10.882   2.373
86130W        W90091  21.054   7.516   3.367
86131W        W90092  18.718   7.666   2.954
86132W        W90093  19.057   8.689   2.007
86133W        W90094  19.426   8.503   0.129
86134W        W90095  18.229  10.262   2.674
86135W        W90096  19.814   8.971   2.117
86136W        W90097  19.637   7.996   0.222
86137W        W90098  18.772   8.812   1.003
86138W        W90099  18.543  10.664   2.440
86139W        W90100  21.338   8.890   0.548
86140W        W90101  21.433   7.806   3.234
86141W        W90102  20.869  10.015   1.197
86142W        W90103  18.467   8.939   3.374
86143W        W90104  21.433   7.403   0.670
86144W        W90105  20.953   9.878   0.681
86145W        W90106  19.855   8.936   0.766
86146W        W90107  21.042   7.740   0.289
86147W        W90108  21.107   8.347   2.475
86148W        W90109  18.816   8.940   1.682
86149W        W90110  19.110   9.879   1.331
86150W        W90111  20.873   8.499   1.296
86151W        W90112  19.896   7.878   1.992
86152W        W90113  21.858   9.789   2.503
86153W        W90114  21.776   7.776   2.064
86154W        W90115  18.315  10.606   1.440
86155W        W90116  18.824   9.793   0.976
86156W        W90117  18.739   7.410   3.529
86157W        W90118  19.858  10.263   3.631
86158W        W90119  21.613   9.231   1.421
86159W        W90120  20.967   9.408   0.301
86160W        W90121  20.262  10.929   2.513
86161W        W90122  21.119   9.651   3.550
86162W        W90123  19.934   7.361   0.830
86163W        W90124  20.647   8.230   1.689
86164W        W90125  18.333   9.817   2.021
86165W        W90126  19.586   7.779   0.662
86166W        W90127  19.390   9.263   3.511
86167W        W90128  20.384   8.244   1.225
86168W        W90129  20.589   9.654   2.347
86169W        W90130  18.743  10.259   2.782
86170W        W90131  19.334  10.242   3.505
86171W        W90132  19.185   8.039   0.519
86172W        W90133  20.702   8.181   0.844
86173W        W90134  20.660  10.289   3.081
86174W        W90135  19.345   8.881   1.680
86175W        W90136  19.000  10.579   2.545
86176W        W90137  21.745  10.696   0.146
86177W        W90138  18.608   9.368   3.142
86178W        W90139  20.603   9.630   1.830
86179W        W90140  19.039   9.279   1.072
86180W        W90141  19.410  10.286   2.467
86181W        W90142  19.788   7.705   1.508
86182W        W90143  18.399   9.689   0.438
86183W        W90144  19.918   8.640   0.308
86184W        W90145  18.564   9.189   1.327
86185W        W90146  19.854   7.831   2.791
86186W        W90147  21.526   7.540   0.218
86187W        W90148  21.619   9.286   3.317
86188W        W90149  20.273  10.543   3.469
86189W        W90150  21.831   9.637   2.991
86190W        W90151  21.239  10.435   3.602
86191W        W90152  18.978  10.891   2.080
86192W        W90153  21.837   9.513   0.954
86193W        W90154  20.367   8.780   1.467
86194W        W90155  20.134   7.392   1.357
86195W        W90156  19.193  10.376   1.194
86196W        W90157  19.692   8.117   2.419
86197W        W90158  19.392   7.486   1.888
86198W        W90159  18.455  10.308   0.436
86199W        W90160  20.271   9.672   1.154
86200W        W90161  19.146  10.467   3.033
86201W        W90162  18.623   9.290   0.729
86202W        W90163  18.508   7.833   1.728
86203W        W90164  20.056   9.798   1.785
86204W        W90165  18.308   7.652   0.805
86205W        W90166  20.972   8.858   2.732
86206W        W90167  20.849   8.244   0.304
86207W        W90168  21.366   9.916   1.952
86208W        W90169  20.027  10.400   1.783
86209W        W90170  19.439  10.504   0.694
86210W        W90171  20.721   7.407   0.124
86211W        W90172  18.521  10.667   1.865
86212W        W90173  20.718   8.425   3.500
86213W        W90174  18.701   7.955   3.499
86214W        W90175  18.432   8.555   0.832
86215W        W90176  19.123   8.544   0.557
86216W        W90177  20.886   8.871   3.374
86217W        W90178  19.229   9.152   2.083
86218W        W90179  20.703   7.438   1.203
86219W        W90180  19.834  10.869   1.706
86220W        W90181  21.048  10.331   2.643
86221W        W90182  20.632  10.480   1.754
86222W        W90183  20.651   9.460   1.348
86223W        W90184  20.113   7.685   0.419
86224W        W90185  21.794   7.313   1.141
86225W        W90186  19.482   8.948   0.304
86226W        W90187  21.648   8.285   1.294
86227W        W90188  20.340   9.455   0.171
86228W        W90189  21.276   9.655   2.919
86229W        W90190  20.930  10.356   0.386
86230W        W90191  19.545   8.031   3.292
86231W        W90192  19.365   8.615   2.533
86232W        W90193  21.457  10.110   2.810
86233W        W90194  20.557   8.060   3.187
86234W        W90195  18.401   8.531   2.964
86235W        W90196  20.161   9.008   2.690
86236W        W90197  18.518   9.766   1.347
86237W        W90198  18.665   9.063   2.237
86238W        W90199  20.982   9.349   2.587
86239W        W90200  20.754  10.729   3.398
86240W        W90201  20.650   8.468   2.951
86241W        W90202  20.927  10.522   1.356
86242W        W90203  19.929  10.242   2.679
86243W        W90204  19.414  10.597   1.948
86244W        W90205  21.219   9.768   2.367
86245W        W90206  20.269   9.840   3.504
86246W        W90207  18.874   9.793   1.843
86247W        W90208  21.220   9.552   1.488
86248W        W90209  20.861  10.618   2.239
86249W        W90210  18.839  10.347   2.109
86250W        W90211  19.860   8.399   3.319
86251W        W90212  20.311  10.565   0.830
86252W        W90213  19.619   9.820   3.468
86253W        W90214  19.745  10.058   0.845
86254W        W90215  18.966   8.798   0.104
86255W        W90216  18.305  10.884   7.003
86256W        W90217  18.681   9.777   6.526
86257W        W90218  21.386   9.507   4.296
86258W        W90219  21.516  10.592   6.323
86259W        W90220  19.434  10.583   3.849
86260W        W90221  19.517   8.735   4.832
86261W        W90222  19.032   8.583   4.996
86262W        W90223  20.023   9.398   4.430
86263W        W90224  19.698  10.490   6.785
86264W        W90225  18.347   8.051   6.748
86265W        W90226  19.109   7.331   6.550
86266W        W90227  20.803   7.719   5.437
86267W        W90228  20.452   8.590   4.007
86268W        W90229  21.022   8.024   7.098
86269W        W90230  18.388   7.816   6.223
86270W        W90231  18.487  10.435   7.244
86271W        W90232  20.009   9.825   3.976
86272W        W90233  18.441   8.608   5.669
86273W        W90234  19.334   8.499   6.906
86274W        W90235  21.793   8.358   5.405
86275W        W90236  21.557   9.401   6.264
86276W        W90237  19.865   8.734   5.291
86277W        W90238  20.411  10.073   5.660
86278W        W90239  18.911   9.507   5.892
86279W        W90240  18.270   9.035   5.463
86280W        W90241  19.306   9.007   6.655
86281W        W90242  21.577   8.790   6.909
86282W        W90243  19.193  10.234   5.354
86283W        W90244  20.314   9.923   6.488
86284W        W90245  19.534   8.563   5.713
86285W        W90246  19.826   9.347   5.356
86286W        W90247  20.823  10.120   7.204
86287W        W90248  19.902   9.440   7.214
86288W        W90249  19.883   9.156   6.692
86289W        W90250  18.292   8.547   7.214
86290W        W90251  21.124  10.082   6.813
86291W        W90252  18.705   7.664   4.811
86292W        W90253  19.232   9.922   5.810
86293W        W90254  21.695   9.705   5.100
86294W        W90255  21.108   8.105   5.667
86295W        W90256  21.393   8.058   3.762
86296W        W90257  21.858   8.859   6.068
86297W        W90258  19.825  10.566   5.821
86298W        W90259  21.599  10.032   4.259
86299W        W90260  18.728  10.818   4.013
86300W        W90261  19.121  10.864   4.689
86301W        W90262  18.918   7.618   6.115
86302W        W90263  21.541   8.636   6.390
86303W        W90264  20.946   9.058   4.849
86304W        W90265  20.912   8.746   3.876
86305W        W90266  20.120   9.890   6.016
86306W        W90267  19.926   8.220   5.215
86307W        W90268  20.526  10.307   6.209
86308W        W90269  21.397   9.098   4.631
86309W        W90270  20.299   7.756   4.647
86310W        W90271  18.956  10.450   4.330
86311W        W90272  18.327   7.949   4.929
86312W        W90273  21.113   8.556   5.403
86313W        W90274  18.571  10.173   5.318
86314W        W90275  19.912  10.523   4.188
86315W        W90276  21.304   8.549   3.652
86316W        W90277  18.327  10.307   5.816
86317W        W90278  19.118   9.879   6.296
86318W        W90279  19.491   9.239   4.915
86319W        W90280  19.513   7.644   6.008
86320W        W90281  21.742   7.406   5.305
86321W        W90282  18.961   9.278   3.773
86322W        W90283  18.616   8.311   3.952
86323W        W90284  18.678  10.267   4.746
86324W        W90285  19.809   9.750   4.994
86325W        W90286  21.141  10.609   6.708
86326W        W90287  20.067   8.251   4.392
86327W        W90288  21.450  10.649   5.164
86328W        W90289  21.127   8.502   6.762
86329W        W90290  21.840  10.158   4.896
86330W        W90291  20.467   9.450   6.380
86331W        W90292  18.233   9.001   4.586
86332W        W90293  19.344   9.416   6.159
86333W        W90294  20.548   8.680   4.537
86334W        W90295  20.425   9.170   4.641
86335W        W90296  18.768   8.590   6.115
86336W        W90297  18.753   8.466   7.037
86337W        W90298  18.643   7.383   5.196
86338W        W90299  20.411   7.730   5.757
86339W        W90300  20.059   7.915   6.920
86340W        W90301  20.414   8.064   4.098
86341W        W90302  21.597  10.457   6.852
86342W        W90303  20.564   7.538   6.891
86343W        W90304  21.583   9.839   7.013
86344W        W90305  21.013   8.006   6.609
86345W        W90306  20.813   7.944   4.879
86346W        W90307  21.206   9.078   7.283
86347W        W90308  18.946  10.654   5.269
86348W        W90309  19.604   8.371   4.255
86349W        W90310  19.173   7.655   6.919
86350W        W90311  21.225   8.139   4.600
86351W        W90312  21.592   8.621   4.545
86352W        W90313  19.335  10.838   7.016
86353W        W90314  19.261   7.374   4.251
86354W        W90315  21.582   7.908   5.286
86355W        W90316  21.732  10.157   3.731
86356W        W90317  18.639   9.360   5.433
86357W        W90318  20.556   7.947   3.663
86358W        W90319  21.690  10.279   5.383
86359W        W90320  21.729   7.473   6.133
86360W        W90321  20.174   8.685   6.687
86361W        W90322  20.267  10.024   4.390
86362W        W90323  20.667   9.318   7.130
86363W        W90324  20.341   7.295   5.439
86364W        W90325  18.953   8.198   5.502
86365W        W90326  18.507   9.398   6.276
86366W        W90327  20.366  10.591   4.982
86367W        W90328  21.560   8.188   5.854
86368W        W90329  20.197  10.535   6.621
86369W        W90330  21.540   9.594   3.826
86370W        W90331  19.975   9.077   4.887
86371W        W90332  21.827   7.588   6.628
86372W        W90333  19.976   9.423   6.222
86373W        W90334  20.193   8.309   5.667
86374W        W90335  21.045   8.607   4.505
86375W        W90336  21.332   8.340   4.147
86376W        W90337  21.141  10.380   4.536
86377W        W90338  20.975   9.983   5.332
86378W        W90339  20.871   9.062   4.310
86379W        W90340  20.304   9.272   5.296
86380W        W90341  21.185   9.060   5.363
86381W        W90342  18.560   8.075   5.787
86382W        W90343  21.338   9.127   6.614
86383W        W90344  21.689  10.745   5.760
86384W        W90345  19.619  10.189   5.162
86385W        W90346  20.626  10.722   6.486
86386W        W90347  20.620   8.052   6.250
86387W        W90348  19.827  10.760   6.311
86388W        W90349  21.524   7.714   4.777
86389W        W90350  21.315   9.033   6.078
86390W        W90351  18.298   8.354   6.116
86391W        W90352  21.158   8.149   5.134
86392W        W90353  21.569   8.300   6.911
86393W        W90354  20.454   9.999   5.129
86394W        W90355  19.710  10.590   4.742
86395W        W90356  18.825   7.770   4.000
86396W        W90357  19.929   7.424   5.810
86397W        W90358  18.957  10.544   3.658
86398W        W90359  19.331   9.010   4.409
86399W        W90360  19.985   9.639   6.722
86400W        W90361  19.815   7.997   4.712
86401W        W90362  21.171   7.594   5.140
86402W        W90363  20.891  10.876   5.468
86403W        W90364  20.303  10.524   5.808
86404W        W90365  19.699   9.561   5.769
86405W        W90366  21.469  10.284   5.895
86406W        W90367  19.163   7.787   4.664
86407W        W90368  19.685  10.084   5.624
86408W        W90369  19.168   8.015   3.689
86409W        W90370  19.969   8.624   6.083
86410W        W90371  20.817   7.490   5.953
86411W        W90372  18.237   9.333   5.838
86412W        W90373  19.941   9.151   3.996
86413W        W90374  19.209   7.466   3.766
86414W        W90375  19.947   8.547   4.817
86415W        W90376  20.917   7.523   6.516
86416W        W90377  19.505   9.535   6.625
86417W        W90378  20.309   9.317   6.842
86418W        W90379  20.926   9.347   6.735
86419W        W90380  20.210   7.487   7.240
86420W        W90381  19.432   8.103   5.633
86421W        W90382  18.858   8.059   5.031
86422W        W90383  18.644  10.771   4.707
86423W        W90384  19.976  10.101   6.832
86424W        W90385  19.011   9.586   4.191
86425W        W90386  20.691   8.971   5.412
86426W        W90387  20.971   8.770   5.811
86427W        W90388  20.176   9.444   5.745
86428W        W90389  20.646   9.818   3.877
86429W        W90390  20.318   7.839   5.205
86430W        W90391  21.797   8.117   4.473
86431W        W90392  18.291  10.706   6.504
86432W        W90393  18.708   9.932   6.036
86433W        W90394  18.275  10.778   4.268
86434W        W90395  20.174   8.048   6.074
86435W        W90396  19.537  10.071   3.923
86436W        W90397  21.442  10.453   4.109
86437W        W90398  20.417   9.106   4.123
86438W        W90399  19.260   8.297   4.640
86439W        W90400  20.092   8.207   3.692
86440W        W90401  20.676   9.772   6.870
86441W        W90402  21.029   7.678   4.487
86442W        W90403  18.359   7.526   3.935
86443W        W90404  19.645   9.845   6.225
86444W        W90405  19.444   9.761   5.317
86445W        W90406  19.186   9.713   3.715
86446W        W90407  18.427   9.954   4.483
86447W        W90408  18.931   9.024   6.925
86448W        W90409  19.635   7.584   7.111
86449W        W90410  20.344   7.726   6.467
86450W        W90411  19.539   7.494   4.748
86451W        W90412  20.598   7.571   4.253
86452W        W90413  18.543   7.503   5.830
86453W        W90414  18.591   8.466   5.200
86454W        W90415  21.280   7.574   5.606
86455W        W90416  18.702   8.072   4.420
86456W        W90417  21.273   7.760   6.036
86457W        W90418  21.669   8.963   3.721
86458W        W90419  18.961   7.721   5.540
86459W        W90420  20.075   8.293   6.480
86460W        W90421  18.223   7.983   3.958
86461W        W90422  19.009   9.372   6.519
86462W        W90423  20.367   8.770   5.698
86463W        W90424  20.234  10.849   3.994
86464W        W90425  18.380   9.356   3.691
86465W        W90426  19.115   9.767   6.817
86466W        W90427  18.636   8.934   6.448
86467W        W90428  19.627   9.039   6.242
86468W        W90429  21.395   7.398   6.504
86469W        W90430  21.793   9.008   6.495
86470W        W90431  21.781   9.208   4.181
86471W        W90432  20.644   9.540   4.280
86472W        W90433  21.118  10.840   3.975
86473W        W90434  20.295   8.830   7.117
86474W        W90435  18.625   9.797   7.157
86475W        W90436  21.831   7.719   7.109
86476W        W90437  21.549   8.647   5.730
86477W        W90438  19.857  10.777   7.207
86478W        W90439  19.712   7.406   3.934
86479W        W90440  21.251  10.005   3.877
86480W        W90441  19.020   8.098   6.763
86481W        W90442  19.454  10.092   6.625
86482W        W90443  21.580   8.083   6.423
86483W        W90444  20.791  10.742   4.391
86484W        W90445  21.030   9.361   5.758
86485W        W90446  19.280   7.777   6.425
86486W        W90447  19.749   8.846   7.182
86487W        W90448  19.252  10.025   4.376
86488W        W90449  21.007   9.523   4.640
86489W        W90450  18.775   8.149   6.364
86490W        W90451  20.104  10.211   4.828
86491W        W90452  21.854   8.771   5.009
86492W        W90453  20.076   7.404   6.728
86493W        W90454  20.856  10.109   5.807
86494W        W90455  21.159  10.453   5.515
86495W        W90456  20.378  10.255   3.943
86496W        W90457  18.388  10.147   6.785
86497W        W90458  19.131   8.139   6.023
86498W        W90459  19.101   7.487   5.133
86499W        W90460  20.722   8.329   5.825
86500W        W90461  19.520   9.500   4.025
86501W        W90462  21.518   9.442   5.524
86502W        W90463  18.845  10.200   6.947
86503W        W90464  21.232  10.882   4.744
86504W        W90465  19.331   7.902   5.189
86505W        W90466  19.100   9.395   5.279
86506W        W90467  19.413  10.806   6.029
86507W        W90468  21.480  10.902   7.061
86508W        W90469  20.639   9.090   5.994
86509W        W90470  18.488   8.888   3.909
86510W        W90471  21.622  10.546   4.606
86511W        W90472  21.459   7.870   4.225
86512W        W90473  19.598   7.389   6.628
86513W        W90474  21.304  10.191   5.086
86514W        W90475  21.333   8.747   4.991
86515W        W90476  19.450   8.420   5.207
86516W        W90477  19.695   8.682   6.531
86517W        W90478  20.806   9.835   6.394
86518W        W90479  19.456   8.289   6.506
86519W        W90480  19.435  10.755   5.122
86520W        W90481  18.752  10.714   6.756
86521W        W90482  18.864  10.075   3.886
86522W        W90483  21.381   9.833   4.696
86523W        W90484  18.985   8.625   6.582
86524W        W90485  21.758   8.555   4.063
86525W        W90486  19.503   9.612   4.534
86526W        W90487  20.602   8.994   6.615
86527W        W90488  20.493   8.622   6.159
86528W        W90489  19.053   8.994   6.188
86529W        W90490  21.263  10.882   6.017
86530W        W90491  21.054   7.516   7.011
86531W        W90492  18.718   7.666   6.598
86532W        W90493  19.057   8.689   5.651
86533W        W90494  19.426   8.503   3.773
86534W        W90495  18.229  10.262   6.318
86535W        W90496  19.814   8.971   5.761
86536W        W90497  19.637   7.996   3.866
86537W        W90498  18.772   8.812   4.647
86538W        W90499  18.543  10.664   6.084
86539W        W90500  21.338   8.890   4.192
86540W        W90501  21.433   7.806   6.878
86541W        W90502  20.869  10.015   4.841
86542W        W90503  18.467   8.939   7.018
86543W        W90504  21.433   7.403   4.314
86544W        W90505  20.953   9.878   4.325
86545W        W90506  19.855   8.936   4.410
86546W        W90507  21.042   7.740   3.933
86547W        W90508  21.107   8.347   6.119
86548W        W90509  18.816   8.940   5.326
86549W        W90510  19.110   9.879   4.975
86550W        W90511  20.873   8.499   4.940
86551W        W90512  19.896   7.878   5.636
86552W        W90513  21.858   9.789   6.147
86553W        W90514  21.776   7.776   5.708
86554W        W90515  18.315  10.606   5.084
86555W        W90516  18.824   9.793   4.620
86556W        W90517  18.739   7.410   7.173
86557W        W90518  19.858  10.263   7.275
86558W        W90519  21.613   9.231   5.065
86559W        W90520  20.967   9.408   3.945
86560W        W90521  20.262  10.929   6.157
86561W        W90522  21.119   9.651   7.194
86562W        W90523  19.934   7.361   4.474
86563W        W90524  20.647   8.230   5.333
86564W        W90525  18.333   9.817   5.665
86565W        W90526  19.586   7.779   4.306
86566W        W90527  19.390   9.263   7.155
86567W        W90528  20.384   8.244   4.869
86568W        W90529  20.589   9.654   5.991
86569W        W90530  18.743  10.259   6.426
86570W        W90531  19.334  10.242   7.149
86571W        W90532  19.185   8.039   4.163
86572W        W90533  20.702   8.181   4.488
86573W        W90534  20.660  10.289   6.725
86574W        W90535  19.345   8.881   5.324
86575W        W90536  19.000  10.579   6.189
86576W        W90537  21.745  10.696   3.790
86577W        W90538  18.608   9.368   6.786
86578W        W90539  20.603   9.630   5.474
86579W        W90540  19.039   9.279   4.716
86580W        W90541  19.410  10.286   6.111
86581W        W90542  19.788   7.705   5.152
86582W        W90543  18.399   9.689   4.082
86583W        W90544  19.918   8.640   3.952
86584W        W90545  18.564   9.189   4.971
86585W        W90546  19.854   7.831   6.435
86586W        W90547  21.526   7.540   3.862
86587W        W90548  21.619   9.286   6.961
86588W        W90549  20.273  10.543   7.113
86589W        W90550  21.831   9.637   6.635
86590W        W90551  21.239  10.435   7.246
86591W        W90552  18.978  10.891   5.724
86592W        W90553  21.837   9.513   4.598
86593W        W90554  20.367   8.780   5.111
86594W        W90555  20.134   7.392   5.001
86595W        W90556  19.193  10.376   4.838
86596W        W90557  19.692   8.117   6.063
86597W        W90558  19.392   7.486   5.532
86598W        W90559  18.455  10.308   4.080
86599W        W90560  20.271   9.672   4.798
86600W        W90561  19.146  10.467   6.677
86601W        W90562  18.623   9.290   4.373
86602W        W90563  18.508   7.833   5.372
86603W        W90564  20.056   9.798   5.429
86604W        W90565  18.308   7.652   4.449
86605W        W90566  20.972   8.858   6.376
86606W        W90567  20.849   8.244   3.948
86607W        W90568  21.366   9.916   5.596
86608W        W90569  20.027  10.400   5.427
86609W        W90570  19.439  10.504   4.338
86610W        W90571  20.721   7.407   3.768
86611W        W90572  18.521  10.667   5.509
86612W        W90573  20.718   8.425   7.144
86613W        W90574  18.701   7.955   7.143
86614W        W90575  18.432   8.555   4.476
86615W        W90576  19.123   8.544   4.201
86616W        W90577  20.886   8.871   7.018
86617W        W90578  19.229   9.152   5.727
86618W        W90579  20.703   7.438   4.847
86619W        W90580  19.834  10.869   5.350
86620W        W90581  21.048  10.331   6.287
86621W        W90582  20.632  10.480   5.398
86622W        W90583  20.651   9.460   4.992
86623W        W90584  20.113   7.685   4.063
86624W        W90585  21.794   7.313   4.785
86625W        W90586  19.482   8.948   3.948
86626W        W90587  21.648   8.285   4.938
86627W        W90588  20.340   9.455   3.815
86628W        W90589  21.276   9.655   6.563
86629W        W90590  20.930  10.356   4.030
86630W        W90591  19.545   8.031   6.936
86631W        W90592  19.365   8.615   6.177
86632W        W90593  21.457  10.110   6.454
86633W        W90594  20.557   8.060   6.831
86634W        W90595  18.401   8.531   6.608
86635W        W90596  20.161   9.008   6.334
86636W        W90597  18.518   9.766   4.991
86637W        W90598  18.665   9.063   5.881
86638W        W90599  20.982   9.349   6.231
86639W        W90600  20.754  10.729   7.042
86640W        W90601  20.650   8.468   6.595
86641W        W90602  20.927  10.522   5.000
86642W        W90603  19.929  10.242   6.323
86643W        W90604  19.414  10.597   5.592
86644W        W90605  21.219   9.768   6.011
86645W        W90606  20.269   9.840   7.148
86646W        W90607  18.874   9.793   5.487
86647W        W90608  21.220   9.552   5.132
86648W        W90609  20.861  10.618   5.883
86649W        W90610  18.839  10.347   5.753
86650W        W90611  19.860   8.399   6.963
86651W        W90612  20.311  10.565   4.474
86652W        W90613  19.619   9.820   7.112
86653W        W90614  19.745  10.058   4.489
86654W        W90615  18.966   8.798   3.748
86655W        W90616  18.305  10.884  10.648
86656W        W90617  18.681   9.777  10.171
86657W        W90618  21.386   9.507   7.941
86658W        W90619  21.516  10.592   9.968
86659W        W90620  19.434  10.583   7.494
86660W        W90621  19.517   8.735   8.477
86661W        W90622  19.032   8.583   8.641
86662W        W90623  20.023   9.398   8.075
86663W        W90624  19.698  10.490  10.430
86664W        W90625  18.347   8.051  10.393
86665W        W90626  19.109   7.331  10.195
86666W        W90627  20.803   7.719   9.082
86667W        W90628  20.452   8.590   7.652
86668W        W90629  21.022   8.024  10.743
86669W        W90630  18.388   7.816   9.868
86670W        W90631  18.487  10.435  10.889
86671W        W90632  20.009   9.825   7.621
86672W        W90633  18.441   8.608   9.314
86673W        W90634  19.334   8.499  10.551
86674W        W90635  21.793   8.358   9.050
86675W        W90636  21.557   9.401   9.909
86676W        W90637  19.865   8.734   8.936
86677W        W90638  20.411  10.073   9.305
86678W        W90639  18.911   9.507   9.537
86679W        W90640  18.270   9.035   9.108
86680W        W90641  19.306   9.007  10.300
86681W        W90642  21.577   8.790  10.554
86682W        W90643  19.193  10.234   8.999
86683W        W90644  20.314   9.923  10.133
86684W        W90645  19.534   8.563   9.358
86685W        W90646  19.826   9.347   9.001
86686W        W90647  20.823  10.120  10.849
86687W        W90648  19.902   9.440  10.859
86688W        W90649  19.883   9.156  10.337
86689W        W90650  18.292   8.547  10.859
86690W        W90651  21.124  10.082  10.458
86691W        W90652  18.705   7.664   8.456
86692W        W90653  19.232   9.922   9.455
86693W        W90654  21.695   9.705   8.745
86694W        W90655  21.108   8.105   9.312
86695W        W90656  21.393   8.058   7.407
86696W        W90657  21.858   8.859   9.713
86697W        W90658  19.825  10.566   9.466
86698W        W90659  21.599  10.032   7.904
86699W        W90660  18.728  10.818   7.658
86700W        W90661  19.121  10.864   8.334
86701W        W90662  18.918   7.618   9.760
86702W        W90663  21.541   8.636  10.035
86703W        W90664  20.946   9.058   8.494
86704W        W90665  20.912   8.746   7.521
86705W        W90666  20.120   9.890   9.661
86706W        W90667  19.926   8.220   8.860
86707W        W90668  20.526  10.307   9.854
86708W        W90669  21.397   9.098   8.276
86709W        W90670  20.299   7.756   8.292
86710W        W90671  18.956  10.450   7.975
86711W        W90672  18.327   7.949   8.574
86712W        W90673  21.113   8.556   9.048
86713W        W90674  18.571  10.173   8.963
86714W        W90675  19.912  10.523   7.833
86715W        W90676  21.304   8.549   7.297
86716W        W90677  18.327  10.307   9.461
86717W        W90678  19.118   9.879   9.941
86718W        W90679  19.491   9.239   8.560
86719W        W90680  19.513   7.644   9.653
86720W        W90681  21.742   7.406   8.950
86721W        W90682  18.961   9.278   7.418
86722W        W90683  18.616   8.311   7.597
86723W        W90684  18.678  10.267   8.391
86724W        W90685  19.809   9.750   8.639
86725W        W90686  21.141  10.609  10.353
86726W        W90687  20.067   8.251   8.037
86727W        W90688  21.450  10.649   8.809
86728W        W90689  21.127   8.502  10.407
86729W        W90690  21.840  10.158   8.541
86730W        W90691  20.467   9.450  10.025
86731W        W90692  18.233   9.001   8.231
86732W        W90693  19.344   9.416   9.804
86733W        W90694  20.548   8.680   8.182
86734W        W90695  20.425   9.170   8.286
86735W        W90696  18.768   8.590   9.760
86736W        W90697  18.753   8.466  10.682
86737W        W90698  18.643   7.383   8.841
86738W        W90699  20.411   7.730   9.402
86739W        W90700  20.059   7.915  10.565
86740W        W90701  20.414   8.064   7.743
86741W        W90702  21.597  10.457  10.497
86742W        W90703  20.564   7.538  10.536
86743W        W90704  21.583   9.839  10.658
86744W        W90705  21.013   8.006  10.254
86745W        W90706  20.813   7.944   8.524
86746W        W90707  21.206   9.078  10.928
86747W        W90708  18.946  10.654   8.914
86748W        W90709  19.604   8.371   7.900
86749W        W90710  19.173   7.655  10.564
86750W        W90711  21.225   8.139   8.245
86751W        W90712  21.592   8.621   8.190
86752W        W90713  19.335  10.838  10.661
86753W        W90714  19.261   7.374   7.896
86754W        W90715  21.582   7.908   8.931
86755W        W90716  21.732  10.157   7.376
86756W        W90717  18.639   9.360   9.078
86757W        W90718  20.556   7.947   7.308
86758W        W90719  21.690  10.279   9.028
86759W        W90720  21.729   7.473   9.778
86760W        W90721  20.174   8.685  10.332
86761W        W90722  20.267  10.024   8.035
86762W        W90723  20.667   9.318  10.775
86763W        W90724  20.341   7.295   9.084
86764W        W90725  18.953   8.198   9.147
86765W        W90726  18.507   9.398   9.921
86766W        W90727  20.366  10.591   8.627
86767W        W90728  21.560   8.188   9.499
86768W        W90729  20.197  10.535  10.266
86769W        W90730  21.540   9.594   7.471
86770W        W90731  19.975   9.077   8.532
86771W        W90732  21.827   7.588  10.273
86772W        W90733  19.976   9.423   9.867
86773W        W90734  20.193   8.309   9.312
86774W        W90735  21.045   8.607   8.150
86775W        W90736  21.332   8.340   7.792
86776W        W90737  21.141  10.380   8.181
86777W        W90738  20.975   9.983   8.977
86778W        W90739  20.871   9.062   7.955
86779W        W90740  20.304   9.272   8.941
86780W        W90741  21.185   9.060   9.008
86781W        W90742  18.560   8.075   9.432
86782W        W90743  21.338   9.127  10.259
86783W        W90744  21.689  10.745   9.405
86784W        W90745  19.619  10.189   8.807
86785W        W90746  20.626  10.722  10.131
86786W        W90747  20.620   8.052   9.895
86787W        W90748  19.827  10.760   9.956
86788W        W90749  21.524   7.714   8.422
86789W        W90750  21.315   9.033   9.723
86790W        W90751  18.298   8.354   9.761
86791W        W90752  21.158   8.149   8.779
86792W        W90753  21.569   8.300  10.556
86793W        W90754  20.454   9.999   8.774
86794W        W90755  19.710  10.590   8.387
86795W        W90756  18.825   7.770   7.645
86796W        W90757  19.929   7.424   9.455
86797W        W90758  18.957  10.544   7.303
86798W        W90759  19.331   9.010   8.054
86799W        W90760  19.985   9.639  10.367
86800W        W90761  19.815   7.997   8.357
86801W        W90762  21.171   7.594   8.785
86802W        W90763  20.891  10.876   9.113
86803W        W90764  20.303  10.524   9.453
86804W        W90765  19.699   9.561   9.414
86805W        W90766  21.469  10.284   9.540
86806W        W90767  19.163   7.787   8.309
86807W        W90768  19.685  10.084   9.269
86808W        W90769  19.168   8.015   7.334
86809W        W90770  19.969   8.624   9.728
86810W        W90771  20.817   7.490   9.598
86811W        W90772  18.237   9.333   9.483
86812W        W90773  19.941   9.151   7.641
86813W        W90774  19.209   7.466   7.411
86814W        W90775  19.947   8.547   8.462
86815W        W90776  20.917   7.523  10.161
86816W        W90777  19.505   9.535  10.270
86817W        W90778  20.309   9.317  10.487
86818W        W90779  20.926   9.347  10.380
86819W        W90780  20.210   7.487  10.885
86820W        W90781  19.432   8.103   9.278
86821W        W90782  18.858   8.059   8.676
86822W        W90783  18.644  10.771   8.352
86823W        W90784  19.976  10.101  10.477
86824W        W90785  19.011   9.586   7.836
86825W        W90786  20.691   8.971   9.057
86826W        W90787  20.971   8.770   9.456
86827W        W90788  20.176   9.444   9.390
86828W        W90789  20.646   9.818   7.522
86829W        W90790  20.318   7.839   8.850
86830W        W90791  21.797   8.117   8.118
86831W        W90792  18.291  10.706  10.149
86832W        W90793  18.708   9.932   9.681
86833W        W90794  18.275  10.778   7.913
86834W        W90795  20.174   8.048   9.719
86835W        W90796  19.537  10.071   7.568
86836W        W90797  21.442  10.453   7.754
86837W        W90798  20.417   9.106   7.768
86838W        W90799  19.260   8.297   8.285
86839W        W90800  20.092   8.207   7.337
86840W        W90801  20.676   9.772  10.515
86841W        W90802  21.029   7.678   8.132
86842W        W90803  18.359   7.526   7.580
86843W        W90804  19.645   9.845   9.870
86844W        W90805  19.444   9.761   8.962
86845W        W90806  19.186   9.713   7.360
86846W        W90807  18.427   9.954   8.128
86847W        W90808  18.931   9.024  10.570
86848W        W90809  19.635   7.584  10.756
86849W        W90810  20.344   7.726  10.112
86850W        W90811  19.539   7.494   8.393
86851W        W90812  20.598   7.571   7.898
86852W        W90813  18.543   7.503   9.475
86853W        W90814  18.591   8.466   8.845
86854W        W90815  21.280   7.574   9.251
86855W        W90816  18.702   8.072   8.065
86856W        W90817  21.273   7.760   9.681
86857W        W90818  21.669   8.963   7.366
86858W        W90819  18.961   7.721   9.185
86859W        W90820  20.075   8.293  10.125
86860W        W90821  18.223   7.983   7.603
86861W        W90822  19.009   9.372  10.164
86862W        W90823  20.367   8.770   9.343
86863W        W90824  20.234  10.849   7.639
86864W        W90825  18.380   9.356   7.336
86865W        W90826  19.115   9.767  10.462
86866W        W90827  18.636   8.934  10.093
86867W        W90828  19.627   9.039   9.887
86868W        W90829  21.395   7.398  10.149
86869W        W90830  21.793   9.008  10.140
86870W        W90831  21.781   9.208   7.826
86871W        W90832  20.644   9.540   7.925
86872W        W90833  21.118  10.840   7.620
86873W        W90834  20.295   8.830  10.762
86874W        W90835  18.625   9.797  10.802
86875W        W90836  21.831   7.719  10.754
86876W        W90837  21.549   8.647   9.375
86877W        W90838  19.857  10.777  10.852
86878W        W90839  19.712   7.406   7.579
86879W        W90840  21.251  10.005   7.522
86880W        W90841  19.020   8.098  10.408
86881W        W90842  19.454  10.092  10.270
86882W        W90843  21.580   8.083  10.068
86883W        W90844  20.791  10.742   8.036
86884W        W90845  21.030   9.361   9.403
86885W        W90846  19.280   7.777  10.070
86886W        W90847  19.749   8.846  10.827
86887W        W90848  19.252  10.025   8.021
86888W        W90849  21.007   9.523   8.285
86889W        W90850  18.775   8.149  10.009
86890W        W90851  20.104  10.211   8.473
86891W        W90852  21.854   8.771   8.654
86892W        W90853  20.076   7.404  10.373
86893W        W90854  20.856  10.109   9.452
86894W        W90855  21.159  10.453   9.160
86895W        W90856  20.378  10.255   7.588
86896W        W90857  18.388  10.147  10.430
86897W        W90858  19.131   8.139   9.668
86898W        W90859  19.101   7.487   8.778
86899W        W90860  20.722   8.329   9.470
86900W        W90861  19.520   9.500   7.670
86901W        W90862  21.518   9.442   9.169
86902W        W90863  18.845  10.200  10.592
86903W        W90864  21.232  10.882   8.389
86904W        W90865  19.331   7.902   8.834
86905W        W90866  19.100   9.395   8.924
86906W        W90867  19.413  10.806   9.674
86907W        W90868  21.480  10.902  10.706
86908W        W90869  20.639   9.090   9.639
86909W        W90870  18.488   8.888   7.554
86910W        W90871  21.622  10.546   8.251
86911W        W90872  21.459   7.870   7.870
86912W        W90873  19.598   7.389  10.273
86913W        W90874  21.304  10.191   8.731
86914W        W90875  21.333   8.747   8.636
86915W        W90876  19.450   8.420   8.852
86916W        W90877  19.695   8.682  10.176
86917W        W90878  20.806   9.835  10.039
86918W        W90879  19.456   8.289  10.151
86919W        W90880  19.435  10.755   8.767
86920W        W90881  18.752  10.714  10.401
86921W        W90882  18.864  10.075   7.531
86922W        W90883  21.381   9.833   8.341
86923W        W90884  18.985   8.625  10.227
86924W        W90885  21.758   8.555   7.708
86925W        W90886  19.503   9.612   8.179
86926W        W90887  20.602   8.994  10.260
86927W        W90888  20.493   8.622   9.804
86928W        W90889  19.053   8.994   9.833
86929W        W90890  21.263  10.882   9.662
86930W        W90891  21.054   7.516  10.656
86931W        W90892  18.718   7.666  10.243
86932W        W90893  19.057   8.689   9.296
86933W        W90894  19.426   8.503   7.418
86934W        W90895  18.229  10.262   9.963
86935W        W90896  19.814   8.971   9.406
86936W        W90897  19.637   7.996   7.511
86937W        W90898  18.772   8.812   8.292
86938W        W90899  18.543  10.664   9.729
86939W        W90900  21.338   8.890   7.837
86940W        W90901  21.433   7.806  10.523
86941W        W90902  20.869  10.015   8.486
86942W        W90903  18.467   8.939  10.663
86943W        W90904  21.433   7.403   7.959
86944W        W90905  20.953   9.878   7.970
86945W        W90906  19.855   8.936   8.055
86946W        W90907  21.042   7.740   7.578
86947W        W90908  21.107   8.347   9.764
86948W        W90909  18.816   8.940   8.971
86949W        W90910  19.110   9.879   8.620
86950W        W90911  20.873   8.499   8.585
86951W        W90912  19.896   7.878   9.281
86952W        W90913  21.858   9.789   9.792
86953W        W90914  21.776   7.776   9.353
86954W        W90915  18.315  10.606   8.729
86955W        W90916  18.824   9.793   8.265
86956W        W90917  18.739   7.410  10.818
86957W        W90918  19.858  10.263  10.920
86958W        W90919  21.613   9.231   8.710
86959W        W90920  20.967   9.408   7.590
86960W        W90921  20.262  10.929   9.802
86961W        W90922  21.119   9.651  10.839
86962W        W90923  19.934   7.361   8.119
86963W        W90924  20.647   8.230   8.978
86964W        W90925  18.333   9.817   9.310
86965W        W90926  19.586   7.779   7.951
86966W        W90927  19.390   9.263  10.800
86967W        W90928  20.384   8.244   8.514
86968W        W90929  20.589   9.654   9.636
86969W        W90930  18.743  10.259  10.071
86970W        W90931  19.334  10.242  10.794
86971W        W90932  19.185   8.039   7.808
86972W        W90933  20.702   8.181   8.133
86973W        W90934  20.660  10.289  10.370
86974W        W90935  19.345   8.881   8.969
86975W        W90936  19.000  10.579   9.834
86976W        W90937  21.745  10.696   7.435
86977W        W90938  18.608   9.368  10.431
86978W        W90939  20.603   9.630   9.119
86979W        W90940  19.039   9.279   8.361
86980W        W90941  19.410  10.286   9.756
86981W        W90942  19.788   7.705   8.797
86982W        W90943  18.399   9.689   7.727
86983W        W90944  19.918   8.640   7.597
86984W        W90945  18.564   9.189   8.616
86985W        W90946  19.854   7.831  10.080
86986W        W90947  21.526   7.540   7.507
86987W        W90948  21.619   9.286  10.606
86988W        W90949  20.273  10.543  10.758
86989W        W90950  21.831   9.637  10.280
86990W        W90951  21.239  10.435  10.891
86991W        W90952  18.978  10.891   9.369
86992W        W90953  21.837   9.513   8.243
86993W        W90954  20.367   8.780   8.756
86994W        W90955  20.134   7.392   8.646
86995W        W90956  19.193  10.376   8.483
86996W        W90957  19.692   8.117   9.708
86997W        W90958  19.392   7.486   9.177
86998W        W90959  18.455  10.308   7.725
86999W        W90960  20.271   9.672   8.443
87000W        W90961  19.146  10.467  10.322
87001W        W90962  18.623   9.290   8.018
87002W        W90963  18.508   7.833   9.017
87003W        W90964  20.056   9.798   9.074
87004W        W90965  18.308   7.652   8.094
87005W        W90966  20.972   8.858  10.021
87006W        W90967  20.849   8.244   7.593
87007W        W90968  21.366   9.916   9.241
87008W        W90969  20.027  10.400   9.072
87009W        W90970  19.439  10.504   7.983
87010W        W90971  20.721   7.407   7.413
87011W        W90972  18.521  10.667   9.154
87012W        W90973  20.718   8.425  10.789
87013W        W90974  18.701   7.955  10.788
87014W        W90975  18.432   8.555   8.121
87015W        W90976  19.123   8.544   7.846
87016W        W90977  20.886   8.871  10.663
87017W        W90978  19.229   9.152   9.372
87018W        W90979  20.703   7.438   8.492
87019W        W90980  19.834  10.869   8.995
87020W        W90981  21.048  10.331   9.932
87021W        W90982  20.632  10.480   9.043
87022W        W90983  20.651   9.460   8.637
87023W        W90984  20.113   7.685   7.708
87024W        W90985  21.794   7.313   8.430
87025W        W90986  19.482   8.948   7.593
87026W        W90987  21.648   8.285   8.583
87027W        W90988  20.340   9.455   7.460
87028W        W90989  21.276   9.655  10.208
87029W        W90990  20.930  10.356   7.675
87030W        W90991  19.545   8.031  10.581
87031W        W90992  19.365   8.615   9.822
87032W        W90993  21.457  10.110  10.099
87033W        W90994  20.557   8.060  10.476
87034W        W90995  18.401   8.531  10.253
87035W        W90996  20.161   9.008   9.979
87036W        W90997  18.518   9.766   8.636
87037W        W90998  18.665   9.063   9.526
87038W        W90999  20.982   9.349   9.876
87039W        W91000  20.754  10.729  10.687
87040W        W91001  20.650   8.468  10.240
87041W        W91002  20.927  10.522   8.645
87042W        W91003  19.929  10.242   9.968
87043W        W91004  19.414  10.597   9.237
87044W        W91005  21.219   9.768   9.656
87045W        W91006  20.269   9.840  10.793
87046W        W91007  18.874   9.793   9.132
87047W        W91008  21.220   9.552   8.777
87048W        W91009  20.861  10.618   9.528
87049W        W91010  18.839  10.347   9.398
87050W        W91011  19.860   8.399  10.608
87051W        W91012  20.311  10.565   8.119
87052W        W91013  19.619   9.820  10.757
87053W        W91014  19.745  10.058   8.134
87054W        W91015  18.966   8.798   7.393
87055W        W91016  18.305  10.884  14.292
87056W        W91017  18.681   9.777  13.815
87057W        W91018  21.386   9.507  11.585
87058W        W91019  21.516  10.592  13.612
87059W        W91020  19.434  10.583  11.138
87060W        W91021  19.517   8.735  12.121
87061W        W91022  19.032   8.583  12.285
87062W        W91023  20.023   9.398  11.719
87063W        W91024  19.698  10.490  14.074
87064W        W91025  18.347   8.051  14.037
87065W        W91026  19.109   7.331  13.839
87066W        W91027  20.803   7.719  12.726
87067W        W91028  20.452   8.590  11.296
87068W        W91029  21.022   8.024  14.387
87069W        W91030  18.388   7.816  13.512
87070W        W91031  18.487  10.435  14.533
87071W        W91032  20.009   9.825  11.265
87072W        W91033  18.441   8.608  12.958
87073W        W91034  19.334   8.499  14.195
87074W        W91035  21.793   8.358  12.694
87075W        W91036  21.557   9.401  13.553
87076W        W91037  19.865   8.734  12.580
87077W        W91038  20.411  10.073  12.949
87078W        W91039  18.911   9.507  13.181
87079W        W91040  18.270   9.035  12.752
87080W        W91041  19.306   9.007  13.944
87081W        W91042  21.577   8.790  14.198
87082W        W91043  19.193  10.234  12.643
87083W        W91044  20.314   9.923  13.777
87084W        W91045  19.534   8.563  13.002
87085W        W91046  19.826   9.347  12.645
87086W        W91047  20.823  10.120  14.493
87087W        W91048  19.902   9.440  14.503
87088W        W91049  19.883   9.156  13.981
87089W        W91050  18.292   8.547  14.503
87090W        W91051  21.124  10.082  14.102
87091W        W91052  18.705   7.664  12.100
87092W        W91053  19.232   9.922  13.099
87093W        W91054  21.695   9.705  12.389
87094W        W91055  21.108   8.105  12.956
87095W        W91056  21.393   8.058  11.051
87096W        W91057  21.858   8.859  13.357
87097W        W91058  19.825  10.566  13.110
87098W        W91059  21.599  10.032  11.548
87099W        W91060  18.728  10.818  11.302
87100W        W91061  19.121  10.864  11.978
87101W        W91062  18.918   7.618  13.404
87102W        W91063  21.541   8.636  13.679
87103W        W91064  20.946   9.058  12.138
87104W        W91065  20.912   8.746  11.165
87105W        W91066  20.120   9.890  13.305
87106W        W91067  19.926   8.220  12.504
87107W        W91068  20.526  10.307  13.498
87108W        W91069  21.397   9.098  11.920
87109W        W91070  20.299   7.756  11.936
87110W        W91071  18.956  10.450  11.619
87111W        W91072  18.327   7.949  12.218
87112W        W91073  21.113   8.556  12.692
87113W        W91074  18.571  10.173  12.607
87114W        W91075  19.912  10.523  11.477
87115W        W91076  21.304   8.549  10.941
87116W        W91077  18.327  10.307  13.105
87117W        W91078  19.118   9.879  13.585
87118W        W91079  19.491   9.239  12.204
87119W        W91080  19.513   7.644  13.297
87120W        W91081  21.742   7.406  12.594
87121W        W91082  18.961   9.278  11.062
87122W        W91083  18.616   8.311  11.241
87123W        W91084  18.678  10.267  12.035
87124W        W91085  19.809   9.750  12.283
87125W        W91086  21.141  10.609  13.997
87126W        W91087  20.067   8.251  11.681
87127W        W91088  21.450  10.649  12.453
87128W        W91089  21.127   8.502  14.051
87129W        W91090  21.840  10.158  12.185
87130W        W91091  20.467   9.450  13.669
87131W        W91092  18.233   9.001  11.875
87132W        W91093  19.344   9.416  13.448
87133W        W91094  20.548   8.680  11.826
87134W        W91095  20.425   9.170  11.930
87135W        W91096  18.768   8.590  13.404
87136W        W91097  18.753   8.466  14.326
87137W        W91098  18.643   7.383  12.485
87138W        W91099  20.411   7.730  13.046
87139W        W91100  20.059   7.915  14.209
87140W        W91101  20.414   8.064  11.387
87141W        W91102  21.597  10.457  14.141
87142W        W91103  20.564   7.538  14.180
87143W        W91104  21.583   9.839  14.302
87144W        W91105  21.013   8.006  13.898
87145W        W91106  20.813   7.944  12.168
87146W        W91107  21.206   9.078  14.572
87147W        W91108  18.946  10.654  12.558
87148W        W91109  19.604   8.371  11.544
87149W        W91110  19.173   7.655  14.208
87150W        W91111  21.225   8.139  11.889
87151W        W91112  21.592   8.621  11.834
87152W        W91113  19.335  10.838  14.305
87153W        W91114  19.261   7.374  11.540
87154W        W91115  21.582   7.908  12.575
87155W        W91116  21.732  10.157  11.020
87156W        W91117  18.639   9.360  12.722
87157W        W91118  20.556   7.947  10.952
87158W        W91119  21.690  10.279  12.672
87159W        W91120  21.729   7.473  13.422
87160W        W91121  20.174   8.685  13.976
87161W        W91122  20.267  10.024  11.679
87162W        W91123  20.667   9.318  14.419
87163W        W91124  20.341   7.295  12.728
87164W        W91125  18.953   8.198  12.791
87165W        W91126  18.507   9.398  13.565
87166W        W91127  20.366  10.591  12.271
87167W        W91128  21.560   8.188  13.143
87168W        W91129  20.197  10.535  13.910
87169W        W91130  21.540   9.594  11.115
87170W        W91131  19.975   9.077  12.176
87171W        W91132  21.827   7.588  13.917
87172W        W91133  19.976   9.423  13.511
87173W        W91134  20.193   8.309  12.956
87174W        W91135  21.045   8.607  11.794
87175W        W91136  21.332   8.340  11.436
87176W        W91137  21.141  10.380  11.825
87177W        W91138  20.975   9.983  12.621
87178W        W91139  20.871   9.062  11.599
87179W        W91140  20.304   9.272  12.585
87180W        W91141  21.185   9.060  12.652
87181W        W91142  18.560   8.075  13.076
87182W        W91143  21.338   9.127  13.903
87183W        W91144  21.689  10.745  13.049
87184W        W91145  19.619  10.189  12.451
87185W        W91146  20.626  10.722  13.775
87186W        W91147  20.620   8.052  13.539
87187W        W91148  19.827  10.760  13.600
87188W        W91149  21.524   7.714  12.066
87189W        W91150  21.315   9.033  13.367
87190W        W91151  18.298   8.354  13.405
87191W        W91152  21.158   8.149  12.423
87192W        W91153  21.569   8.300  14.200
87193W        W91154  20.454   9.999  12.418
87194W        W91155  19.710  10.590  12.031
87195W        W91156  18.825   7.770  11.289
87196W        W91157  19.929   7.424  13.099
87197W        W91158  18.957  10.544  10.947
87198W        W91159  19.331   9.010  11.698
87199W        W91160  19.985   9.639  14.011
87200W        W91161  19.815   7.997  12.001
87201W        W91162  21.171   7.594  12.429
87202W        W91163  20.891  10.876  12.757
87203W        W91164  20.303  10.524  13.097
87204W        W91165  19.699   9.561  13.058
87205W        W91166  21.469  10.284  13.184
87206W        W91167  19.163   7.787  11.953
87207W        W91168  19.685  10.084  12.913
87208W        W91169  19.168   8.015  10.978
87209W        W91170  19.969   8.624  13.372
87210W        W91171  20.817   7.490  13.242
87211W        W91172  18.237   9.333  13.127
87212W        W91173  19.941   9.151  11.285
87213W        W91174  19.209   7.466  11.055
87214W        W91175  19.947   8.547  12.106
87215W        W91176  20.917   7.523  13.805
87216W        W91177  19.505   9.535  13.914
87217W        W91178  20.309   9.317  14.131
87218W        W91179  20.926   9.347  14.024
87219W        W91180  20.210   7.487  14.529
87220W        W91181  19.432   8.103  12.922
87221W        W91182  18.858   8.059  12.320
87222W        W91183  18.644  10.771  11.996
87223W        W91184  19.976  10.101  14.121
87224W        W91185  19.011   9.586  11.480
87225W        W91186  20.691   8.971  12.701
87226W        W91187  20.971   8.770  13.100
87227W        W91188  20.176   9.444  13.034
87228W        W91189  20.646   9.818  11.166
87229W        W91190  20.318   7.839  12.494
87230W        W91191  21.797   8.117  11.762
87231W        W91192  18.291  10.706  13.793
87232W        W91193  18.708   9.932  13.325
87233W        W91194  18.275  10.778  11.557
87234W        W91195  20.174   8.048  13.363
87235W        W91196  19.537  10.071  11.212
87236W        W91197  21.442  10.453  11.398
87237W        W91198  20.417   9.106  11.412
87238W        W91199  19.260   8.297  11.929
87239W        W91200  20.092   8.207  10.981
87240W        W91201  20.676   9.772  14.159
87241W        W91202  21.029   7.678  11.776
87242W        W91203  18.359   7.526  11.224
87243W        W91204  19.645   9.845  13.514
87244W        W91205  19.444   9.761  12.606
87245W        W91206  19.186   9.713  11.004
87246W        W91207  18.427   9.954  11.772
87247W        W91208  18.931   9.024  14.214
87248W        W91209  19.635   7.584  14.400
87249W        W91210  20.344   7.726  13.756
87250W        W91211  19.539   7.494  12.037
87251W        W91212  20.598   7.571  11.542
87252W        W91213  18.543   7.503  13.119
87253W        W91214  18.591   8.466  12.489
87254W        W91215  21.280   7.574  12.895
87255W        W91216  18.702   8.072  11.709
87256W        W91217  21.273   7.760  13.325
87257W        W91218  21.669   8.963  11.010
87258W        W91219  18.961   7.721  12.829
87259W        W91220  20.075   8.293  13.769
87260W        W91221  18.223   7.983  11.247
87261W        W91222  19.009   9.372  13.808
87262W        W91223  20.367   8.770  12.987
87263W        W91224  20.234  10.849  11.283
87264W        W91225  18.380   9.356  10.980
87265W        W91226  19.115   9.767  14.106
87266W        W91227  18.636   8.934  13.737
87267W        W91228  19.627   9.039  13.531
87268W        W91229  21.395   7.398  13.793
87269W        W91230  21.793   9.008  13.784
87270W        W91231  21.781   9.208  11.470
87271W        W91232  20.644   9.540  11.569
87272W        W91233  21.118  10.840  11.264
87273W        W91234  20.295   8.830  14.406
87274W        W91235  18.625   9.797  14.446
87275W        W91236  21.831   7.719  14.398
87276W        W91237  21.549   8.647  13.019
87277W        W91238  19.857  10.777  14.496
87278W        W91239  19.712   7.406  11.223
87279W        W91240  21.251  10.005  11.166
87280W        W91241  19.020   8.098  14.052
87281W        W91242  19.454  10.092  13.914
87282W        W91243  21.580   8.083  13.712
87283W        W91244  20.791  10.742  11.680
87284W        W91245  21.030   9.361  13.047
87285W        W91246  19.280   7.777  13.714
87286W        W91247  19.749   8.846  14.471
87287W        W91248  19.252  10.025  11.665
87288W        W91249  21.007   9.523  11.929
87289W        W91250  18.775   8.149  13.653
87290W        W91251  20.104  10.211  12.117
87291W        W91252  21.854   8.771  12.298
87292W        W91253  20.076   7.404  14.017
87293W        W91254  20.856  10.109  13.096
87294W        W91255  21.159  10.453  12.804
87295W        W91256  20.378  10.255  11.232
87296W        W91257  18.388  10.147  14.074
87297W        W91258  19.131   8.139  13.312
87298W        W91259  19.101   7.487  12.422
87299W        W91260  20.722   8.329  13.114
87300W        W91261  19.520   9.500  11.314
87301W        W91262  21.518   9.442  12.813
87302W        W91263  18.845  10.200  14.236
87303W        W91264  21.232  10.882  12.033
87304W        W91265  19.331   7.902  12.478
87305W        W91266  19.100   9.395  12.568
87306W        W91267  19.413  10.806  13.318
87307W        W91268  21.480  10.902  14.350
87308W        W91269  20.639   9.090  13.283
87309W        W91270  18.488   8.888  11.198
87310W        W91271  21.622  10.546  11.895
87311W        W91272  21.459   7.870  11.514
87312W        W91273  19.598   7.389  13.917
87313W        W91274  21.304  10.191  12.375
87314W        W91275  21.333   8.747  12.280
87315W        W91276  19.450   8.420  12.496
87316W        W91277  19.695   8.682  13.820
87317W        W91278  20.806   9.835  13.683
87318W        W91279  19.456   8.289  13.795
87319W        W91280  19.435  10.755  12.411
87320W        W91281  18.752  10.714  14.045
87321W        W91282  18.864  10.075  11.175
87322W        W91283  21.381   9.833  11.985
87323W        W91284  18.985   8.625  13.871
87324W        W91285  21.758   8.555  11.352
87325W        W91286  19.503   9.612  11.823
87326W        W91287  20.602   8.994  13.904
87327W        W91288  20.493   8.622  13.448
87328W        W91289  19.053   8.994  13.477
87329W        W91290  21.263  10.882  13.306
87330W        W91291  21.054   7.516  14.300
87331W        W91292  18.718   7.666  13.887
87332W        W91293  19.057   8.689  12.940
87333W        W91294  19.426   8.503  11.062
87334W        W91295  18.229  10.262  13.607
87335W        W91296  19.814   8.971  13.050
87336W        W91297  19.637   7.996  11.155
87337W        W91298  18.772   8.812  11.936
87338W        W91299  18.543  10.664  13.373
87339W        W91300  21.338   8.890  11.481
87340W        W91301  21.433   7.806  14.167
87341W        W91302  20.869  10.015  12.130
87342W        W91303  18.467   8.939  14.307
87343W        W91304  21.433   7.403  11.603
87344W        W91305  20.953   9.878  11.614
87345W        W91306  19.855   8.936  11.699
87346W        W91307  21.042   7.740  11.222
87347W        W91308  21.107   8.347  13.408
87348W        W91309  18.816   8.940  12.615
87349W        W91310  19.110   9.879  12.264
87350W        W91311  20.873   8.499  12.229
87351W        W91312  19.896   7.878  12.925
87352W        W91313  21.858   9.789  13.436
87353W        W91314  21.776   7.776  12.997
87354W        W91315  18.315  10.606  12.373
87355W        W91316  18.824   9.793  11.909
87356W        W91317  18.739   7.410  14.462
87357W        W91318  19.858  10.263  14.564
87358W        W91319  21.613   9.231  12.354
87359W        W91320  20.967   9.408  11.234
87360W        W91321  20.262  10.929  13.446
87361W        W91322  21.119   9.651  14.483
87362W        W91323  19.934   7.361  11.763
87363W        W91324  20.647   8.230  12.622
87364W        W91325  18.333   9.817  12.954
87365W        W91326  19.586   7.779  11.595
87366W        W91327  19.390   9.263  14.444
87367W        W91328  20.384   8.244  12.158
87368W        W91329  20.589   9.654  13.280
87369W        W91330  18.743  10.259  13.715
87370W        W91331  19.334  10.242  14.438
87371W        W91332  19.185   8.039  11.452
87372W        W91333  20.702   8.181  11.777
87373W        W91334  20.660  10.289  14.014
87374W        W91335  19.345   8.881  12.613
87375W        W91336  19.000  10.579  13.478
87376W        W91337  21.745  10.696  11.079
87377W        W91338  18.608   9.368  14.075
87378W        W91339  20.603   9.630  12.763
87379W        W91340  19.039   9.279  12.005
87380W        W91341  19.410  10.286  13.400
87381W        W91342  19.788   7.705  12.441
87382W        W91343  18.399   9.689  11.371
87383W        W91344  19.918   8.640  11.241
87384W        W91345  18.564   9.189  12.260
87385W        W91346  19.854   7.831  13.724
87386W        W91347  21.526   7.540  11.151
87387W        W91348  21.619   9.286  14.250
87388W        W91349  20.273  10.543  14.402
87389W        W91350  21.831   9.637  13.924
87390W        W91351  21.239  10.435  14.535
87391W        W91352  18.978  10.891  13.013
87392W        W91353  21.837   9.513  11.887
87393W        W91354  20.367   8.780  12.400
87394W        W91355  20.134   7.392  12.290
87395W        W91356  19.193  10.376  12.127
87396W        W91357  19.692   8.117  13.352
87397W        W91358  19.392   7.486  12.821
87398W        W91359  18.455  10.308  11.369
87399W        W91360  20.271   9.672  12.087
87400W        W91361  19.146  10.467  13.966
87401W        W91362  18.623   9.290  11.662
87402W        W91363  18.508   7.833  12.661
87403W        W91364  20.056   9.798  12.718
87404W        W91365  18.308   7.652  11.738
87405W        W91366  20.972   8.858  13.665
87406W        W91367  20.849   8.244  11.237
87407W        W91368  21.366   9.916  12.885
87408W        W91369  20.027  10.400  12.716
87409W        W91370  19.439  10.504  11.627
87410W        W91371  20.721   7.407  11.057
87411W        W91372  18.521  10.667  12.798
87412W        W91373  20.718   8.425  14.433
87413W        W91374  18.701   7.955  14.432
87414W        W91375  18.432   8.555  11.765
87415W        W91376  19.123   8.544  11.490
87416W        W91377  20.886   8.871  14.307
87417W        W91378  19.229   9.152  13.016
87418W        W91379  20.703   7.438  12.136
87419W        W91380  19.834  10.869  12.639
87420W        W91381  21.048  10.331  13.576
87421W        W91382  20.632  10.480  12.687
87422W        W91383  20.651   9.460  12.281
87423W        W91384  20.113   7.685  11.352
87424W        W91385  21.794   7.313  12.074
87425W        W91386  19.482   8.948  11.237
87426W        W91387  21.648   8.285  12.227
87427W        W91388  20.340   9.455  11.104
87428W        W91389  21.276   9.655  13.852
87429W        W91390  20.930  10.356  11.319
87430W        W91391  19.545   8.031  14.225
87431W        W91392  19.365   8.615  13.466
87432W        W91393  21.457  10.110  13.743
87433W        W91394  20.557   8.060  14.120
87434W        W91395  18.401   8.531  13.897
87435W        W91396  20.161   9.008  13.623
87436W        W91397  18.518   9.766  12.280
87437W        W91398  18.665   9.063  13.170
87438W        W91399  20.982   9.349  13.520
87439W        W91400  20.754  10.729  14.331
87440W        W91401  20.650   8.468  13.884
87441W        W91402  20.927  10.522  12.289
87442W        W91403  19.929  10.242  13.612
87443W        W91404  19.414  10.597  12.881
87444W        W91405  21.219   9.768  13.300
87445W        W91406  20.269   9.840  14.437
87446W        W91407  18.874   9.793  12.776
87447W        W91408  21.220   9.552  12.421
87448W        W91409  20.861  10.618  13.172
87449W        W91410  18.839  10.347  13.042
87450W        W91411  19.860   8.399  14.252
87451W        W91412  20.311  10.565  11.763
87452W        W91413  19.619   9.820  14.401
87453W        W91414  19.745  10.058  11.778
87454W        W91415  18.966   8.798  11.037
87455W        W91416  18.305  10.884  17.936
87456W        W91417  18.681   9.777  17.459
87457W        W91418  21.386   9.507  15.229
87458W        W91419  21.516  10.592  17.256
87459W        W91420  19.434  10.583  14.782
87460W        W91421  19.517   8.735  15.765
87461W        W91422  19.032   8.583  15.929
87462W        W91423  20.023   9.398  15.363
87463W        W91424  19.698  10.490  17.718
87464W        W91425  18.347   8.051  17.681
87465W        W91426  19.109   7.331  17.483
87466W        W91427  20.803   7.719  16.370
87467W        W91428  20.452   8.590  14.940
87468W        W91429  21.022   8.024  18.031
87469W        W91430  18.388   7.816  17.156
87470W        W91431  18.487  10.435  18.177
87471W        W91432  20.009   9.825  14.909
87472W        W91433  18.441   8.608  16.602
87473W        W91434  19.334   8.499  17.839
87474W        W91435  21.793   8.358  16.338
87475W        W91436  21.557   9.401  17.197
87476W        W91437  19.865   8.734  16.224
87477W        W91438  20.411  10.073  16.593
87478W        W91439  18.911   9.507  16.825
87479W        W91440  18.270   9.035  16.396
87480W        W91441  19.306   9.007  17.588
87481W        W91442  21.577   8.790  17.842
87482W        W91443  19.193  10.234  16.287
87483W        W91444  20.314   9.923  17.421
87484W        W91445  19.534   8.563  16.646
87485W        W91446  19.826   9.347  16.289
87486W        W91447  20.823  10.120  18.137
87487W        W91448  19.902   9.440  18.147
87488W        W91449  18.292   8.547  18.147
87489W        W91450  21.124  10.082  17.746
87490W        W91451  18.705   7.664  15.744
87491W        W91452  19.232   9.922  16.743
87492W        W91453  21.695   9.705  16.033
87493W        W91454  21.108   8.105  16.600
87494W        W91455  21.393   8.058  14.695
87495W        W91456  21.858   8.859  17.001
87496W        W91457  19.825  10.566  16.754
87497W        W91458  21.599  10.032  15.192
87498W        W91459  18.728  10.818  14.946
87499W        W91460  19.121  10.864  15.622
87500W        W91461  18.918   7.618  17.048
87501W        W91462  21.541   8.636  17.323
87502W        W91463  20.946   9.058  15.782
87503W        W91464  20.912   8.746  14.809
87504W        W91465  20.120   9.890  16.949
87505W        W91466  19.926   8.220  16.148
87506W        W91467  20.526  10.307  17.142
87507W        W91468  21.397   9.098  15.564
87508W        W91469  20.299   7.756  15.580
87509W        W91470  18.956  10.450  15.263
87510W        W91471  18.327   7.949  15.862
87511W        W91472  21.113   8.556  16.336
87512W        W91473  18.571  10.173  16.251
87513W        W91474  19.912  10.523  15.121
87514W        W91475  21.304   8.549  14.585
87515W        W91476  18.327  10.307  16.749
87516W        W91477  19.118   9.879  17.229
87517W        W91478  19.491   9.239  15.848
87518W        W91479  19.513   7.644  16.941
87519W        W91480  21.742   7.406  16.238
87520W        W91481  18.961   9.278  14.706
87521W        W91482  18.616   8.311  14.885
87522W        W91483  18.678  10.267  15.679
87523W        W91484  19.809   9.750  15.927
87524W        W91485  21.141  10.609  17.641
87525W        W91486  20.067   8.251  15.325
87526W        W91487  21.450  10.649  16.097
87527W        W91488  21.127   8.502  17.695
87528W        W91489  21.840  10.158  15.829
87529W        W91490  20.467   9.450  17.313
87530W        W91491  18.233   9.001  15.519
87531W        W91492  19.344   9.416  17.092
87532W        W91493  20.548   8.680  15.470
87533W        W91494  20.425   9.170  15.574
87534W        W91495  18.768   8.590  17.048
87535W        W91496  18.753   8.466  17.970
87536W        W91497  18.643   7.383  16.129
87537W        W91498  20.411   7.730  16.690
87538W        W91499  20.059   7.915  17.853
87539W        W91500  20.414   8.064  15.031
87540W        W91501  21.597  10.457  17.785
87541W        W91502  20.564   7.538  17.824
87542W        W91503  21.583   9.839  17.946
87543W        W91504  21.013   8.006  17.542
87544W        W91505  20.813   7.944  15.812
87545W        W91506  21.206   9.078  18.216
87546W        W91507  18.946  10.654  16.202
87547W        W91508  19.604   8.371  15.188
87548W        W91509  19.173   7.655  17.852
87549W        W91510  21.225   8.139  15.533
87550W        W91511  21.592   8.621  15.478
87551W        W91512  19.335  10.838  17.949
87552W        W91513  19.261   7.374  15.184
87553W        W91514  21.582   7.908  16.219
87554W        W91515  21.732  10.157  14.664
87555W        W91516  18.639   9.360  16.366
87556W        W91517  20.556   7.947  14.596
87557W        W91518  21.690  10.279  16.316
87558W        W91519  21.729   7.473  17.066
87559W        W91520  20.174   8.685  17.620
87560W        W91521  20.267  10.024  15.323
87561W        W91522  20.667   9.318  18.063
87562W        W91523  20.341   7.295  16.372
87563W        W91524  18.953   8.198  16.435
87564W        W91525  18.507   9.398  17.209
87565W        W91526  20.366  10.591  15.915
87566W        W91527  21.560   8.188  16.787
87567W        W91528  20.197  10.535  17.554
87568W        W91529  21.540   9.594  14.759
87569W        W91530  19.975   9.077  15.820
87570W        W91531  21.827   7.588  17.561
87571W        W91532  20.193   8.309  16.600
87572W        W91533  21.045   8.607  15.438
87573W        W91534  21.332   8.340  15.080
87574W        W91535  21.141  10.380  15.469
87575W        W91536  20.975   9.983  16.265
87576W        W91537  20.871   9.062  15.243
87577W        W91538  20.304   9.272  16.229
87578W        W91539  21.185   9.060  16.296
87579W        W91540  18.560   8.075  16.720
87580W        W91541  21.338   9.127  17.547
87581W        W91542  21.689  10.745  16.693
87582W        W91543  19.619  10.189  16.095
87583W        W91544  20.626  10.722  17.419
87584W        W91545  20.620   8.052  17.183
87585W        W91546  19.827  10.760  17.244
87586W        W91547  21.524   7.714  15.710
87587W        W91548  21.315   9.033  17.011
87588W        W91549  18.298   8.354  17.049
87589W        W91550  21.158   8.149  16.067
87590W        W91551  21.569   8.300  17.844
87591W        W91552  20.454   9.999  16.062
87592W        W91553  19.710  10.590  15.675
87593W        W91554  18.825   7.770  14.933
87594W        W91555  19.929   7.424  16.743
87595W        W91556  18.957  10.544  14.591
87596W        W91557  19.331   9.010  15.342
87597W        W91558  19.985   9.639  17.655
87598W        W91559  19.815   7.997  15.645
87599W        W91560  21.171   7.594  16.073
87600W        W91561  20.891  10.876  16.401
87601W        W91562  20.303  10.524  16.741
87602W        W91563  19.699   9.561  16.702
87603W        W91564  21.469  10.284  16.828
87604W        W91565  19.163   7.787  15.597
87605W        W91566  19.685  10.084  16.557
87606W        W91567  19.168   8.015  14.622
87607W        W91568  19.969   8.624  17.016
87608W        W91569  20.817   7.490  16.886
87609W        W91570  18.237   9.333  16.771
87610W        W91571  19.941   9.151  14.929
87611W        W91572  19.209   7.466  14.699
87612W        W91573  19.947   8.547  15.750
87613W        W91574  20.917   7.523  17.449
87614W        W91575  19.505   9.535  17.558
87615W        W91576  20.309   9.317  17.775
87616W        W91577  20.926   9.347  17.668
87617W        W91578  20.210   7.487  18.173
87618W        W91579  19.432   8.103  16.566
87619W        W91580  18.858   8.059  15.964
87620W        W91581  18.644  10.771  15.640
87621W        W91582  19.976  10.101  17.765
87622W        W91583  19.011   9.586  15.124
87623W        W91584  20.691   8.971  16.345
87624W        W91585  20.971   8.770  16.744
87625W        W91586  20.176   9.444  16.678
87626W        W91587  20.646   9.818  14.810
87627W        W91588  20.318   7.839  16.138
87628W        W91589  21.797   8.117  15.406
87629W        W91590  18.291  10.706  17.437
87630W        W91591  18.708   9.932  16.969
87631W        W91592  18.275  10.778  15.201
87632W        W91593  20.174   8.048  17.007
87633W        W91594  19.537  10.071  14.856
87634W        W91595  21.442  10.453  15.042
87635W        W91596  20.417   9.106  15.056
87636W        W91597  19.260   8.297  15.573
87637W        W91598  20.092   8.207  14.625
87638W        W91599  21.029   7.678  15.420
87639W        W91600  18.359   7.526  14.868
87640W        W91601  19.645   9.845  17.158
87641W        W91602  19.444   9.761  16.250
87642W        W91603  19.186   9.713  14.648
87643W        W91604  18.427   9.954  15.416
87644W        W91605  18.931   9.024  17.858
87645W        W91606  19.635   7.584  18.044
87646W        W91607  20.344   7.726  17.400
87647W        W91608  19.539   7.494  15.681
87648W        W91609  20.598   7.571  15.186
87649W        W91610  18.543   7.503  16.763
87650W        W91611  18.591   8.466  16.133
87651W        W91612  21.280   7.574  16.539
87652W        W91613  18.702   8.072  15.353
87653W        W91614  21.273   7.760  16.969
87654W        W91615  21.669   8.963  14.654
87655W        W91616  18.961   7.721  16.473
87656W        W91617  20.075   8.293  17.413
87657W        W91618  18.223   7.983  14.891
87658W        W91619  19.009   9.372  17.452
87659W        W91620  20.367   8.770  16.631
87660W        W91621  20.234  10.849  14.927
87661W        W91622  18.380   9.356  14.624
87662W        W91623  19.115   9.767  17.750
87663W        W91624  18.636   8.934  17.381
87664W        W91625  19.627   9.039  17.175
87665W        W91626  21.395   7.398  17.437
87666W        W91627  21.793   9.008  17.428
87667W        W91628  21.781   9.208  15.114
87668W        W91629  20.644   9.540  15.213
87669W        W91630  21.118  10.840  14.908
87670W        W91631  20.295   8.830  18.050
87671W        W91632  18.625   9.797  18.090
87672W        W91633  21.831   7.719  18.042
87673W        W91634  21.549   8.647  16.663
87674W        W91635  19.857  10.777  18.140
87675W        W91636  19.712   7.406  14.867
87676W        W91637  21.251  10.005  14.810
87677W        W91638  19.020   8.098  17.696
87678W        W91639  19.454  10.092  17.558
87679W        W91640  21.580   8.083  17.356
87680W        W91641  20.791  10.742  15.324
87681W        W91642  21.030   9.361  16.691
87682W        W91643  19.280   7.777  17.358
87683W        W91644  19.252  10.025  15.309
87684W        W91645  21.007   9.523  15.573
87685W        W91646  18.775   8.149  17.297
87686W        W91647  20.104  10.211  15.761
87687W        W91648  21.854   8.771  15.942
87688W        W91649  20.076   7.404  17.661
87689W        W91650  20.856  10.109  16.740
87690W        W91651  21.159  10.453  16.448
87691W        W91652  20.378  10.255  14.876
87692W        W91653  18.388  10.147  17.718
87693W        W91654  19.131   8.139  16.956
87694W        W91655  19.101   7.487  16.066
87695W        W91656  20.722   8.329  16.758
87696W        W91657  19.520   9.500  14.958
87697W        W91658  21.518   9.442  16.457
87698W        W91659  18.845  10.200  17.880
87699W        W91660  21.232  10.882  15.677
87700W        W91661  19.331   7.902  16.122
87701W        W91662  19.100   9.395  16.212
87702W        W91663  19.413  10.806  16.962
87703W        W91664  21.480  10.902  17.994
87704W        W91665  20.639   9.090  16.927
87705W        W91666  18.488   8.888  14.842
87706W        W91667  21.622  10.546  15.539
87707W        W91668  21.459   7.870  15.158
87708W        W91669  19.598   7.389  17.561
87709W        W91670  21.304  10.191  16.019
87710W        W91671  21.333   8.747  15.924
87711W        W91672  19.450   8.420  16.140
87712W        W91673  20.806   9.835  17.327
87713W        W91674  19.456   8.289  17.439
87714W        W91675  19.435  10.755  16.055
87715W        W91676  18.752  10.714  17.689
87716W        W91677  18.864  10.075  14.819
87717W        W91678  21.381   9.833  15.629
87718W        W91679  18.985   8.625  17.515
87719W        W91680  21.758   8.555  14.996
87720W        W91681  19.503   9.612  15.467
87721W        W91682  20.602   8.994  17.548
87722W        W91683  20.493   8.622  17.092
87723W        W91684  19.053   8.994  17.121
87724W        W91685  21.263  10.882  16.950
87725W        W91686  21.054   7.516  17.944
87726W        W91687  18.718   7.666  17.531
87727W        W91688  19.057   8.689  16.584
87728W        W91689  19.426   8.503  14.706
87729W        W91690  18.229  10.262  17.251
87730W        W91691  19.814   8.971  16.694
87731W        W91692  19.637   7.996  14.799
87732W        W91693  18.772   8.812  15.580
87733W        W91694  18.543  10.664  17.017
87734W        W91695  21.338   8.890  15.125
87735W        W91696  21.433   7.806  17.811
87736W        W91697  20.869  10.015  15.774
87737W        W91698  18.467   8.939  17.951
87738W        W91699  21.433   7.403  15.247
87739W        W91700  20.953   9.878  15.258
87740W        W91701  19.855   8.936  15.343
87741W        W91702  21.042   7.740  14.866
87742W        W91703  21.107   8.347  17.052
87743W        W91704  18.816   8.940  16.259
87744W        W91705  19.110   9.879  15.908
87745W        W91706  20.873   8.499  15.873
87746W        W91707  19.896   7.878  16.569
87747W        W91708  21.858   9.789  17.080
87748W        W91709  21.776   7.776  16.641
87749W        W91710  18.315  10.606  16.017
87750W        W91711  18.824   9.793  15.553
87751W        W91712  18.739   7.410  18.106
87752W        W91713  19.858  10.263  18.208
87753W        W91714  21.613   9.231  15.998
87754W        W91715  20.967   9.408  14.878
87755W        W91716  20.262  10.929  17.090
87756W        W91717  19.934   7.361  15.407
87757W        W91718  20.647   8.230  16.266
87758W        W91719  18.333   9.817  16.598
87759W        W91720  19.586   7.779  15.239
87760W        W91721  19.390   9.263  18.088
87761W        W91722  20.384   8.244  15.802
87762W        W91723  20.589   9.654  16.924
87763W        W91724  18.743  10.259  17.359
87764W        W91725  19.334  10.242  18.082
87765W        W91726  19.185   8.039  15.096
87766W        W91727  20.702   8.181  15.421
87767W        W91728  20.660  10.289  17.658
87768W        W91729  19.345   8.881  16.257
87769W        W91730  19.000  10.579  17.122
87770W        W91731  21.745  10.696  14.723
87771W        W91732  18.608   9.368  17.719
87772W        W91733  20.603   9.630  16.407
87773W        W91734  19.039   9.279  15.649
87774W        W91735  19.410  10.286  17.044
87775W        W91736  19.788   7.705  16.085
87776W        W91737  18.399   9.689  15.015
87777W        W91738  19.918   8.640  14.885
87778W        W91739  18.564   9.189  15.904
87779W        W91740  19.854   7.831  17.368
87780W        W91741  21.526   7.540  14.795
87781W        W91742  21.619   9.286  17.894
87782W        W91743  20.273  10.543  18.046
87783W        W91744  21.831   9.637  17.568
87784W        W91745  21.239  10.435  18.179
87785W        W91746  18.978  10.891  16.657
87786W        W91747  21.837   9.513  15.531
87787W        W91748  20.367   8.780  16.044
87788W        W91749  20.134   7.392  15.934
87789W        W91750  19.193  10.376  15.771
87790W        W91751  19.692   8.117  16.996
87791W        W91752  19.392   7.486  16.465
87792W        W91753  18.455  10.308  15.013
87793W        W91754  20.271   9.672  15.731
87794W        W91755  19.146  10.467  17.610
87795W        W91756  18.623   9.290  15.306
87796W        W91757  18.508   7.833  16.305
87797W        W91758  20.056   9.798  16.362
87798W        W91759  18.308   7.652  15.382
87799W        W91760  20.972   8.858  17.309
87800W        W91761  20.849   8.244  14.881
87801W        W91762  21.366   9.916  16.529
87802W        W91763  20.027  10.400  16.360
87803W        W91764  19.439  10.504  15.271
87804W        W91765  20.721   7.407  14.701
87805W        W91766  18.521  10.667  16.442
87806W        W91767  20.718   8.425  18.077
87807W        W91768  18.701   7.955  18.076
87808W        W91769  18.432   8.555  15.409
87809W        W91770  19.123   8.544  15.134
87810W        W91771  20.886   8.871  17.951
87811W        W91772  19.229   9.152  16.660
87812W        W91773  20.703   7.438  15.780
87813W        W91774  19.834  10.869  16.283
87814W        W91775  21.048  10.331  17.220
87815W        W91776  20.632  10.480  16.331
87816W        W91777  20.651   9.460  15.925
87817W        W91778  20.113   7.685  14.996
87818W        W91779  21.794   7.313  15.718
87819W        W91780  19.482   8.948  14.881
87820W        W91781  21.648   8.285  15.871
87821W        W91782  20.340   9.455  14.748
87822W        W91783  21.276   9.655  17.496
87823W        W91784  20.930  10.356  14.963
87824W        W91785  19.545   8.031  17.869
87825W        W91786  19.365   8.615  17.110
87826W        W91787  21.457  10.110  17.387
87827W        W91788  20.557   8.060  17.764
87828W        W91789  18.401   8.531  17.541
87829W        W91790  18.518   9.766  15.924
87830W        W91791  18.665   9.063  16.814
87831W        W91792  20.982   9.349  17.164
87832W        W91793  20.754  10.729  17.975
87833W        W91794  20.650   8.468  17.528
87834W        W91795  20.927  10.522  15.933
87835W        W91796  19.929  10.242  17.256
87836W        W91797  19.414  10.597  16.525
87837W        W91798  21.219   9.768  16.944
87838W        W91799  20.269   9.840  18.081
87839W        W91800  18.874   9.793  16.420
87840W        W91801  21.220   9.552  16.065
87841W        W91802  20.861  10.618  16.816
87842W        W91803  18.839  10.347  16.686
87843W        W91804  19.860   8.399  17.896
87844W        W91805  20.311  10.565  15.407
87845W        W91806  19.619   9.820  18.045
87846W        W91807  19.745  10.058  15.422
87847W        W91808  18.966   8.798  14.681
87848W        W91809  18.305  10.884  21.580
87849W        W91810  18.681   9.777  21.103
87850W        W91811  21.386   9.507  18.873
87851W        W91812  21.516  10.592  20.900
87852W        W91813  19.434  10.583  18.426
87853W        W91814  19.517   8.735  19.409
87854W        W91815  19.032   8.583  19.573
87855W        W91816  20.023   9.398  19.007
87856W        W91817  19.698  10.490  21.362
87857W        W91818  18.347   8.051  21.325
87858W        W91819  19.109   7.331  21.127
87859W        W91820  20.803   7.719  20.014
87860W        W91821  20.452   8.590  18.584
87861W        W91822  21.022   8.024  21.675
87862W        W91823  18.388   7.816  20.800
87863W        W91824  18.487  10.435  21.821
87864W        W91825  20.009   9.825  18.553
87865W        W91826  18.441   8.608  20.246
87866W        W91827  19.334   8.499  21.483
87867W        W91828  21.793   8.358  19.982
87868W        W91829  21.557   9.401  20.841
87869W        W91830  19.865   8.734  19.868
87870W        W91831  20.411  10.073  20.237
87871W        W91832  18.911   9.507  20.469
87872W        W91833  18.270   9.035  20.040
87873W        W91834  19.306   9.007  21.232
87874W        W91835  21.577   8.790  21.486
87875W        W91836  19.193  10.234  19.931
87876W        W91837  20.314   9.923  21.065
87877W        W91838  19.534   8.563  20.290
87878W        W91839  19.826   9.347  19.933
87879W        W91840  20.823  10.120  21.781
87880W        W91841  19.902   9.440  21.791
87881W        W91842  19.883   9.156  21.269
87882W        W91843  18.292   8.547  21.791
87883W        W91844  21.124  10.082  21.390
87884W        W91845  18.705   7.664  19.388
87885W        W91846  19.232   9.922  20.387
87886W        W91847  21.695   9.705  19.677
87887W        W91848  21.108   8.105  20.244
87888W        W91849  21.393   8.058  18.339
87889W        W91850  21.858   8.859  20.645
87890W        W91851  19.825  10.566  20.398
87891W        W91852  21.599  10.032  18.836
87892W        W91853  18.728  10.818  18.590
87893W        W91854  19.121  10.864  19.266
87894W        W91855  18.918   7.618  20.692
87895W        W91856  21.541   8.636  20.967
87896W        W91857  20.946   9.058  19.426
87897W        W91858  20.912   8.746  18.453
87898W        W91859  20.120   9.890  20.593
87899W        W91860  19.926   8.220  19.792
87900W        W91861  20.526  10.307  20.786
87901W        W91862  21.397   9.098  19.208
87902W        W91863  20.299   7.756  19.224
87903W        W91864  18.956  10.450  18.907
87904W        W91865  18.327   7.949  19.506
87905W        W91866  21.113   8.556  19.980
87906W        W91867  18.571  10.173  19.895
87907W        W91868  19.912  10.523  18.765
87908W        W91869  21.304   8.549  18.229
87909W        W91870  18.327  10.307  20.393
87910W        W91871  19.118   9.879  20.873
87911W        W91872  19.491   9.239  19.492
87912W        W91873  19.513   7.644  20.585
87913W        W91874  21.742   7.406  19.882
87914W        W91875  18.961   9.278  18.350
87915W        W91876  18.616   8.311  18.529
87916W        W91877  18.678  10.267  19.323
87917W        W91878  19.809   9.750  19.571
87918W        W91879  21.141  10.609  21.285
87919W        W91880  20.067   8.251  18.969
87920W        W91881  21.450  10.649  19.741
87921W        W91882  21.127   8.502  21.339
87922W        W91883  21.840  10.158  19.473
87923W        W91884  20.467   9.450  20.957
87924W        W91885  18.233   9.001  19.163
87925W        W91886  19.344   9.416  20.736
87926W        W91887  20.548   8.680  19.114
87927W        W91888  20.425   9.170  19.218
87928W        W91889  18.768   8.590  20.692
87929W        W91890  18.753   8.466  21.614
87930W        W91891  18.643   7.383  19.773
87931W        W91892  20.411   7.730  20.334
87932W        W91893  20.059   7.915  21.497
87933W        W91894  20.414   8.064  18.675
87934W        W91895  21.597  10.457  21.429
87935W        W91896  20.564   7.538  21.468
87936W        W91897  21.583   9.839  21.590
87937W        W91898  21.013   8.006  21.186
87938W        W91899  20.813   7.944  19.456
87939W        W91900  21.206   9.078  21.860
87940W        W91901  18.946  10.654  19.846
87941W        W91902  19.604   8.371  18.832
87942W        W91903  19.173   7.655  21.496
87943W        W91904  21.225   8.139  19.177
87944W        W91905  21.592   8.621  19.122
87945W        W91906  19.335  10.838  21.593
87946W        W91907  19.261   7.374  18.828
87947W        W91908  21.582   7.908  19.863
87948W        W91909  18.639   9.360  20.010
87949W        W91910  20.556   7.947  18.240
87950W        W91911  21.690  10.279  19.960
87951W        W91912  21.729   7.473  20.710
87952W        W91913  20.174   8.685  21.264
87953W        W91914  20.267  10.024  18.967
87954W        W91915  20.667   9.318  21.707
87955W        W91916  20.341   7.295  20.016
87956W        W91917  18.953   8.198  20.079
87957W        W91918  18.507   9.398  20.853
87958W        W91919  20.366  10.591  19.559
87959W        W91920  21.560   8.188  20.431
87960W        W91921  20.197  10.535  21.198
87961W        W91922  21.540   9.594  18.403
87962W        W91923  19.975   9.077  19.464
87963W        W91924  21.827   7.588  21.205
87964W        W91925  19.976   9.423  20.799
87965W        W91926  20.193   8.309  20.244
87966W        W91927  21.045   8.607  19.082
87967W        W91928  21.332   8.340  18.724
87968W        W91929  21.141  10.380  19.113
87969W        W91930  20.975   9.983  19.909
87970W        W91931  20.871   9.062  18.887
87971W        W91932  20.304   9.272  19.873
87972W        W91933  21.185   9.060  19.940
87973W        W91934  18.560   8.075  20.364
87974W        W91935  21.338   9.127  21.191
87975W        W91936  21.689  10.745  20.337
87976W        W91937  19.619  10.189  19.739
87977W        W91938  20.626  10.722  21.063
87978W        W91939  20.620   8.052  20.827
87979W        W91940  19.827  10.760  20.888
87980W        W91941  21.524   7.714  19.354
87981W        W91942  21.315   9.033  20.655
87982W        W91943  18.298   8.354  20.693
87983W        W91944  21.158   8.149  19.711
87984W        W91945  21.569   8.300  21.488
87985W        W91946  20.454   9.999  19.706
87986W        W91947  19.710  10.590  19.319
87987W        W91948  18.825   7.770  18.577
87988W        W91949  19.929   7.424  20.387
87989W        W91950  18.957  10.544  18.235
87990W        W91951  19.331   9.010  18.986
87991W        W91952  19.985   9.639  21.299
87992W        W91953  19.815   7.997  19.289
87993W        W91954  21.171   7.594  19.717
87994W        W91955  20.891  10.876  20.045
87995W        W91956  20.303  10.524  20.385
87996W        W91957  19.699   9.561  20.346
87997W        W91958  21.469  10.284  20.472
87998W        W91959  19.163   7.787  19.241
87999W        W91960  19.685  10.084  20.201
88000W        W91961  19.168   8.015  18.266
88001W        W91962  19.969   8.624  20.660
88002W        W91963  20.817   7.490  20.530
88003W        W91964  18.237   9.333  20.415
88004W        W91965  19.941   9.151  18.573
88005W        W91966  19.209   7.466  18.343
88006W        W91967  19.947   8.547  19.394
88007W        W91968  20.917   7.523  21.093
88008W        W91969  19.505   9.535  21.202
88009W        W91970  20.309   9.317  21.419
88010W        W91971  20.926   9.347  21.312
88011W        W91972  20.210   7.487  21.817
88012W        W91973  19.432   8.103  20.210
88013W        W91974  18.858   8.059  19.608
88014W        W91975  18.644  10.771  19.284
88015W        W91976  19.976  10.101  21.409
88016W        W91977  19.011   9.586  18.768
88017W        W91978  20.691   8.971  19.989
88018W        W91979  20.971   8.770  20.388
88019W        W91980  20.176   9.444  20.322
88020W        W91981  20.646   9.818  18.454
88021W        W91982  20.318   7.839  19.782
88022W        W91983  21.797   8.117  19.050
88023W        W91984  18.291  10.706  21.081
88024W        W91985  18.708   9.932  20.613
88025W        W91986  18.275  10.778  18.845
88026W        W91987  20.174   8.048  20.651
88027W        W91988  19.537  10.071  18.500
88028W        W91989  21.442  10.453  18.686
88029W        W91990  20.417   9.106  18.700
88030W        W91991  19.260   8.297  19.217
88031W        W91992  20.092   8.207  18.269
88032W        W91993  20.676   9.772  21.447
88033W        W91994  21.029   7.678  19.064
88034W        W91995  18.359   7.526  18.512
88035W        W91996  19.645   9.845  20.802
88036W        W91997  19.444   9.761  19.894
88037W        W91998  19.186   9.713  18.292
88038W        W91999  18.427   9.954  19.060
88039W        W92000  18.931   9.024  21.502
88040W        W92001  19.635   7.584  21.688
88041W        W92002  20.344   7.726  21.044
88042W        W92003  19.539   7.494  19.325
88043W        W92004  20.598   7.571  18.830
88044W        W92005  18.543   7.503  20.407
88045W        W92006  18.591   8.466  19.777
88046W        W92007  21.280   7.574  20.183
88047W        W92008  18.702   8.072  18.997
88048W        W92009  21.273   7.760  20.613
88049W        W92010  21.669   8.963  18.298
88050W        W92011  18.961   7.721  20.117
88051W        W92012  20.075   8.293  21.057
88052W        W92013  18.223   7.983  18.535
88053W        W92014  19.009   9.372  21.096
88054W        W92015  20.367   8.770  20.275
88055W        W92016  20.234  10.849  18.571
88056W        W92017  18.380   9.356  18.268
88057W        W92018  19.115   9.767  21.394
88058W        W92019  18.636   8.934  21.025
88059W        W92020  19.627   9.039  20.819
88060W        W92021  21.395   7.398  21.081
88061W        W92022  21.793   9.008  21.072
88062W        W92023  21.781   9.208  18.758
88063W        W92024  20.644   9.540  18.857
88064W        W92025  21.118  10.840  18.552
88065W        W92026  20.295   8.830  21.694
88066W        W92027  18.625   9.797  21.734
88067W        W92028  21.831   7.719  21.686
88068W        W92029  21.549   8.647  20.307
88069W        W92030  19.857  10.777  21.784
88070W        W92031  19.712   7.406  18.511
88071W        W92032  19.020   8.098  21.340
88072W        W92033  19.454  10.092  21.202
88073W        W92034  21.580   8.083  21.000
88074W        W92035  20.791  10.742  18.968
88075W        W92036  21.030   9.361  20.335
88076W        W92037  19.280   7.777  21.002
88077W        W92038  19.749   8.846  21.759
88078W        W92039  19.252  10.025  18.953
88079W        W92040  21.007   9.523  19.217
88080W        W92041  18.775   8.149  20.941
88081W        W92042  20.104  10.211  19.405
88082W        W92043  21.854   8.771  19.586
88083W        W92044  20.076   7.404  21.305
88084W        W92045  20.856  10.109  20.384
88085W        W92046  21.159  10.453  20.092
88086W        W92047  20.378  10.255  18.520
88087W        W92048  18.388  10.147  21.362
88088W        W92049  19.131   8.139  20.600
88089W        W92050  19.101   7.487  19.710
88090W        W92051  20.722   8.329  20.402
88091W        W92052  19.520   9.500  18.602
88092W        W92053  21.518   9.442  20.101
88093W        W92054  18.845  10.200  21.524
88094W        W92055  21.232  10.882  19.321
88095W        W92056  19.331   7.902  19.766
88096W        W92057  19.100   9.395  19.856
88097W        W92058  19.413  10.806  20.606
88098W        W92059  21.480  10.902  21.638
88099W        W92060  20.639   9.090  20.571
88100W        W92061  18.488   8.888  18.486
88101W        W92062  21.622  10.546  19.183
88102W        W92063  21.459   7.870  18.802
88103W        W92064  19.598   7.389  21.205
88104W        W92065  21.304  10.191  19.663
88105W        W92066  21.333   8.747  19.568
88106W        W92067  19.450   8.420  19.784
88107W        W92068  19.695   8.682  21.108
88108W        W92069  20.806   9.835  20.971
88109W        W92070  19.456   8.289  21.083
88110W        W92071  19.435  10.755  19.699
88111W        W92072  18.752  10.714  21.333
88112W        W92073  18.864  10.075  18.463
88113W        W92074  21.381   9.833  19.273
88114W        W92075  18.985   8.625  21.159
88115W        W92076  21.758   8.555  18.640
88116W        W92077  19.503   9.612  19.111
88117W        W92078  20.602   8.994  21.192
88118W        W92079  20.493   8.622  20.736
88119W        W92080  19.053   8.994  20.765
88120W        W92081  21.263  10.882  20.594
88121W        W92082  21.054   7.516  21.588
88122W        W92083  18.718   7.666  21.175
88123W        W92084  19.057   8.689  20.228
88124W        W92085  19.426   8.503  18.350
88125W        W92086  18.229  10.262  20.895
88126W        W92087  19.814   8.971  20.338
88127W        W92088  19.637   7.996  18.443
88128W        W92089  18.772   8.812  19.224
88129W        W92090  18.543  10.664  20.661
88130W        W92091  21.338   8.890  18.769
88131W        W92092  21.433   7.806  21.455
88132W        W92093  20.869  10.015  19.418
88133W        W92094  18.467   8.939  21.595
88134W        W92095  21.433   7.403  18.891
88135W        W92096  19.855   8.936  18.987
88136W        W92097  21.042   7.740  18.510
88137W        W92098  21.107   8.347  20.696
88138W        W92099  18.816   8.940  19.903
88139W        W92100  19.110   9.879  19.552
88140W        W92101  20.873   8.499  19.517
88141W        W92102  19.896   7.878  20.213
88142W        W92103  21.858   9.789  20.724
88143W        W92104  21.776   7.776  20.285
88144W        W92105  18.315  10.606  19.661
88145W        W92106  18.824   9.793  19.197
88146W        W92107  18.739   7.410  21.750
88147W        W92108  19.858  10.263  21.852
88148W        W92109  21.613   9.231  19.642
88149W        W92110  20.967   9.408  18.522
88150W        W92111  20.262  10.929  20.734
88151W        W92112  21.119   9.651  21.771
88152W        W92113  19.934   7.361  19.051
88153W        W92114  20.647   8.230  19.910
88154W        W92115  18.333   9.817  20.242
88155W        W92116  19.586   7.779  18.883
88156W        W92117  19.390   9.263  21.732
88157W        W92118  20.384   8.244  19.446
88158W        W92119  20.589   9.654  20.568
88159W        W92120  18.743  10.259  21.003
88160W        W92121  19.334  10.242  21.726
88161W        W92122  19.185   8.039  18.740
88162W        W92123  20.702   8.181  19.065
88163W        W92124  20.660  10.289  21.302
88164W        W92125  19.345   8.881  19.901
88165W        W92126  19.000  10.579  20.766
88166W        W92127  21.745  10.696  18.367
88167W        W92128  18.608   9.368  21.363
88168W        W92129  20.603   9.630  20.051
88169W        W92130  19.039   9.279  19.293
88170W        W92131  19.410  10.286  20.688
88171W        W92132  19.788   7.705  19.729
88172W        W92133  18.399   9.689  18.659
88173W        W92134  19.918   8.640  18.529
88174W        W92135  18.564   9.189  19.548
88175W        W92136  19.854   7.831  21.012
88176W        W92137  21.526   7.540  18.439
88177W        W92138  21.619   9.286  21.538
88178W        W92139  20.273  10.543  21.690
88179W        W92140  21.831   9.637  21.212
88180W        W92141  21.239  10.435  21.823
88181W        W92142  18.978  10.891  20.301
88182W        W92143  21.837   9.513  19.175
88183W        W92144  20.367   8.780  19.688
88184W        W92145  20.134   7.392  19.578
88185W        W92146  19.193  10.376  19.415
88186W        W92147  19.692   8.117  20.640
88187W        W92148  19.392   7.486  20.109
88188W        W92149  18.455  10.308  18.657
88189W        W92150  20.271   9.672  19.375
88190W        W92151  19.146  10.467  21.254
88191W        W92152  18.623   9.290  18.950
88192W        W92153  18.508   7.833  19.949
88193W        W92154  20.056   9.798  20.006
88194W        W92155  18.308   7.652  19.026
88195W        W92156  20.972   8.858  20.953
88196W        W92157  20.849   8.244  18.525
88197W        W92158  21.366   9.916  20.173
88198W        W92159  20.027  10.400  20.004
88199W        W92160  19.439  10.504  18.915
88200W        W92161  20.721   7.407  18.345
88201W        W92162  18.521  10.667  20.086
88202W        W92163  20.718   8.425  21.721
88203W        W92164  18.701   7.955  21.720
88204W        W92165  18.432   8.555  19.053
88205W        W92166  19.123   8.544  18.778
88206W        W92167  20.886   8.871  21.595
88207W        W92168  19.229   9.152  20.304
88208W        W92169  20.703   7.438  19.424
88209W        W92170  19.834  10.869  19.927
88210W        W92171  21.048  10.331  20.864
88211W        W92172  20.632  10.480  19.975
88212W        W92173  20.651   9.460  19.569
88213W        W92174  20.113   7.685  18.640
88214W        W92175  21.794   7.313  19.362
88215W        W92176  21.648   8.285  19.515
88216W        W92177  20.340   9.455  18.392
88217W        W92178  21.276   9.655  21.140
88218W        W92179  19.545   8.031  21.513
88219W        W92180  19.365   8.615  20.754
88220W        W92181  21.457  10.110  21.031
88221W        W92182  20.557   8.060  21.408
88222W        W92183  18.401   8.531  21.185
88223W        W92184  20.161   9.008  20.911
88224W        W92185  18.518   9.766  19.568
88225W        W92186  18.665   9.063  20.458
88226W        W92187  20.982   9.349  20.808
88227W        W92188  20.754  10.729  21.619
88228W        W92189  20.650   8.468  21.172
88229W        W92190  20.927  10.522  19.577
88230W        W92191  19.929  10.242  20.900
88231W        W92192  19.414  10.597  20.169
88232W        W92193  21.219   9.768  20.588
88233W        W92194  20.269   9.840  21.725
88234W        W92195  18.874   9.793  20.064
88235W        W92196  21.220   9.552  19.709
88236W        W92197  20.861  10.618  20.460
88237W        W92198  18.839  10.347  20.330
88238W        W92199  19.860   8.399  21.540
88239W        W92200  20.311  10.565  19.051
88240W        W92201  19.619   9.820  21.689
88241W        W92202  19.745  10.058  19.066
88242W        W92203  18.966   8.798  18.325
88243W        W92204  21.386   9.507  22.518
88244W        W92205  19.434  10.583  22.071
88245W        W92206  19.517   8.735  23.054
88246W        W92207  19.032   8.583  23.218
88247W        W92208  20.023   9.398  22.652
88248W        W92209  20.452   8.590  22.229
88249W        W92210  20.009   9.825  22.198
88250W        W92211  18.705   7.664  23.033
88251W        W92212  21.393   8.058  21.984
88252W        W92213  21.599  10.032  22.481
88253W        W92214  18.728  10.818  22.235
88254W        W92215  19.121  10.864  22.911
88255W        W92216  20.946   9.058  23.071
88256W        W92217  20.912   8.746  22.098
88257W        W92218  21.397   9.098  22.853
88258W        W92219  20.299   7.756  22.869
88259W        W92220  18.956  10.450  22.552
88260W        W92221  19.912  10.523  22.410
88261W        W92222  21.304   8.549  21.874
88262W        W92223  19.491   9.239  23.137
88263W        W92224  18.961   9.278  21.995
88264W        W92225  18.616   8.311  22.174
88265W        W92226  18.678  10.267  22.968
88266W        W92227  19.809   9.750  23.216
88267W        W92228  20.067   8.251  22.614
88268W        W92229  18.233   9.001  22.808
88269W        W92230  20.548   8.680  22.759
88270W        W92231  20.425   9.170  22.863
88271W        W92232  20.414   8.064  22.320
88272W        W92233  20.813   7.944  23.101
88273W        W92234  19.604   8.371  22.477
88274W        W92235  21.225   8.139  22.822
88275W        W92236  21.592   8.621  22.767
88276W        W92237  19.261   7.374  22.473
88277W        W92238  21.732  10.157  21.953
88278W        W92239  20.556   7.947  21.885
88279W        W92240  20.267  10.024  22.612
88280W        W92241  20.366  10.591  23.204
88281W        W92242  21.540   9.594  22.048
88282W        W92243  19.975   9.077  23.109
88283W        W92244  21.045   8.607  22.727
88284W        W92245  21.332   8.340  22.369
88285W        W92246  21.141  10.380  22.758
88286W        W92247  20.871   9.062  22.532
88287W        W92248  21.524   7.714  22.999
88288W        W92249  19.710  10.590  22.964
88289W        W92250  18.825   7.770  22.222
88290W        W92251  18.957  10.544  21.880
88291W        W92252  19.331   9.010  22.631
88292W        W92253  19.815   7.997  22.934
88293W        W92254  19.163   7.787  22.886
88294W        W92255  19.168   8.015  21.911
88295W        W92256  19.941   9.151  22.218
88296W        W92257  19.209   7.466  21.988
88297W        W92258  19.947   8.547  23.039
88298W        W92259  18.858   8.059  23.253
88299W        W92260  18.644  10.771  22.929
88300W        W92261  19.011   9.586  22.413
88301W        W92262  20.646   9.818  22.099
88302W        W92263  21.797   8.117  22.695
88303W        W92264  18.275  10.778  22.490
88304W        W92265  19.537  10.071  22.145
88305W        W92266  21.442  10.453  22.331
88306W        W92267  20.417   9.106  22.345
88307W        W92268  19.260   8.297  22.862
88308W        W92269  20.092   8.207  21.914
88309W        W92270  21.029   7.678  22.709
88310W        W92271  18.359   7.526  22.157
88311W        W92272  19.186   9.713  21.937
88312W        W92273  18.427   9.954  22.705
88313W        W92274  19.539   7.494  22.970
88314W        W92275  20.598   7.571  22.475
88315W        W92276  18.702   8.072  22.642
88316W        W92277  21.669   8.963  21.943
88317W        W92278  18.223   7.983  22.180
88318W        W92279  20.234  10.849  22.216
88319W        W92280  18.380   9.356  21.913
88320W        W92281  21.781   9.208  22.403
88321W        W92282  20.644   9.540  22.502
88322W        W92283  21.118  10.840  22.197
88323W        W92284  19.712   7.406  22.156
88324W        W92285  21.251  10.005  22.099
88325W        W92286  20.791  10.742  22.613
88326W        W92287  19.252  10.025  22.598
88327W        W92288  21.007   9.523  22.862
88328W        W92289  20.104  10.211  23.050
88329W        W92290  21.854   8.771  23.231
88330W        W92291  20.378  10.255  22.165
88331W        W92292  19.520   9.500  22.247
88332W        W92293  21.232  10.882  22.966
88333W        W92294  18.488   8.888  22.131
88334W        W92295  21.622  10.546  22.828
88335W        W92296  21.459   7.870  22.447
88336W        W92297  21.333   8.747  23.213
88337W        W92298  18.864  10.075  22.108
88338W        W92299  21.381   9.833  22.918
88339W        W92300  21.758   8.555  22.285
88340W        W92301  19.503   9.612  22.756
88341W        W92302  19.426   8.503  21.995
88342W        W92303  19.637   7.996  22.088
88343W        W92304  18.772   8.812  22.869
88344W        W92305  21.338   8.890  22.414
88345W        W92306  20.869  10.015  23.063
88346W        W92307  21.433   7.403  22.536
88347W        W92308  20.953   9.878  22.547
88348W        W92309  19.855   8.936  22.632
88349W        W92310  21.042   7.740  22.155
88350W        W92311  19.110   9.879  23.197
88351W        W92312  20.873   8.499  23.162
88352W        W92313  18.315  10.606  23.306
88353W        W92314  18.824   9.793  22.842
88354W        W92315  21.613   9.231  23.287
88355W        W92316  20.967   9.408  22.167
88356W        W92317  19.934   7.361  22.696
88357W        W92318  19.586   7.779  22.528
88358W        W92319  20.384   8.244  23.091
88359W        W92320  19.185   8.039  22.385
88360W        W92321  20.702   8.181  22.710
88361W        W92322  21.745  10.696  22.012
88362W        W92323  18.399   9.689  22.304
88363W        W92324  19.918   8.640  22.174
88364W        W92325  18.564   9.189  23.193
88365W        W92326  21.526   7.540  22.084
88366W        W92327  21.837   9.513  22.820
88367W        W92328  20.134   7.392  23.223
88368W        W92329  19.193  10.376  23.060
88369W        W92330  18.455  10.308  22.302
88370W        W92331  20.271   9.672  23.020
88371W        W92332  18.623   9.290  22.595
88372W        W92333  18.308   7.652  22.671
88373W        W92334  20.849   8.244  22.170
88374W        W92335  19.439  10.504  22.560
88375W        W92336  20.721   7.407  21.990
88376W        W92337  18.432   8.555  22.698
88377W        W92338  19.123   8.544  22.423
88378W        W92339  20.651   9.460  23.214
88379W        W92340  20.113   7.685  22.285
88380W        W92341  21.794   7.313  23.007
88381W        W92342  19.482   8.948  22.170
88382W        W92343  21.648   8.285  23.160
88383W        W92344  20.340   9.455  22.037
88384W        W92345  20.930  10.356  22.252
88385W        W92346  18.518   9.766  23.213
88386W        W92347  20.927  10.522  23.222
88387W        W92348  20.311  10.565  22.696
88388W        W92349  19.745  10.058  22.711
88389W        W92350  18.966   8.798  21.970
88390W        W92351  18.305  14.528   3.359
88391W        W92352  18.681  13.421   2.882
88392W        W92353  21.386  13.151   0.652
88393W        W92354  21.516  14.236   2.679
88394W        W92355  19.434  14.227   0.205
88395W        W92356  19.517  12.379   1.188
88396W        W92357  19.032  12.227   1.352
88397W        W92358  20.023  13.042   0.786
88398W        W92359  19.698  14.134   3.141
88399W        W92360  18.347  11.695   3.104
88400W        W92361  19.109  10.975   2.906
88401W        W92362  20.803  11.363   1.793
88402W        W92363  20.452  12.234   0.363
88403W        W92364  21.022  11.668   3.454
88404W        W92365  18.388  11.460   2.579
88405W        W92366  18.487  14.079   3.600
88406W        W92367  20.009  13.469   0.332
88407W        W92368  18.441  12.252   2.025
88408W        W92369  19.334  12.143   3.262
88409W        W92370  21.793  12.002   1.761
88410W        W92371  21.557  13.045   2.620
88411W        W92372  19.865  12.378   1.647
88412W        W92373  20.411  13.717   2.016
88413W        W92374  18.911  13.151   2.248
88414W        W92375  18.270  12.679   1.819
88415W        W92376  19.306  12.651   3.011
88416W        W92377  21.577  12.434   3.265
88417W        W92378  19.193  13.878   1.710
88418W        W92379  20.314  13.567   2.844
88419W        W92380  19.534  12.207   2.069
88420W        W92381  19.826  12.991   1.712
88421W        W92382  20.823  13.764   3.560
88422W        W92383  19.902  13.084   3.570
88423W        W92384  19.883  12.800   3.048
88424W        W92385  18.292  12.191   3.570
88425W        W92386  21.124  13.726   3.169
88426W        W92387  18.705  11.308   1.167
88427W        W92388  19.232  13.566   2.166
88428W        W92389  21.695  13.349   1.456
88429W        W92390  21.108  11.749   2.023
88430W        W92391  21.393  11.702   0.118
88431W        W92392  21.858  12.503   2.424
88432W        W92393  19.825  14.210   2.177
88433W        W92394  21.599  13.676   0.615
88434W        W92395  18.728  14.462   0.369
88435W        W92396  19.121  14.508   1.045
88436W        W92397  18.918  11.262   2.471
88437W        W92398  21.541  12.280   2.746
88438W        W92399  20.946  12.702   1.205
88439W        W92400  20.912  12.390   0.232
88440W        W92401  20.120  13.534   2.372
88441W        W92402  19.926  11.864   1.571
88442W        W92403  20.526  13.951   2.565
88443W        W92404  21.397  12.742   0.987
88444W        W92405  20.299  11.400   1.003
88445W        W92406  18.956  14.094   0.686
88446W        W92407  18.327  11.593   1.285
88447W        W92408  21.113  12.200   1.759
88448W        W92409  18.571  13.817   1.674
88449W        W92410  19.912  14.167   0.544
88450W        W92411  21.304  12.193   0.008
88451W        W92412  18.327  13.951   2.172
88452W        W92413  19.118  13.523   2.652
88453W        W92414  19.491  12.883   1.271
88454W        W92415  19.513  11.288   2.364
88455W        W92416  21.742  11.050   1.661
88456W        W92417  18.961  12.922   0.129
88457W        W92418  18.616  11.955   0.308
88458W        W92419  18.678  13.911   1.102
88459W        W92420  19.809  13.394   1.350
88460W        W92421  21.141  14.253   3.064
88461W        W92422  20.067  11.895   0.748
88462W        W92423  21.450  14.293   1.520
88463W        W92424  21.127  12.146   3.118
88464W        W92425  21.840  13.802   1.252
88465W        W92426  20.467  13.094   2.736
88466W        W92427  18.233  12.645   0.942
88467W        W92428  19.344  13.060   2.515
88468W        W92429  20.548  12.324   0.893
88469W        W92430  20.425  12.814   0.997
88470W        W92431  18.768  12.234   2.471
88471W        W92432  18.753  12.110   3.393
88472W        W92433  18.643  11.027   1.552
88473W        W92434  20.411  11.374   2.113
88474W        W92435  20.059  11.559   3.276
88475W        W92436  20.414  11.708   0.454
88476W        W92437  21.597  14.101   3.208
88477W        W92438  20.564  11.182   3.247
88478W        W92439  21.583  13.483   3.369
88479W        W92440  21.013  11.650   2.965
88480W        W92441  20.813  11.588   1.235
88481W        W92442  21.206  12.722   3.639
88482W        W92443  18.946  14.298   1.625
88483W        W92444  19.604  12.015   0.611
88484W        W92445  19.173  11.299   3.275
88485W        W92446  21.225  11.783   0.956
88486W        W92447  21.592  12.265   0.901
88487W        W92448  19.261  11.018   0.607
88488W        W92449  21.582  11.552   1.642
88489W        W92450  21.732  13.801   0.087
88490W        W92451  18.639  13.004   1.789
88491W        W92452  20.556  11.591   0.019
88492W        W92453  21.690  13.923   1.739
88493W        W92454  21.729  11.117   2.489
88494W        W92455  20.174  12.329   3.043
88495W        W92456  20.267  13.668   0.746
88496W        W92457  20.667  12.962   3.486
88497W        W92458  20.341  10.939   1.795
88498W        W92459  18.953  11.842   1.858
88499W        W92460  18.507  13.042   2.632
88500W        W92461  20.366  14.235   1.338
88501W        W92462  21.560  11.832   2.210
88502W        W92463  20.197  14.179   2.977
88503W        W92464  21.540  13.238   0.182
88504W        W92465  19.975  12.721   1.243
88505W        W92466  21.827  11.232   2.984
88506W        W92467  19.976  13.067   2.578
88507W        W92468  20.193  11.953   2.023
88508W        W92469  21.045  12.251   0.861
88509W        W92470  21.332  11.984   0.503
88510W        W92471  21.141  14.024   0.892
88511W        W92472  20.975  13.627   1.688
88512W        W92473  20.871  12.706   0.666
88513W        W92474  20.304  12.916   1.652
88514W        W92475  21.185  12.704   1.719
88515W        W92476  18.560  11.719   2.143
88516W        W92477  21.338  12.771   2.970
88517W        W92478  21.689  14.389   2.116
88518W        W92479  19.619  13.833   1.518
88519W        W92480  20.626  14.366   2.842
88520W        W92481  20.620  11.696   2.606
88521W        W92482  19.827  14.404   2.667
88522W        W92483  21.524  11.358   1.133
88523W        W92484  21.315  12.677   2.434
88524W        W92485  18.298  11.998   2.472
88525W        W92486  21.158  11.793   1.490
88526W        W92487  21.569  11.944   3.267
88527W        W92488  20.454  13.643   1.485
88528W        W92489  19.710  14.234   1.098
88529W        W92490  18.825  11.414   0.356
88530W        W92491  19.929  11.068   2.166
88531W        W92492  18.957  14.188   0.014
88532W        W92493  19.331  12.654   0.765
88533W        W92494  19.985  13.283   3.078
88534W        W92495  19.815  11.641   1.068
88535W        W92496  21.171  11.238   1.496
88536W        W92497  20.891  14.520   1.824
88537W        W92498  20.303  14.168   2.164
88538W        W92499  19.699  13.205   2.125
88539W        W92500  21.469  13.928   2.251
88540W        W92501  19.163  11.431   1.020
88541W        W92502  19.685  13.728   1.980
88542W        W92503  19.168  11.659   0.045
88543W        W92504  19.969  12.268   2.439
88544W        W92505  20.817  11.134   2.309
88545W        W92506  18.237  12.977   2.194
88546W        W92507  19.941  12.795   0.352
88547W        W92508  19.209  11.110   0.122
88548W        W92509  19.947  12.191   1.173
88549W        W92510  20.917  11.167   2.872
88550W        W92511  19.505  13.179   2.981
88551W        W92512  20.309  12.961   3.198
88552W        W92513  20.926  12.991   3.091
88553W        W92514  20.210  11.131   3.596
88554W        W92515  19.432  11.747   1.989
88555W        W92516  18.858  11.703   1.387
88556W        W92517  18.644  14.415   1.063
88557W        W92518  19.976  13.745   3.188
88558W        W92519  19.011  13.230   0.547
88559W        W92520  20.691  12.615   1.768
88560W        W92521  20.971  12.414   2.167
88561W        W92522  20.176  13.088   2.101
88562W        W92523  20.646  13.462   0.233
88563W        W92524  20.318  11.483   1.561
88564W        W92525  21.797  11.761   0.829
88565W        W92526  18.291  14.350   2.860
88566W        W92527  18.708  13.576   2.392
88567W        W92528  18.275  14.422   0.624
88568W        W92529  20.174  11.692   2.430
88569W        W92530  19.537  13.715   0.279
88570W        W92531  21.442  14.097   0.465
88571W        W92532  20.417  12.750   0.479
88572W        W92533  19.260  11.941   0.996
88573W        W92534  20.092  11.851   0.048
88574W        W92535  20.676  13.416   3.226
88575W        W92536  21.029  11.322   0.843
88576W        W92537  18.359  11.170   0.291
88577W        W92538  19.645  13.489   2.581
88578W        W92539  19.444  13.405   1.673
88579W        W92540  19.186  13.357   0.071
88580W        W92541  18.427  13.598   0.839
88581W        W92542  18.931  12.668   3.281
88582W        W92543  19.635  11.228   3.467
88583W        W92544  20.344  11.370   2.823
88584W        W92545  19.539  11.138   1.104
88585W        W92546  20.598  11.215   0.609
88586W        W92547  18.543  11.147   2.186
88587W        W92548  18.591  12.110   1.556
88588W        W92549  21.280  11.218   1.962
88589W        W92550  18.702  11.716   0.776
88590W        W92551  21.273  11.404   2.392
88591W        W92552  21.669  12.607   0.077
88592W        W92553  18.961  11.365   1.896
88593W        W92554  20.075  11.937   2.836
88594W        W92555  18.223  11.627   0.314
88595W        W92556  19.009  13.016   2.875
88596W        W92557  20.367  12.414   2.054
88597W        W92558  20.234  14.493   0.350
88598W        W92559  18.380  13.000   0.047
88599W        W92560  19.115  13.411   3.173
88600W        W92561  18.636  12.578   2.804
88601W        W92562  19.627  12.683   2.598
88602W        W92563  21.395  11.042   2.860
88603W        W92564  21.793  12.652   2.851
88604W        W92565  21.781  12.852   0.537
88605W        W92566  20.644  13.184   0.636
88606W        W92567  21.118  14.484   0.331
88607W        W92568  20.295  12.474   3.473
88608W        W92569  18.625  13.441   3.513
88609W        W92570  21.831  11.363   3.465
88610W        W92571  21.549  12.291   2.086
88611W        W92572  19.857  14.421   3.563
88612W        W92573  19.712  11.050   0.290
88613W        W92574  21.251  13.649   0.233
88614W        W92575  19.020  11.742   3.119
88615W        W92576  19.454  13.736   2.981
88616W        W92577  21.580  11.727   2.779
88617W        W92578  20.791  14.386   0.747
88618W        W92579  21.030  13.005   2.114
88619W        W92580  19.280  11.421   2.781
88620W        W92581  19.749  12.490   3.538
88621W        W92582  19.252  13.669   0.732
88622W        W92583  21.007  13.167   0.996
88623W        W92584  18.775  11.793   2.720
88624W        W92585  20.104  13.855   1.184
88625W        W92586  21.854  12.415   1.365
88626W        W92587  20.076  11.048   3.084
88627W        W92588  20.856  13.753   2.163
88628W        W92589  21.159  14.097   1.871
88629W        W92590  20.378  13.899   0.299
88630W        W92591  18.388  13.791   3.141
88631W        W92592  19.131  11.783   2.379
88632W        W92593  19.101  11.131   1.489
88633W        W92594  20.722  11.973   2.181
88634W        W92595  19.520  13.144   0.381
88635W        W92596  21.518  13.086   1.880
88636W        W92597  18.845  13.844   3.303
88637W        W92598  21.232  14.526   1.100
88638W        W92599  19.331  11.546   1.545
88639W        W92600  19.100  13.039   1.635
88640W        W92601  21.480  14.546   3.417
88641W        W92602  20.639  12.734   2.350
88642W        W92603  18.488  12.532   0.265
88643W        W92604  21.622  14.190   0.962
88644W        W92605  21.459  11.514   0.581
88645W        W92606  19.598  11.033   2.984
88646W        W92607  21.304  13.835   1.442
88647W        W92608  21.333  12.391   1.347
88648W        W92609  19.450  12.064   1.563
88649W        W92610  19.695  12.326   2.887
88650W        W92611  20.806  13.479   2.750
88651W        W92612  19.456  11.933   2.862
88652W        W92613  19.435  14.399   1.478
88653W        W92614  18.752  14.358   3.112
88654W        W92615  18.864  13.719   0.242
88655W        W92616  21.381  13.477   1.052
88656W        W92617  18.985  12.269   2.938
88657W        W92618  21.758  12.199   0.419
88658W        W92619  19.503  13.256   0.890
88659W        W92620  20.602  12.638   2.971
88660W        W92621  20.493  12.266   2.515
88661W        W92622  19.053  12.638   2.544
88662W        W92623  21.263  14.526   2.373
88663W        W92624  21.054  11.160   3.367
88664W        W92625  18.718  11.310   2.954
88665W        W92626  19.057  12.333   2.007
88666W        W92627  19.426  12.147   0.129
88667W        W92628  18.229  13.906   2.674
88668W        W92629  19.814  12.615   2.117
88669W        W92630  19.637  11.640   0.222
88670W        W92631  18.772  12.456   1.003
88671W        W92632  18.543  14.308   2.440
88672W        W92633  21.338  12.534   0.548
88673W        W92634  21.433  11.450   3.234
88674W        W92635  20.869  13.659   1.197
88675W        W92636  18.467  12.583   3.374
88676W        W92637  21.433  11.047   0.670
88677W        W92638  20.953  13.522   0.681
88678W        W92639  19.855  12.580   0.766
88679W        W92640  21.042  11.384   0.289
88680W        W92641  21.107  11.991   2.475
88681W        W92642  18.816  12.584   1.682
88682W        W92643  19.110  13.523   1.331
88683W        W92644  20.873  12.143   1.296
88684W        W92645  19.896  11.522   1.992
88685W        W92646  21.776  11.420   2.064
88686W        W92647  18.315  14.250   1.440
88687W        W92648  18.824  13.437   0.976
88688W        W92649  18.739  11.054   3.529
88689W        W92650  19.858  13.907   3.631
88690W        W92651  21.613  12.875   1.421
88691W        W92652  20.967  13.052   0.301
88692W        W92653  20.262  14.573   2.513
88693W        W92654  21.119  13.295   3.550
88694W        W92655  19.934  11.005   0.830
88695W        W92656  20.647  11.874   1.689
88696W        W92657  18.333  13.461   2.021
88697W        W92658  19.586  11.423   0.662
88698W        W92659  19.390  12.907   3.511
88699W        W92660  20.384  11.888   1.225
88700W        W92661  20.589  13.298   2.347
88701W        W92662  19.334  13.886   3.505
88702W        W92663  19.185  11.683   0.519
88703W        W92664  20.702  11.825   0.844
88704W        W92665  20.660  13.933   3.081
88705W        W92666  19.345  12.525   1.680
88706W        W92667  19.000  14.223   2.545
88707W        W92668  21.745  14.340   0.146
88708W        W92669  18.608  13.012   3.142
88709W        W92670  20.603  13.274   1.830
88710W        W92671  19.039  12.923   1.072
88711W        W92672  19.410  13.930   2.467
88712W        W92673  19.788  11.349   1.508
88713W        W92674  18.399  13.333   0.438
88714W        W92675  19.918  12.284   0.308
88715W        W92676  18.564  12.833   1.327
88716W        W92677  19.854  11.475   2.791
88717W        W92678  21.526  11.184   0.218
88718W        W92679  21.619  12.930   3.317
88719W        W92680  20.273  14.187   3.469
88720W        W92681  21.831  13.281   2.991
88721W        W92682  21.239  14.079   3.602
88722W        W92683  18.978  14.535   2.080
88723W        W92684  21.837  13.157   0.954
88724W        W92685  20.367  12.424   1.467
88725W        W92686  20.134  11.036   1.357
88726W        W92687  19.193  14.020   1.194
88727W        W92688  19.692  11.761   2.419
88728W        W92689  19.392  11.130   1.888
88729W        W92690  18.455  13.952   0.436
88730W        W92691  20.271  13.316   1.154
88731W        W92692  19.146  14.111   3.033
88732W        W92693  18.623  12.934   0.729
88733W        W92694  18.508  11.477   1.728
88734W        W92695  20.056  13.442   1.785
88735W        W92696  18.308  11.296   0.805
88736W        W92697  20.972  12.502   2.732
88737W        W92698  20.849  11.888   0.304
88738W        W92699  20.027  14.044   1.783
88739W        W92700  19.439  14.148   0.694
88740W        W92701  20.721  11.051   0.124
88741W        W92702  18.521  14.311   1.865
88742W        W92703  20.718  12.069   3.500
88743W        W92704  18.701  11.599   3.499
88744W        W92705  18.432  12.199   0.832
88745W        W92706  19.123  12.188   0.557
88746W        W92707  20.886  12.515   3.374
88747W        W92708  19.229  12.796   2.083
88748W        W92709  20.703  11.082   1.203
88749W        W92710  19.834  14.513   1.706
88750W        W92711  21.048  13.975   2.643
88751W        W92712  20.632  14.124   1.754
88752W        W92713  20.651  13.104   1.348
88753W        W92714  20.113  11.329   0.419
88754W        W92715  21.794  10.957   1.141
88755W        W92716  19.482  12.592   0.304
88756W        W92717  21.648  11.929   1.294
88757W        W92718  20.340  13.099   0.171
88758W        W92719  21.276  13.299   2.919
88759W        W92720  20.930  14.000   0.386
88760W        W92721  19.545  11.675   3.292
88761W        W92722  19.365  12.259   2.533
88762W        W92723  21.457  13.754   2.810
88763W        W92724  20.557  11.704   3.187
88764W        W92725  18.401  12.175   2.964
88765W        W92726  20.161  12.652   2.690
88766W        W92727  18.518  13.410   1.347
88767W        W92728  18.665  12.707   2.237
88768W        W92729  20.982  12.993   2.587
88769W        W92730  20.754  14.373   3.398
88770W        W92731  20.650  12.112   2.951
88771W        W92732  20.927  14.166   1.356
88772W        W92733  19.929  13.886   2.679
88773W        W92734  19.414  14.241   1.948
88774W        W92735  21.219  13.412   2.367
88775W        W92736  20.269  13.484   3.504
88776W        W92737  18.874  13.437   1.843
88777W        W92738  21.220  13.196   1.488
88778W        W92739  20.861  14.262   2.239
88779W        W92740  18.839  13.991   2.109
88780W        W92741  19.860  12.043   3.319
88781W        W92742  20.311  14.209   0.830
88782W        W92743  19.619  13.464   3.468
88783W        W92744  19.745  13.702   0.845
88784W        W92745  18.966  12.442   0.104
88785W        W92746  18.305  14.528   7.003
88786W        W92747  21.386  13.151   4.296
88787W        W92748  21.516  14.236   6.323
88788W        W92749  19.434  14.227   3.849
88789W        W92750  19.517  12.379   4.832
88790W        W92751  19.032  12.227   4.996
88791W        W92752  20.023  13.042   4.430
88792W        W92753  19.698  14.134   6.785
88793W        W92754  18.347  11.695   6.748
88794W        W92755  19.109  10.975   6.550
88795W        W92756  20.803  11.363   5.437
88796W        W92757  20.452  12.234   4.007
88797W        W92758  21.022  11.668   7.098
88798W        W92759  18.388  11.460   6.223
88799W        W92760  20.009  13.469   3.976
88800W        W92761  18.441  12.252   5.669
88801W        W92762  19.334  12.143   6.906
88802W        W92763  21.793  12.002   5.405
88803W        W92764  21.557  13.045   6.264
88804W        W92765  19.865  12.378   5.291
88805W        W92766  20.411  13.717   5.660
88806W        W92767  18.911  13.151   5.892
88807W        W92768  18.270  12.679   5.463
88808W        W92769  19.306  12.651   6.655
88809W        W92770  21.577  12.434   6.909
88810W        W92771  19.193  13.878   5.354
88811W        W92772  20.314  13.567   6.488
88812W        W92773  19.534  12.207   5.713
88813W        W92774  19.826  12.991   5.356
88814W        W92775  20.823  13.764   7.204
88815W        W92776  19.902  13.084   7.214
88816W        W92777  19.883  12.800   6.692
88817W        W92778  18.292  12.191   7.214
88818W        W92779  21.124  13.726   6.813
88819W        W92780  18.705  11.308   4.811
88820W        W92781  19.232  13.566   5.810
88821W        W92782  21.695  13.349   5.100
88822W        W92783  21.108  11.749   5.667
88823W        W92784  21.393  11.702   3.762
88824W        W92785  21.858  12.503   6.068
88825W        W92786  19.825  14.210   5.821
88826W        W92787  21.599  13.676   4.259
88827W        W92788  18.728  14.462   4.013
88828W        W92789  19.121  14.508   4.689
88829W        W92790  18.918  11.262   6.115
88830W        W92791  21.541  12.280   6.390
88831W        W92792  20.946  12.702   4.849
88832W        W92793  20.912  12.390   3.876
88833W        W92794  20.120  13.534   6.016
88834W        W92795  19.926  11.864   5.215
88835W        W92796  20.526  13.951   6.209
88836W        W92797  21.397  12.742   4.631
88837W        W92798  20.299  11.400   4.647
88838W        W92799  18.956  14.094   4.330
88839W        W92800  18.327  11.593   4.929
88840W        W92801  21.113  12.200   5.403
88841W        W92802  18.571  13.817   5.318
88842W        W92803  19.912  14.167   4.188
88843W        W92804  21.304  12.193   3.652
88844W        W92805  18.327  13.951   5.816
88845W        W92806  19.118  13.523   6.296
88846W        W92807  19.491  12.883   4.915
88847W        W92808  19.513  11.288   6.008
88848W        W92809  21.742  11.050   5.305
88849W        W92810  18.961  12.922   3.773
88850W        W92811  18.616  11.955   3.952
88851W        W92812  18.678  13.911   4.746
88852W        W92813  19.809  13.394   4.994
88853W        W92814  21.141  14.253   6.708
88854W        W92815  20.067  11.895   4.392
88855W        W92816  21.450  14.293   5.164
88856W        W92817  21.127  12.146   6.762
88857W        W92818  21.840  13.802   4.896
88858W        W92819  20.467  13.094   6.380
88859W        W92820  18.233  12.645   4.586
88860W        W92821  19.344  13.060   6.159
88861W        W92822  20.548  12.324   4.537
88862W        W92823  20.425  12.814   4.641
88863W        W92824  18.768  12.234   6.115
88864W        W92825  18.753  12.110   7.037
88865W        W92826  18.643  11.027   5.196
88866W        W92827  20.411  11.374   5.757
88867W        W92828  20.059  11.559   6.920
88868W        W92829  20.414  11.708   4.098
88869W        W92830  21.597  14.101   6.852
88870W        W92831  20.564  11.182   6.891
88871W        W92832  21.583  13.483   7.013
88872W        W92833  21.013  11.650   6.609
88873W        W92834  20.813  11.588   4.879
88874W        W92835  21.206  12.722   7.283
88875W        W92836  18.946  14.298   5.269
88876W        W92837  19.604  12.015   4.255
88877W        W92838  19.173  11.299   6.919
88878W        W92839  21.225  11.783   4.600
88879W        W92840  21.592  12.265   4.545
88880W        W92841  19.335  14.482   7.016
88881W        W92842  19.261  11.018   4.251
88882W        W92843  21.582  11.552   5.286
88883W        W92844  21.732  13.801   3.731
88884W        W92845  18.639  13.004   5.433
88885W        W92846  20.556  11.591   3.663
88886W        W92847  21.690  13.923   5.383
88887W        W92848  21.729  11.117   6.133
88888W        W92849  20.174  12.329   6.687
88889W        W92850  20.267  13.668   4.390
88890W        W92851  20.667  12.962   7.130
88891W        W92852  20.341  10.939   5.439
88892W        W92853  18.953  11.842   5.502
88893W        W92854  18.507  13.042   6.276
88894W        W92855  20.366  14.235   4.982
88895W        W92856  21.560  11.832   5.854
88896W        W92857  20.197  14.179   6.621
88897W        W92858  21.540  13.238   3.826
88898W        W92859  19.975  12.721   4.887
88899W        W92860  21.827  11.232   6.628
88900W        W92861  19.976  13.067   6.222
88901W        W92862  20.193  11.953   5.667
88902W        W92863  21.045  12.251   4.505
88903W        W92864  21.332  11.984   4.147
88904W        W92865  21.141  14.024   4.536
88905W        W92866  20.975  13.627   5.332
88906W        W92867  20.871  12.706   4.310
88907W        W92868  20.304  12.916   5.296
88908W        W92869  21.185  12.704   5.363
88909W        W92870  18.560  11.719   5.787
88910W        W92871  21.338  12.771   6.614
88911W        W92872  21.689  14.389   5.760
88912W        W92873  19.619  13.833   5.162
88913W        W92874  20.626  14.366   6.486
88914W        W92875  20.620  11.696   6.250
88915W        W92876  19.827  14.404   6.311
88916W        W92877  21.524  11.358   4.777
88917W        W92878  21.315  12.677   6.078
88918W        W92879  18.298  11.998   6.116
88919W        W92880  21.158  11.793   5.134
88920W        W92881  21.569  11.944   6.911
88921W        W92882  20.454  13.643   5.129
88922W        W92883  19.710  14.234   4.742
88923W        W92884  18.825  11.414   4.000
88924W        W92885  19.929  11.068   5.810
88925W        W92886  18.957  14.188   3.658
88926W        W92887  19.331  12.654   4.409
88927W        W92888  19.985  13.283   6.722
88928W        W92889  19.815  11.641   4.712
88929W        W92890  21.171  11.238   5.140
88930W        W92891  20.891  14.520   5.468
88931W        W92892  20.303  14.168   5.808
88932W        W92893  19.699  13.205   5.769
88933W        W92894  21.469  13.928   5.895
88934W        W92895  19.163  11.431   4.664
88935W        W92896  19.685  13.728   5.624
88936W        W92897  19.168  11.659   3.689
88937W        W92898  19.969  12.268   6.083
88938W        W92899  20.817  11.134   5.953
88939W        W92900  18.237  12.977   5.838
88940W        W92901  19.941  12.795   3.996
88941W        W92902  19.209  11.110   3.766
88942W        W92903  19.947  12.191   4.817
88943W        W92904  20.917  11.167   6.516
88944W        W92905  19.505  13.179   6.625
88945W        W92906  20.309  12.961   6.842
88946W        W92907  20.926  12.991   6.735
88947W        W92908  20.210  11.131   7.240
88948W        W92909  19.432  11.747   5.633
88949W        W92910  18.858  11.703   5.031
88950W        W92911  18.644  14.415   4.707
88951W        W92912  19.976  13.745   6.832
88952W        W92913  19.011  13.230   4.191
88953W        W92914  20.691  12.615   5.412
88954W        W92915  20.971  12.414   5.811
88955W        W92916  20.176  13.088   5.745
88956W        W92917  20.646  13.462   3.877
88957W        W92918  20.318  11.483   5.205
88958W        W92919  21.797  11.761   4.473
88959W        W92920  18.291  14.350   6.504
88960W        W92921  18.708  13.576   6.036
88961W        W92922  18.275  14.422   4.268
88962W        W92923  20.174  11.692   6.074
88963W        W92924  19.537  13.715   3.923
88964W        W92925  21.442  14.097   4.109
88965W        W92926  20.417  12.750   4.123
88966W        W92927  19.260  11.941   4.640
88967W        W92928  20.092  11.851   3.692
88968W        W92929  20.676  13.416   6.870
88969W        W92930  21.029  11.322   4.487
88970W        W92931  18.359  11.170   3.935
88971W        W92932  19.645  13.489   6.225
88972W        W92933  19.444  13.405   5.317
88973W        W92934  19.186  13.357   3.715
88974W        W92935  18.427  13.598   4.483
88975W        W92936  18.931  12.668   6.925
88976W        W92937  19.635  11.228   7.111
88977W        W92938  20.344  11.370   6.467
88978W        W92939  19.539  11.138   4.748
88979W        W92940  20.598  11.215   4.253
88980W        W92941  18.543  11.147   5.830
88981W        W92942  18.591  12.110   5.200
88982W        W92943  21.280  11.218   5.606
88983W        W92944  18.702  11.716   4.420
88984W        W92945  21.273  11.404   6.036
88985W        W92946  21.669  12.607   3.721
88986W        W92947  18.961  11.365   5.540
88987W        W92948  20.075  11.937   6.480
88988W        W92949  18.223  11.627   3.958
88989W        W92950  19.009  13.016   6.519
88990W        W92951  20.367  12.414   5.698
88991W        W92952  20.234  14.493   3.994
88992W        W92953  18.380  13.000   3.691
88993W        W92954  19.115  13.411   6.817
88994W        W92955  18.636  12.578   6.448
88995W        W92956  19.627  12.683   6.242
88996W        W92957  21.395  11.042   6.504
88997W        W92958  21.793  12.652   6.495
88998W        W92959  21.781  12.852   4.181
88999W        W92960  20.644  13.184   4.280
89000W        W92961  21.118  14.484   3.975
89001W        W92962  20.295  12.474   7.117
89002W        W92963  18.625  13.441   7.157
89003W        W92964  21.831  11.363   7.109
89004W        W92965  21.549  12.291   5.730
89005W        W92966  19.857  14.421   7.207
89006W        W92967  19.712  11.050   3.934
89007W        W92968  21.251  13.649   3.877
89008W        W92969  19.020  11.742   6.763
89009W        W92970  19.454  13.736   6.625
89010W        W92971  21.580  11.727   6.423
89011W        W92972  20.791  14.386   4.391
89012W        W92973  21.030  13.005   5.758
89013W        W92974  19.280  11.421   6.425
89014W        W92975  19.749  12.490   7.182
89015W        W92976  19.252  13.669   4.376
89016W        W92977  21.007  13.167   4.640
89017W        W92978  18.775  11.793   6.364
89018W        W92979  20.104  13.855   4.828
89019W        W92980  21.854  12.415   5.009
89020W        W92981  20.076  11.048   6.728
89021W        W92982  20.856  13.753   5.807
89022W        W92983  21.159  14.097   5.515
89023W        W92984  20.378  13.899   3.943
89024W        W92985  19.131  11.783   6.023
89025W        W92986  19.101  11.131   5.133
89026W        W92987  20.722  11.973   5.825
89027W        W92988  19.520  13.144   4.025
89028W        W92989  21.518  13.086   5.524
89029W        W92990  18.845  13.844   6.947
89030W        W92991  21.232  14.526   4.744
89031W        W92992  19.331  11.546   5.189
89032W        W92993  19.100  13.039   5.279
89033W        W92994  19.413  14.450   6.029
89034W        W92995  21.480  14.546   7.061
89035W        W92996  20.639  12.734   5.994
89036W        W92997  18.488  12.532   3.909
89037W        W92998  21.622  14.190   4.606
89038W        W92999  21.459  11.514   4.225
89039W        W93000  19.598  11.033   6.628
89040W        W93001  21.304  13.835   5.086
89041W        W93002  21.333  12.391   4.991
89042W        W93003  19.450  12.064   5.207
89043W        W93004  19.695  12.326   6.531
89044W        W93005  20.806  13.479   6.394
89045W        W93006  19.456  11.933   6.506
89046W        W93007  19.435  14.399   5.122
89047W        W93008  18.752  14.358   6.756
89048W        W93009  18.864  13.719   3.886
89049W        W93010  21.381  13.477   4.696
89050W        W93011  18.985  12.269   6.582
89051W        W93012  21.758  12.199   4.063
89052W        W93013  19.503  13.256   4.534
89053W        W93014  20.602  12.638   6.615
89054W        W93015  20.493  12.266   6.159
89055W        W93016  19.053  12.638   6.188
89056W        W93017  21.263  14.526   6.017
89057W        W93018  21.054  11.160   7.011
89058W        W93019  18.718  11.310   6.598
89059W        W93020  19.057  12.333   5.651
89060W        W93021  19.426  12.147   3.773
89061W        W93022  19.814  12.615   5.761
89062W        W93023  19.637  11.640   3.866
89063W        W93024  18.772  12.456   4.647
89064W        W93025  18.543  14.308   6.084
89065W        W93026  21.338  12.534   4.192
89066W        W93027  21.433  11.450   6.878
89067W        W93028  20.869  13.659   4.841
89068W        W93029  18.467  12.583   7.018
89069W        W93030  21.433  11.047   4.314
89070W        W93031  20.953  13.522   4.325
89071W        W93032  19.855  12.580   4.410
89072W        W93033  21.042  11.384   3.933
89073W        W93034  21.107  11.991   6.119
89074W        W93035  18.816  12.584   5.326
89075W        W93036  19.110  13.523   4.975
89076W        W93037  20.873  12.143   4.940
89077W        W93038  19.896  11.522   5.636
89078W        W93039  21.858  13.433   6.147
89079W        W93040  21.776  11.420   5.708
89080W        W93041  18.315  14.250   5.084
89081W        W93042  18.824  13.437   4.620
89082W        W93043  18.739  11.054   7.173
89083W        W93044  19.858  13.907   7.275
89084W        W93045  21.613  12.875   5.065
89085W        W93046  20.967  13.052   3.945
89086W        W93047  20.262  14.573   6.157
89087W        W93048  21.119  13.295   7.194
89088W        W93049  19.934  11.005   4.474
89089W        W93050  20.647  11.874   5.333
89090W        W93051  18.333  13.461   5.665
89091W        W93052  19.586  11.423   4.306
89092W        W93053  19.390  12.907   7.155
89093W        W93054  20.384  11.888   4.869
89094W        W93055  20.589  13.298   5.991
89095W        W93056  19.334  13.886   7.149
89096W        W93057  19.185  11.683   4.163
89097W        W93058  20.702  11.825   4.488
89098W        W93059  20.660  13.933   6.725
89099W        W93060  19.345  12.525   5.324
89100W        W93061  19.000  14.223   6.189
89101W        W93062  21.745  14.340   3.790
89102W        W93063  18.608  13.012   6.786
89103W        W93064  20.603  13.274   5.474
89104W        W93065  19.039  12.923   4.716
89105W        W93066  19.410  13.930   6.111
89106W        W93067  19.788  11.349   5.152
89107W        W93068  18.399  13.333   4.082
89108W        W93069  19.918  12.284   3.952
89109W        W93070  18.564  12.833   4.971
89110W        W93071  19.854  11.475   6.435
89111W        W93072  21.526  11.184   3.862
89112W        W93073  21.619  12.930   6.961
89113W        W93074  20.273  14.187   7.113
89114W        W93075  21.831  13.281   6.635
89115W        W93076  21.239  14.079   7.246
89116W        W93077  18.978  14.535   5.724
89117W        W93078  21.837  13.157   4.598
89118W        W93079  20.367  12.424   5.111
89119W        W93080  20.134  11.036   5.001
89120W        W93081  19.193  14.020   4.838
89121W        W93082  19.692  11.761   6.063
89122W        W93083  19.392  11.130   5.532
89123W        W93084  18.455  13.952   4.080
89124W        W93085  20.271  13.316   4.798
89125W        W93086  19.146  14.111   6.677
89126W        W93087  18.623  12.934   4.373
89127W        W93088  18.508  11.477   5.372
89128W        W93089  20.056  13.442   5.429
89129W        W93090  18.308  11.296   4.449
89130W        W93091  20.972  12.502   6.376
89131W        W93092  20.849  11.888   3.948
89132W        W93093  21.366  13.560   5.596
89133W        W93094  20.027  14.044   5.427
89134W        W93095  19.439  14.148   4.338
89135W        W93096  20.721  11.051   3.768
89136W        W93097  18.521  14.311   5.509
89137W        W93098  20.718  12.069   7.144
89138W        W93099  18.701  11.599   7.143
89139W        W93100  18.432  12.199   4.476
89140W        W93101  19.123  12.188   4.201
89141W        W93102  20.886  12.515   7.018
89142W        W93103  19.229  12.796   5.727
89143W        W93104  20.703  11.082   4.847
89144W        W93105  19.834  14.513   5.350
89145W        W93106  21.048  13.975   6.287
89146W        W93107  20.632  14.124   5.398
89147W        W93108  20.651  13.104   4.992
89148W        W93109  20.113  11.329   4.063
89149W        W93110  21.794  10.957   4.785
89150W        W93111  19.482  12.592   3.948
89151W        W93112  21.648  11.929   4.938
89152W        W93113  20.340  13.099   3.815
89153W        W93114  21.276  13.299   6.563
89154W        W93115  20.930  14.000   4.030
89155W        W93116  19.545  11.675   6.936
89156W        W93117  19.365  12.259   6.177
89157W        W93118  21.457  13.754   6.454
89158W        W93119  20.557  11.704   6.831
89159W        W93120  18.401  12.175   6.608
89160W        W93121  20.161  12.652   6.334
89161W        W93122  18.518  13.410   4.991
89162W        W93123  18.665  12.707   5.881
89163W        W93124  20.982  12.993   6.231
89164W        W93125  20.650  12.112   6.595
89165W        W93126  20.927  14.166   5.000
89166W        W93127  19.929  13.886   6.323
89167W        W93128  19.414  14.241   5.592
89168W        W93129  21.219  13.412   6.011
89169W        W93130  20.269  13.484   7.148
89170W        W93131  18.874  13.437   5.487
89171W        W93132  21.220  13.196   5.132
89172W        W93133  20.861  14.262   5.883
89173W        W93134  18.839  13.991   5.753
89174W        W93135  19.860  12.043   6.963
89175W        W93136  20.311  14.209   4.474
89176W        W93137  19.619  13.464   7.112
89177W        W93138  19.745  13.702   4.489
89178W        W93139  18.966  12.442   3.748
89179W        W93140  18.305  14.528  10.648
89180W        W93141  18.681  13.421  10.171
89181W        W93142  21.386  13.151   7.941
89182W        W93143  21.516  14.236   9.968
89183W        W93144  19.434  14.227   7.494
89184W        W93145  19.517  12.379   8.477
89185W        W93146  19.032  12.227   8.641
89186W        W93147  20.023  13.042   8.075
89187W        W93148  19.698  14.134  10.430
89188W        W93149  18.347  11.695  10.393
89189W        W93150  19.109  10.975  10.195
89190W        W93151  20.803  11.363   9.082
89191W        W93152  20.452  12.234   7.652
89192W        W93153  21.022  11.668  10.743
89193W        W93154  18.388  11.460   9.868
89194W        W93155  18.487  14.079  10.889
89195W        W93156  20.009  13.469   7.621
89196W        W93157  18.441  12.252   9.314
89197W        W93158  19.334  12.143  10.551
89198W        W93159  21.793  12.002   9.050
89199W        W93160  21.557  13.045   9.909
89200W        W93161  19.865  12.378   8.936
89201W        W93162  20.411  13.717   9.305
89202W        W93163  18.911  13.151   9.537
89203W        W93164  18.270  12.679   9.108
89204W        W93165  19.306  12.651  10.300
89205W        W93166  21.577  12.434  10.554
89206W        W93167  19.193  13.878   8.999
89207W        W93168  20.314  13.567  10.133
89208W        W93169  19.534  12.207   9.358
89209W        W93170  19.826  12.991   9.001
89210W        W93171  20.823  13.764  10.849
89211W        W93172  19.902  13.084  10.859
89212W        W93173  19.883  12.800  10.337
89213W        W93174  18.292  12.191  10.859
89214W        W93175  21.124  13.726  10.458
89215W        W93176  18.705  11.308   8.456
89216W        W93177  19.232  13.566   9.455
89217W        W93178  21.695  13.349   8.745
89218W        W93179  21.108  11.749   9.312
89219W        W93180  21.393  11.702   7.407
89220W        W93181  21.858  12.503   9.713
89221W        W93182  19.825  14.210   9.466
89222W        W93183  21.599  13.676   7.904
89223W        W93184  18.728  14.462   7.658
89224W        W93185  19.121  14.508   8.334
89225W        W93186  18.918  11.262   9.760
89226W        W93187  21.541  12.280  10.035
89227W        W93188  20.946  12.702   8.494
89228W        W93189  20.912  12.390   7.521
89229W        W93190  20.120  13.534   9.661
89230W        W93191  19.926  11.864   8.860
89231W        W93192  20.526  13.951   9.854
89232W        W93193  21.397  12.742   8.276
89233W        W93194  20.299  11.400   8.292
89234W        W93195  18.956  14.094   7.975
89235W        W93196  18.327  11.593   8.574
89236W        W93197  21.113  12.200   9.048
89237W        W93198  18.571  13.817   8.963
89238W        W93199  19.912  14.167   7.833
89239W        W93200  21.304  12.193   7.297
89240W        W93201  18.327  13.951   9.461
89241W        W93202  19.118  13.523   9.941
89242W        W93203  19.491  12.883   8.560
89243W        W93204  19.513  11.288   9.653
89244W        W93205  21.742  11.050   8.950
89245W        W93206  18.961  12.922   7.418
89246W        W93207  18.616  11.955   7.597
89247W        W93208  18.678  13.911   8.391
89248W        W93209  19.809  13.394   8.639
89249W        W93210  21.141  14.253  10.353
89250W        W93211  20.067  11.895   8.037
89251W        W93212  21.450  14.293   8.809
89252W        W93213  21.127  12.146  10.407
89253W        W93214  21.840  13.802   8.541
89254W        W93215  20.467  13.094  10.025
89255W        W93216  18.233  12.645   8.231
89256W        W93217  19.344  13.060   9.804
89257W        W93218  20.548  12.324   8.182
89258W        W93219  20.425  12.814   8.286
89259W        W93220  18.768  12.234   9.760
89260W        W93221  18.753  12.110  10.682
89261W        W93222  18.643  11.027   8.841
89262W        W93223  20.411  11.374   9.402
89263W        W93224  20.059  11.559  10.565
89264W        W93225  20.414  11.708   7.743
89265W        W93226  21.597  14.101  10.497
89266W        W93227  20.564  11.182  10.536
89267W        W93228  21.583  13.483  10.658
89268W        W93229  21.013  11.650  10.254
89269W        W93230  20.813  11.588   8.524
89270W        W93231  21.206  12.722  10.928
89271W        W93232  18.946  14.298   8.914
89272W        W93233  19.604  12.015   7.900
89273W        W93234  19.173  11.299  10.564
89274W        W93235  21.225  11.783   8.245
89275W        W93236  21.592  12.265   8.190
89276W        W93237  19.335  14.482  10.661
89277W        W93238  19.261  11.018   7.896
89278W        W93239  21.582  11.552   8.931
89279W        W93240  21.732  13.801   7.376
89280W        W93241  18.639  13.004   9.078
89281W        W93242  20.556  11.591   7.308
89282W        W93243  21.690  13.923   9.028
89283W        W93244  21.729  11.117   9.778
89284W        W93245  20.174  12.329  10.332
89285W        W93246  20.267  13.668   8.035
89286W        W93247  20.667  12.962  10.775
89287W        W93248  20.341  10.939   9.084
89288W        W93249  18.953  11.842   9.147
89289W        W93250  18.507  13.042   9.921
89290W        W93251  20.366  14.235   8.627
89291W        W93252  21.560  11.832   9.499
89292W        W93253  20.197  14.179  10.266
89293W        W93254  21.540  13.238   7.471
89294W        W93255  19.975  12.721   8.532
89295W        W93256  21.827  11.232  10.273
89296W        W93257  19.976  13.067   9.867
89297W        W93258  20.193  11.953   9.312
89298W        W93259  21.045  12.251   8.150
89299W        W93260  21.332  11.984   7.792
89300W        W93261  21.141  14.024   8.181
89301W        W93262  20.975  13.627   8.977
89302W        W93263  20.871  12.706   7.955
89303W        W93264  20.304  12.916   8.941
89304W        W93265  21.185  12.704   9.008
89305W        W93266  18.560  11.719   9.432
89306W        W93267  21.338  12.771  10.259
89307W        W93268  21.689  14.389   9.405
89308W        W93269  19.619  13.833   8.807
89309W        W93270  20.626  14.366  10.131
89310W        W93271  20.620  11.696   9.895
89311W        W93272  19.827  14.404   9.956
89312W        W93273  21.524  11.358   8.422
89313W        W93274  21.315  12.677   9.723
89314W        W93275  18.298  11.998   9.761
89315W        W93276  21.158  11.793   8.779
89316W        W93277  21.569  11.944  10.556
89317W        W93278  20.454  13.643   8.774
89318W        W93279  19.710  14.234   8.387
89319W        W93280  18.825  11.414   7.645
89320W        W93281  19.929  11.068   9.455
89321W        W93282  18.957  14.188   7.303
89322W        W93283  19.331  12.654   8.054
89323W        W93284  19.985  13.283  10.367
89324W        W93285  19.815  11.641   8.357
89325W        W93286  21.171  11.238   8.785
89326W        W93287  20.891  14.520   9.113
89327W        W93288  20.303  14.168   9.453
89328W        W93289  19.699  13.205   9.414
89329W        W93290  21.469  13.928   9.540
89330W        W93291  19.163  11.431   8.309
89331W        W93292  19.685  13.728   9.269
89332W        W93293  19.168  11.659   7.334
89333W        W93294  19.969  12.268   9.728
89334W        W93295  20.817  11.134   9.598
89335W        W93296  18.237  12.977   9.483
89336W        W93297  19.941  12.795   7.641
89337W        W93298  19.209  11.110   7.411
89338W        W93299  19.947  12.191   8.462
89339W        W93300  20.917  11.167  10.161
89340W        W93301  19.505  13.179  10.270
89341W        W93302  20.309  12.961  10.487
89342W        W93303  20.926  12.991  10.380
89343W        W93304  20.210  11.131  10.885
89344W        W93305  19.432  11.747   9.278
89345W        W93306  18.858  11.703   8.676
89346W        W93307  18.644  14.415   8.352
89347W        W93308  19.976  13.745  10.477
89348W        W93309  19.011  13.230   7.836
89349W        W93310  20.691  12.615   9.057
89350W        W93311  20.971  12.414   9.456
89351W        W93312  20.176  13.088   9.390
89352W        W93313  20.646  13.462   7.522
89353W        W93314  20.318  11.483   8.850
89354W        W93315  21.797  11.761   8.118
89355W        W93316  18.291  14.350  10.149
89356W        W93317  18.708  13.576   9.681
89357W        W93318  18.275  14.422   7.913
89358W        W93319  20.174  11.692   9.719
89359W        W93320  19.537  13.715   7.568
89360W        W93321  21.442  14.097   7.754
89361W        W93322  20.417  12.750   7.768
89362W        W93323  19.260  11.941   8.285
89363W        W93324  20.092  11.851   7.337
89364W        W93325  20.676  13.416  10.515
89365W        W93326  21.029  11.322   8.132
89366W        W93327  18.359  11.170   7.580
89367W        W93328  19.645  13.489   9.870
89368W        W93329  19.444  13.405   8.962
89369W        W93330  19.186  13.357   7.360
89370W        W93331  18.427  13.598   8.128
89371W        W93332  18.931  12.668  10.570
89372W        W93333  19.635  11.228  10.756
89373W        W93334  20.344  11.370  10.112
89374W        W93335  19.539  11.138   8.393
89375W        W93336  20.598  11.215   7.898
89376W        W93337  18.543  11.147   9.475
89377W        W93338  18.591  12.110   8.845
89378W        W93339  21.280  11.218   9.251
89379W        W93340  18.702  11.716   8.065
89380W        W93341  21.273  11.404   9.681
89381W        W93342  21.669  12.607   7.366
89382W        W93343  18.961  11.365   9.185
89383W        W93344  20.075  11.937  10.125
89384W        W93345  18.223  11.627   7.603
89385W        W93346  19.009  13.016  10.164
89386W        W93347  20.367  12.414   9.343
89387W        W93348  20.234  14.493   7.639
89388W        W93349  18.380  13.000   7.336
89389W        W93350  19.115  13.411  10.462
89390W        W93351  18.636  12.578  10.093
89391W        W93352  19.627  12.683   9.887
89392W        W93353  21.395  11.042  10.149
89393W        W93354  21.793  12.652  10.140
89394W        W93355  21.781  12.852   7.826
89395W        W93356  20.644  13.184   7.925
89396W        W93357  21.118  14.484   7.620
89397W        W93358  20.295  12.474  10.762
89398W        W93359  18.625  13.441  10.802
89399W        W93360  21.831  11.363  10.754
89400W        W93361  21.549  12.291   9.375
89401W        W93362  19.857  14.421  10.852
89402W        W93363  19.712  11.050   7.579
89403W        W93364  21.251  13.649   7.522
89404W        W93365  19.020  11.742  10.408
89405W        W93366  19.454  13.736  10.270
89406W        W93367  21.580  11.727  10.068
89407W        W93368  20.791  14.386   8.036
89408W        W93369  21.030  13.005   9.403
89409W        W93370  19.280  11.421  10.070
89410W        W93371  19.749  12.490  10.827
89411W        W93372  19.252  13.669   8.021
89412W        W93373  21.007  13.167   8.285
89413W        W93374  18.775  11.793  10.009
89414W        W93375  20.104  13.855   8.473
89415W        W93376  21.854  12.415   8.654
89416W        W93377  20.076  11.048  10.373
89417W        W93378  20.856  13.753   9.452
89418W        W93379  21.159  14.097   9.160
89419W        W93380  20.378  13.899   7.588
89420W        W93381  18.388  13.791  10.430
89421W        W93382  19.131  11.783   9.668
89422W        W93383  19.101  11.131   8.778
89423W        W93384  20.722  11.973   9.470
89424W        W93385  19.520  13.144   7.670
89425W        W93386  21.518  13.086   9.169
89426W        W93387  18.845  13.844  10.592
89427W        W93388  21.232  14.526   8.389
89428W        W93389  19.331  11.546   8.834
89429W        W93390  19.100  13.039   8.924
89430W        W93391  19.413  14.450   9.674
89431W        W93392  21.480  14.546  10.706
89432W        W93393  20.639  12.734   9.639
89433W        W93394  18.488  12.532   7.554
89434W        W93395  21.622  14.190   8.251
89435W        W93396  21.459  11.514   7.870
89436W        W93397  19.598  11.033  10.273
89437W        W93398  21.304  13.835   8.731
89438W        W93399  21.333  12.391   8.636
89439W        W93400  19.450  12.064   8.852
89440W        W93401  19.695  12.326  10.176
89441W        W93402  20.806  13.479  10.039
89442W        W93403  19.456  11.933  10.151
89443W        W93404  19.435  14.399   8.767
89444W        W93405  18.752  14.358  10.401
89445W        W93406  18.864  13.719   7.531
89446W        W93407  21.381  13.477   8.341
89447W        W93408  18.985  12.269  10.227
89448W        W93409  21.758  12.199   7.708
89449W        W93410  19.503  13.256   8.179
89450W        W93411  20.602  12.638  10.260
89451W        W93412  20.493  12.266   9.804
89452W        W93413  19.053  12.638   9.833
89453W        W93414  21.263  14.526   9.662
89454W        W93415  21.054  11.160  10.656
89455W        W93416  18.718  11.310  10.243
89456W        W93417  19.057  12.333   9.296
89457W        W93418  19.426  12.147   7.418
89458W        W93419  18.229  13.906   9.963
89459W        W93420  19.814  12.615   9.406
89460W        W93421  19.637  11.640   7.511
89461W        W93422  18.772  12.456   8.292
89462W        W93423  18.543  14.308   9.729
89463W        W93424  21.338  12.534   7.837
89464W        W93425  21.433  11.450  10.523
89465W        W93426  20.869  13.659   8.486
89466W        W93427  18.467  12.583  10.663
89467W        W93428  21.433  11.047   7.959
89468W        W93429  20.953  13.522   7.970
89469W        W93430  19.855  12.580   8.055
89470W        W93431  21.042  11.384   7.578
89471W        W93432  21.107  11.991   9.764
89472W        W93433  18.816  12.584   8.971
89473W        W93434  19.110  13.523   8.620
89474W        W93435  20.873  12.143   8.585
89475W        W93436  19.896  11.522   9.281
89476W        W93437  21.858  13.433   9.792
89477W        W93438  21.776  11.420   9.353
89478W        W93439  18.315  14.250   8.729
89479W        W93440  18.824  13.437   8.265
89480W        W93441  18.739  11.054  10.818
89481W        W93442  19.858  13.907  10.920
89482W        W93443  21.613  12.875   8.710
89483W        W93444  20.967  13.052   7.590
89484W        W93445  20.262  14.573   9.802
89485W        W93446  21.119  13.295  10.839
89486W        W93447  19.934  11.005   8.119
89487W        W93448  20.647  11.874   8.978
89488W        W93449  18.333  13.461   9.310
89489W        W93450  19.586  11.423   7.951
89490W        W93451  19.390  12.907  10.800
89491W        W93452  20.384  11.888   8.514
89492W        W93453  20.589  13.298   9.636
89493W        W93454  18.743  13.903  10.071
89494W        W93455  19.334  13.886  10.794
89495W        W93456  19.185  11.683   7.808
89496W        W93457  20.702  11.825   8.133
89497W        W93458  20.660  13.933  10.370
89498W        W93459  19.345  12.525   8.969
89499W        W93460  19.000  14.223   9.834
89500W        W93461  21.745  14.340   7.435
89501W        W93462  18.608  13.012  10.431
89502W        W93463  20.603  13.274   9.119
89503W        W93464  19.039  12.923   8.361
89504W        W93465  19.410  13.930   9.756
89505W        W93466  19.788  11.349   8.797
89506W        W93467  18.399  13.333   7.727
89507W        W93468  19.918  12.284   7.597
89508W        W93469  18.564  12.833   8.616
89509W        W93470  19.854  11.475  10.080
89510W        W93471  21.526  11.184   7.507
89511W        W93472  21.619  12.930  10.606
89512W        W93473  20.273  14.187  10.758
89513W        W93474  21.831  13.281  10.280
89514W        W93475  21.239  14.079  10.891
89515W        W93476  18.978  14.535   9.369
89516W        W93477  21.837  13.157   8.243
89517W        W93478  20.367  12.424   8.756
89518W        W93479  20.134  11.036   8.646
89519W        W93480  19.193  14.020   8.483
89520W        W93481  19.692  11.761   9.708
89521W        W93482  19.392  11.130   9.177
89522W        W93483  18.455  13.952   7.725
89523W        W93484  20.271  13.316   8.443
89524W        W93485  19.146  14.111  10.322
89525W        W93486  18.623  12.934   8.018
89526W        W93487  18.508  11.477   9.017
89527W        W93488  20.056  13.442   9.074
89528W        W93489  18.308  11.296   8.094
89529W        W93490  20.972  12.502  10.021
89530W        W93491  20.849  11.888   7.593
89531W        W93492  21.366  13.560   9.241
89532W        W93493  20.027  14.044   9.072
89533W        W93494  19.439  14.148   7.983
89534W        W93495  20.721  11.051   7.413
89535W        W93496  18.521  14.311   9.154
89536W        W93497  20.718  12.069  10.789
89537W        W93498  18.701  11.599  10.788
89538W        W93499  18.432  12.199   8.121
89539W        W93500  19.123  12.188   7.846
89540W        W93501  20.886  12.515  10.663
89541W        W93502  19.229  12.796   9.372
89542W        W93503  20.703  11.082   8.492
89543W        W93504  19.834  14.513   8.995
89544W        W93505  21.048  13.975   9.932
89545W        W93506  20.632  14.124   9.043
89546W        W93507  20.651  13.104   8.637
89547W        W93508  20.113  11.329   7.708
89548W        W93509  21.794  10.957   8.430
89549W        W93510  19.482  12.592   7.593
89550W        W93511  21.648  11.929   8.583
89551W        W93512  20.340  13.099   7.460
89552W        W93513  21.276  13.299  10.208
89553W        W93514  20.930  14.000   7.675
89554W        W93515  19.545  11.675  10.581
89555W        W93516  19.365  12.259   9.822
89556W        W93517  21.457  13.754  10.099
89557W        W93518  20.557  11.704  10.476
89558W        W93519  18.401  12.175  10.253
89559W        W93520  20.161  12.652   9.979
89560W        W93521  18.518  13.410   8.636
89561W        W93522  18.665  12.707   9.526
89562W        W93523  20.982  12.993   9.876
89563W        W93524  20.754  14.373  10.687
89564W        W93525  20.650  12.112  10.240
89565W        W93526  20.927  14.166   8.645
89566W        W93527  19.929  13.886   9.968
89567W        W93528  19.414  14.241   9.237
89568W        W93529  21.219  13.412   9.656
89569W        W93530  20.269  13.484  10.793
89570W        W93531  18.874  13.437   9.132
89571W        W93532  21.220  13.196   8.777
89572W        W93533  20.861  14.262   9.528
89573W        W93534  18.839  13.991   9.398
89574W        W93535  19.860  12.043  10.608
89575W        W93536  20.311  14.209   8.119
89576W        W93537  19.619  13.464  10.757
89577W        W93538  19.745  13.702   8.134
89578W        W93539  18.966  12.442   7.393
89579W        W93540  18.305  14.528  14.292
89580W        W93541  18.681  13.421  13.815
89581W        W93542  21.386  13.151  11.585
89582W        W93543  21.516  14.236  13.612
89583W        W93544  19.434  14.227  11.138
89584W        W93545  19.517  12.379  12.121
89585W        W93546  19.032  12.227  12.285
89586W        W93547  20.023  13.042  11.719
89587W        W93548  19.698  14.134  14.074
89588W        W93549  18.347  11.695  14.037
89589W        W93550  19.109  10.975  13.839
89590W        W93551  20.803  11.363  12.726
89591W        W93552  20.452  12.234  11.296
89592W        W93553  21.022  11.668  14.387
89593W        W93554  18.388  11.460  13.512
89594W        W93555  20.009  13.469  11.265
89595W        W93556  18.441  12.252  12.958
89596W        W93557  19.334  12.143  14.195
89597W        W93558  21.793  12.002  12.694
89598W        W93559  21.557  13.045  13.553
89599W        W93560  19.865  12.378  12.580
89600W        W93561  20.411  13.717  12.949
89601W        W93562  18.911  13.151  13.181
89602W        W93563  18.270  12.679  12.752
89603W        W93564  19.306  12.651  13.944
89604W        W93565  21.577  12.434  14.198
89605W        W93566  19.193  13.878  12.643
89606W        W93567  20.314  13.567  13.777
89607W        W93568  19.534  12.207  13.002
89608W        W93569  19.826  12.991  12.645
89609W        W93570  20.823  13.764  14.493
89610W        W93571  19.902  13.084  14.503
89611W        W93572  19.883  12.800  13.981
89612W        W93573  18.292  12.191  14.503
89613W        W93574  21.124  13.726  14.102
89614W        W93575  18.705  11.308  12.100
89615W        W93576  19.232  13.566  13.099
89616W        W93577  21.695  13.349  12.389
89617W        W93578  21.108  11.749  12.956
89618W        W93579  21.393  11.702  11.051
89619W        W93580  21.858  12.503  13.357
89620W        W93581  19.825  14.210  13.110
89621W        W93582  21.599  13.676  11.548
89622W        W93583  18.728  14.462  11.302
89623W        W93584  19.121  14.508  11.978
89624W        W93585  18.918  11.262  13.404
89625W        W93586  21.541  12.280  13.679
89626W        W93587  20.946  12.702  12.138
89627W        W93588  20.912  12.390  11.165
89628W        W93589  20.120  13.534  13.305
89629W        W93590  19.926  11.864  12.504
89630W        W93591  20.526  13.951  13.498
89631W        W93592  21.397  12.742  11.920
89632W        W93593  20.299  11.400  11.936
89633W        W93594  18.956  14.094  11.619
89634W        W93595  18.327  11.593  12.218
89635W        W93596  21.113  12.200  12.692
89636W        W93597  18.571  13.817  12.607
89637W        W93598  19.912  14.167  11.477
89638W        W93599  21.304  12.193  10.941
89639W        W93600  18.327  13.951  13.105
89640W        W93601  19.118  13.523  13.585
89641W        W93602  19.491  12.883  12.204
89642W        W93603  19.513  11.288  13.297
89643W        W93604  21.742  11.050  12.594
89644W        W93605  18.961  12.922  11.062
89645W        W93606  18.616  11.955  11.241
89646W        W93607  18.678  13.911  12.035
89647W        W93608  19.809  13.394  12.283
89648W        W93609  21.141  14.253  13.997
89649W        W93610  20.067  11.895  11.681
89650W        W93611  21.450  14.293  12.453
89651W        W93612  21.127  12.146  14.051
89652W        W93613  21.840  13.802  12.185
89653W        W93614  20.467  13.094  13.669
89654W        W93615  18.233  12.645  11.875
89655W        W93616  19.344  13.060  13.448
89656W        W93617  20.548  12.324  11.826
89657W        W93618  20.425  12.814  11.930
89658W        W93619  18.768  12.234  13.404
89659W        W93620  18.753  12.110  14.326
89660W        W93621  18.643  11.027  12.485
89661W        W93622  20.411  11.374  13.046
89662W        W93623  20.059  11.559  14.209
89663W        W93624  20.414  11.708  11.387
89664W        W93625  21.597  14.101  14.141
89665W        W93626  20.564  11.182  14.180
89666W        W93627  21.583  13.483  14.302
89667W        W93628  21.013  11.650  13.898
89668W        W93629  20.813  11.588  12.168
89669W        W93630  21.206  12.722  14.572
89670W        W93631  18.946  14.298  12.558
89671W        W93632  19.604  12.015  11.544
89672W        W93633  19.173  11.299  14.208
89673W        W93634  21.225  11.783  11.889
89674W        W93635  21.592  12.265  11.834
89675W        W93636  19.335  14.482  14.305
89676W        W93637  19.261  11.018  11.540
89677W        W93638  21.582  11.552  12.575
89678W        W93639  21.732  13.801  11.020
89679W        W93640  18.639  13.004  12.722
89680W        W93641  20.556  11.591  10.952
89681W        W93642  21.690  13.923  12.672
89682W        W93643  21.729  11.117  13.422
89683W        W93644  20.174  12.329  13.976
89684W        W93645  20.267  13.668  11.679
89685W        W93646  20.667  12.962  14.419
89686W        W93647  20.341  10.939  12.728
89687W        W93648  18.953  11.842  12.791
89688W        W93649  18.507  13.042  13.565
89689W        W93650  20.366  14.235  12.271
89690W        W93651  21.560  11.832  13.143
89691W        W93652  20.197  14.179  13.910
89692W        W93653  21.540  13.238  11.115
89693W        W93654  19.975  12.721  12.176
89694W        W93655  21.827  11.232  13.917
89695W        W93656  19.976  13.067  13.511
89696W        W93657  20.193  11.953  12.956
89697W        W93658  21.045  12.251  11.794
89698W        W93659  21.332  11.984  11.436
89699W        W93660  21.141  14.024  11.825
89700W        W93661  20.975  13.627  12.621
89701W        W93662  20.871  12.706  11.599
89702W        W93663  20.304  12.916  12.585
89703W        W93664  21.185  12.704  12.652
89704W        W93665  18.560  11.719  13.076
89705W        W93666  21.338  12.771  13.903
89706W        W93667  21.689  14.389  13.049
89707W        W93668  19.619  13.833  12.451
89708W        W93669  20.626  14.366  13.775
89709W        W93670  20.620  11.696  13.539
89710W        W93671  19.827  14.404  13.600
89711W        W93672  21.524  11.358  12.066
89712W        W93673  21.315  12.677  13.367
89713W        W93674  18.298  11.998  13.405
89714W        W93675  21.158  11.793  12.423
89715W        W93676  21.569  11.944  14.200
89716W        W93677  20.454  13.643  12.418
89717W        W93678  19.710  14.234  12.031
89718W        W93679  18.825  11.414  11.289
89719W        W93680  19.929  11.068  13.099
89720W        W93681  18.957  14.188  10.947
89721W        W93682  19.331  12.654  11.698
89722W        W93683  19.985  13.283  14.011
89723W        W93684  19.815  11.641  12.001
89724W        W93685  21.171  11.238  12.429
89725W        W93686  20.891  14.520  12.757
89726W        W93687  20.303  14.168  13.097
89727W        W93688  19.699  13.205  13.058
89728W        W93689  21.469  13.928  13.184
89729W        W93690  19.163  11.431  11.953
89730W        W93691  19.685  13.728  12.913
89731W        W93692  19.168  11.659  10.978
89732W        W93693  19.969  12.268  13.372
89733W        W93694  20.817  11.134  13.242
89734W        W93695  18.237  12.977  13.127
89735W        W93696  19.941  12.795  11.285
89736W        W93697  19.209  11.110  11.055
89737W        W93698  19.947  12.191  12.106
89738W        W93699  20.917  11.167  13.805
89739W        W93700  19.505  13.179  13.914
89740W        W93701  20.309  12.961  14.131
89741W        W93702  20.926  12.991  14.024
89742W        W93703  20.210  11.131  14.529
89743W        W93704  19.432  11.747  12.922
89744W        W93705  18.858  11.703  12.320
89745W        W93706  18.644  14.415  11.996
89746W        W93707  19.976  13.745  14.121
89747W        W93708  19.011  13.230  11.480
89748W        W93709  20.691  12.615  12.701
89749W        W93710  20.971  12.414  13.100
89750W        W93711  20.176  13.088  13.034
89751W        W93712  20.646  13.462  11.166
89752W        W93713  20.318  11.483  12.494
89753W        W93714  21.797  11.761  11.762
89754W        W93715  18.291  14.350  13.793
89755W        W93716  18.708  13.576  13.325
89756W        W93717  18.275  14.422  11.557
89757W        W93718  20.174  11.692  13.363
89758W        W93719  19.537  13.715  11.212
89759W        W93720  21.442  14.097  11.398
89760W        W93721  20.417  12.750  11.412
89761W        W93722  19.260  11.941  11.929
89762W        W93723  20.092  11.851  10.981
89763W        W93724  20.676  13.416  14.159
89764W        W93725  21.029  11.322  11.776
89765W        W93726  18.359  11.170  11.224
89766W        W93727  19.645  13.489  13.514
89767W        W93728  19.444  13.405  12.606
89768W        W93729  19.186  13.357  11.004
89769W        W93730  18.427  13.598  11.772
89770W        W93731  18.931  12.668  14.214
89771W        W93732  19.635  11.228  14.400
89772W        W93733  20.344  11.370  13.756
89773W        W93734  19.539  11.138  12.037
89774W        W93735  20.598  11.215  11.542
89775W        W93736  18.543  11.147  13.119
89776W        W93737  18.591  12.110  12.489
89777W        W93738  21.280  11.218  12.895
89778W        W93739  18.702  11.716  11.709
89779W        W93740  21.273  11.404  13.325
89780W        W93741  21.669  12.607  11.010
89781W        W93742  18.961  11.365  12.829
89782W        W93743  20.075  11.937  13.769
89783W        W93744  18.223  11.627  11.247
89784W        W93745  19.009  13.016  13.808
89785W        W93746  20.367  12.414  12.987
89786W        W93747  20.234  14.493  11.283
89787W        W93748  18.380  13.000  10.980
89788W        W93749  19.115  13.411  14.106
89789W        W93750  18.636  12.578  13.737
89790W        W93751  19.627  12.683  13.531
89791W        W93752  21.395  11.042  13.793
89792W        W93753  21.793  12.652  13.784
89793W        W93754  21.781  12.852  11.470
89794W        W93755  20.644  13.184  11.569
89795W        W93756  21.118  14.484  11.264
89796W        W93757  20.295  12.474  14.406
89797W        W93758  18.625  13.441  14.446
89798W        W93759  21.831  11.363  14.398
89799W        W93760  21.549  12.291  13.019
89800W        W93761  19.857  14.421  14.496
89801W        W93762  19.712  11.050  11.223
89802W        W93763  21.251  13.649  11.166
89803W        W93764  19.020  11.742  14.052
89804W        W93765  19.454  13.736  13.914
89805W        W93766  21.580  11.727  13.712
89806W        W93767  20.791  14.386  11.680
89807W        W93768  21.030  13.005  13.047
89808W        W93769  19.280  11.421  13.714
89809W        W93770  19.749  12.490  14.471
89810W        W93771  19.252  13.669  11.665
89811W        W93772  21.007  13.167  11.929
89812W        W93773  18.775  11.793  13.653
89813W        W93774  20.104  13.855  12.117
89814W        W93775  21.854  12.415  12.298
89815W        W93776  20.076  11.048  14.017
89816W        W93777  20.856  13.753  13.096
89817W        W93778  21.159  14.097  12.804
89818W        W93779  20.378  13.899  11.232
89819W        W93780  18.388  13.791  14.074
89820W        W93781  19.131  11.783  13.312
89821W        W93782  19.101  11.131  12.422
89822W        W93783  20.722  11.973  13.114
89823W        W93784  19.520  13.144  11.314
89824W        W93785  21.518  13.086  12.813
89825W        W93786  18.845  13.844  14.236
89826W        W93787  21.232  14.526  12.033
89827W        W93788  19.331  11.546  12.478
89828W        W93789  19.100  13.039  12.568
89829W        W93790  19.413  14.450  13.318
89830W        W93791  21.480  14.546  14.350
89831W        W93792  20.639  12.734  13.283
89832W        W93793  18.488  12.532  11.198
89833W        W93794  21.622  14.190  11.895
89834W        W93795  21.459  11.514  11.514
89835W        W93796  19.598  11.033  13.917
89836W        W93797  21.304  13.835  12.375
89837W        W93798  21.333  12.391  12.280
89838W        W93799  19.450  12.064  12.496
89839W        W93800  19.695  12.326  13.820
89840W        W93801  20.806  13.479  13.683
89841W        W93802  19.456  11.933  13.795
89842W        W93803  19.435  14.399  12.411
89843W        W93804  18.752  14.358  14.045
89844W        W93805  18.864  13.719  11.175
89845W        W93806  21.381  13.477  11.985
89846W        W93807  18.985  12.269  13.871
89847W        W93808  21.758  12.199  11.352
89848W        W93809  19.503  13.256  11.823
89849W        W93810  20.602  12.638  13.904
89850W        W93811  20.493  12.266  13.448
89851W        W93812  19.053  12.638  13.477
89852W        W93813  21.263  14.526  13.306
89853W        W93814  21.054  11.160  14.300
89854W        W93815  18.718  11.310  13.887
89855W        W93816  19.057  12.333  12.940
89856W        W93817  19.426  12.147  11.062
89857W        W93818  18.229  13.906  13.607
89858W        W93819  19.814  12.615  13.050
89859W        W93820  19.637  11.640  11.155
89860W        W93821  18.772  12.456  11.936
89861W        W93822  18.543  14.308  13.373
89862W        W93823  21.338  12.534  11.481
89863W        W93824  21.433  11.450  14.167
89864W        W93825  20.869  13.659  12.130
89865W        W93826  18.467  12.583  14.307
89866W        W93827  21.433  11.047  11.603
89867W        W93828  20.953  13.522  11.614
89868W        W93829  19.855  12.580  11.699
89869W        W93830  21.042  11.384  11.222
89870W        W93831  21.107  11.991  13.408
89871W        W93832  18.816  12.584  12.615
89872W        W93833  19.110  13.523  12.264
89873W        W93834  20.873  12.143  12.229
89874W        W93835  19.896  11.522  12.925
89875W        W93836  21.858  13.433  13.436
89876W        W93837  21.776  11.420  12.997
89877W        W93838  18.315  14.250  12.373
89878W        W93839  18.824  13.437  11.909
89879W        W93840  18.739  11.054  14.462
89880W        W93841  19.858  13.907  14.564
89881W        W93842  21.613  12.875  12.354
89882W        W93843  20.967  13.052  11.234
89883W        W93844  20.262  14.573  13.446
89884W        W93845  21.119  13.295  14.483
89885W        W93846  19.934  11.005  11.763
89886W        W93847  20.647  11.874  12.622
89887W        W93848  18.333  13.461  12.954
89888W        W93849  19.586  11.423  11.595
89889W        W93850  19.390  12.907  14.444
89890W        W93851  20.384  11.888  12.158
89891W        W93852  20.589  13.298  13.280
89892W        W93853  18.743  13.903  13.715
89893W        W93854  19.334  13.886  14.438
89894W        W93855  19.185  11.683  11.452
89895W        W93856  20.702  11.825  11.777
89896W        W93857  20.660  13.933  14.014
89897W        W93858  19.345  12.525  12.613
89898W        W93859  19.000  14.223  13.478
89899W        W93860  21.745  14.340  11.079
89900W        W93861  18.608  13.012  14.075
89901W        W93862  20.603  13.274  12.763
89902W        W93863  19.039  12.923  12.005
89903W        W93864  19.410  13.930  13.400
89904W        W93865  19.788  11.349  12.441
89905W        W93866  18.399  13.333  11.371
89906W        W93867  19.918  12.284  11.241
89907W        W93868  18.564  12.833  12.260
89908W        W93869  19.854  11.475  13.724
89909W        W93870  21.526  11.184  11.151
89910W        W93871  21.619  12.930  14.250
89911W        W93872  20.273  14.187  14.402
89912W        W93873  21.831  13.281  13.924
89913W        W93874  21.239  14.079  14.535
89914W        W93875  18.978  14.535  13.013
89915W        W93876  21.837  13.157  11.887
89916W        W93877  20.367  12.424  12.400
89917W        W93878  20.134  11.036  12.290
89918W        W93879  19.193  14.020  12.127
89919W        W93880  19.692  11.761  13.352
89920W        W93881  19.392  11.130  12.821
89921W        W93882  18.455  13.952  11.369
89922W        W93883  20.271  13.316  12.087
89923W        W93884  19.146  14.111  13.966
89924W        W93885  18.623  12.934  11.662
89925W        W93886  18.508  11.477  12.661
89926W        W93887  20.056  13.442  12.718
89927W        W93888  18.308  11.296  11.738
89928W        W93889  20.972  12.502  13.665
89929W        W93890  20.849  11.888  11.237
89930W        W93891  21.366  13.560  12.885
89931W        W93892  20.027  14.044  12.716
89932W        W93893  19.439  14.148  11.627
89933W        W93894  20.721  11.051  11.057
89934W        W93895  18.521  14.311  12.798
89935W        W93896  20.718  12.069  14.433
89936W        W93897  18.701  11.599  14.432
89937W        W93898  18.432  12.199  11.765
89938W        W93899  19.123  12.188  11.490
89939W        W93900  20.886  12.515  14.307
89940W        W93901  19.229  12.796  13.016
89941W        W93902  20.703  11.082  12.136
89942W        W93903  19.834  14.513  12.639
89943W        W93904  21.048  13.975  13.576
89944W        W93905  20.632  14.124  12.687
89945W        W93906  20.651  13.104  12.281
89946W        W93907  20.113  11.329  11.352
89947W        W93908  21.794  10.957  12.074
89948W        W93909  19.482  12.592  11.237
89949W        W93910  20.340  13.099  11.104
89950W        W93911  21.276  13.299  13.852
89951W        W93912  20.930  14.000  11.319
89952W        W93913  19.545  11.675  14.225
89953W        W93914  19.365  12.259  13.466
89954W        W93915  21.457  13.754  13.743
89955W        W93916  20.557  11.704  14.120
89956W        W93917  18.401  12.175  13.897
89957W        W93918  20.161  12.652  13.623
89958W        W93919  18.518  13.410  12.280
89959W        W93920  18.665  12.707  13.170
89960W        W93921  20.982  12.993  13.520
89961W        W93922  20.754  14.373  14.331
89962W        W93923  20.650  12.112  13.884
89963W        W93924  20.927  14.166  12.289
89964W        W93925  19.929  13.886  13.612
89965W        W93926  19.414  14.241  12.881
89966W        W93927  21.219  13.412  13.300
89967W        W93928  20.269  13.484  14.437
89968W        W93929  18.874  13.437  12.776
89969W        W93930  21.220  13.196  12.421
89970W        W93931  20.861  14.262  13.172
89971W        W93932  18.839  13.991  13.042
89972W        W93933  19.860  12.043  14.252
89973W        W93934  20.311  14.209  11.763
89974W        W93935  19.619  13.464  14.401
89975W        W93936  19.745  13.702  11.778
89976W        W93937  18.966  12.442  11.037
89977W        W93938  18.305  14.528  17.936
89978W        W93939  18.681  13.421  17.459
89979W        W93940  21.386  13.151  15.229
89980W        W93941  21.516  14.236  17.256
89981W        W93942  19.434  14.227  14.782
89982W        W93943  19.517  12.379  15.765
89983W        W93944  19.032  12.227  15.929
89984W        W93945  20.023  13.042  15.363
89985W        W93946  19.698  14.134  17.718
89986W        W93947  18.347  11.695  17.681
89987W        W93948  19.109  10.975  17.483
89988W        W93949  20.803  11.363  16.370
89989W        W93950  20.452  12.234  14.940
89990W        W93951  21.022  11.668  18.031
89991W        W93952  18.388  11.460  17.156
89992W        W93953  18.487  14.079  18.177
89993W        W93954  20.009  13.469  14.909
89994W        W93955  18.441  12.252  16.602
89995W        W93956  19.334  12.143  17.839
89996W        W93957  21.793  12.002  16.338
89997W        W93958  21.557  13.045  17.197
89998W        W93959  19.865  12.378  16.224
89999W        W93960  20.411  13.717  16.593
90000W        W93961  18.911  13.151  16.825
90001W        W93962  19.306  12.651  17.588
90002W        W93963  21.577  12.434  17.842
90003W        W93964  19.193  13.878  16.287
90004W        W93965  20.314  13.567  17.421
90005W        W93966  19.534  12.207  16.646
90006W        W93967  19.826  12.991  16.289
90007W        W93968  20.823  13.764  18.137
90008W        W93969  19.902  13.084  18.147
90009W        W93970  19.883  12.800  17.625
90010W        W93971  18.292  12.191  18.147
90011W        W93972  21.124  13.726  17.746
90012W        W93973  18.705  11.308  15.744
90013W        W93974  19.232  13.566  16.743
90014W        W93975  21.695  13.349  16.033
90015W        W93976  21.108  11.749  16.600
90016W        W93977  21.393  11.702  14.695
90017W        W93978  21.858  12.503  17.001
90018W        W93979  19.825  14.210  16.754
90019W        W93980  21.599  13.676  15.192
90020W        W93981  18.728  14.462  14.946
90021W        W93982  19.121  14.508  15.622
90022W        W93983  18.918  11.262  17.048
90023W        W93984  21.541  12.280  17.323
90024W        W93985  20.946  12.702  15.782
90025W        W93986  20.912  12.390  14.809
90026W        W93987  20.120  13.534  16.949
90027W        W93988  19.926  11.864  16.148
90028W        W93989  20.526  13.951  17.142
90029W        W93990  21.397  12.742  15.564
90030W        W93991  20.299  11.400  15.580
90031W        W93992  18.956  14.094  15.263
90032W        W93993  18.327  11.593  15.862
90033W        W93994  21.113  12.200  16.336
90034W        W93995  18.571  13.817  16.251
90035W        W93996  19.912  14.167  15.121
90036W        W93997  21.304  12.193  14.585
90037W        W93998  18.327  13.951  16.749
90038W        W93999  19.118  13.523  17.229
90039W        W94000  19.491  12.883  15.848
90040W        W94001  19.513  11.288  16.941
90041W        W94002  21.742  11.050  16.238
90042W        W94003  18.961  12.922  14.706
90043W        W94004  18.616  11.955  14.885
90044W        W94005  18.678  13.911  15.679
90045W        W94006  19.809  13.394  15.927
90046W        W94007  21.141  14.253  17.641
90047W        W94008  20.067  11.895  15.325
90048W        W94009  21.450  14.293  16.097
90049W        W94010  21.127  12.146  17.695
90050W        W94011  21.840  13.802  15.829
90051W        W94012  20.467  13.094  17.313
90052W        W94013  18.233  12.645  15.519
90053W        W94014  19.344  13.060  17.092
90054W        W94015  20.548  12.324  15.470
90055W        W94016  20.425  12.814  15.574
90056W        W94017  18.768  12.234  17.048
90057W        W94018  18.753  12.110  17.970
90058W        W94019  18.643  11.027  16.129
90059W        W94020  20.411  11.374  16.690
90060W        W94021  20.059  11.559  17.853
90061W        W94022  20.414  11.708  15.031
90062W        W94023  21.597  14.101  17.785
90063W        W94024  20.564  11.182  17.824
90064W        W94025  21.583  13.483  17.946
90065W        W94026  21.013  11.650  17.542
90066W        W94027  20.813  11.588  15.812
90067W        W94028  21.206  12.722  18.216
90068W        W94029  18.946  14.298  16.202
90069W        W94030  19.604  12.015  15.188
90070W        W94031  19.173  11.299  17.852
90071W        W94032  21.225  11.783  15.533
90072W        W94033  21.592  12.265  15.478
90073W        W94034  19.335  14.482  17.949
90074W        W94035  19.261  11.018  15.184
90075W        W94036  21.582  11.552  16.219
90076W        W94037  21.732  13.801  14.664
90077W        W94038  18.639  13.004  16.366
90078W        W94039  20.556  11.591  14.596
90079W        W94040  21.690  13.923  16.316
90080W        W94041  21.729  11.117  17.066
90081W        W94042  20.174  12.329  17.620
90082W        W94043  20.267  13.668  15.323
90083W        W94044  20.667  12.962  18.063
90084W        W94045  20.341  10.939  16.372
90085W        W94046  18.507  13.042  17.209
90086W        W94047  20.366  14.235  15.915
90087W        W94048  21.560  11.832  16.787
90088W        W94049  20.197  14.179  17.554
90089W        W94050  21.540  13.238  14.759
90090W        W94051  19.975  12.721  15.820
90091W        W94052  21.827  11.232  17.561
90092W        W94053  19.976  13.067  17.155
90093W        W94054  20.193  11.953  16.600
90094W        W94055  21.045  12.251  15.438
90095W        W94056  21.332  11.984  15.080
90096W        W94057  21.141  14.024  15.469
90097W        W94058  20.975  13.627  16.265
90098W        W94059  20.871  12.706  15.243
90099W        W94060  20.304  12.916  16.229
90100W        W94061  21.185  12.704  16.296
90101W        W94062  18.560  11.719  16.720
90102W        W94063  21.338  12.771  17.547
90103W        W94064  21.689  14.389  16.693
90104W        W94065  19.619  13.833  16.095
90105W        W94066  20.626  14.366  17.419
90106W        W94067  20.620  11.696  17.183
90107W        W94068  19.827  14.404  17.244
90108W        W94069  21.524  11.358  15.710
90109W        W94070  21.315  12.677  17.011
90110W        W94071  18.298  11.998  17.049
90111W        W94072  21.158  11.793  16.067
90112W        W94073  21.569  11.944  17.844
90113W        W94074  20.454  13.643  16.062
90114W        W94075  19.710  14.234  15.675
90115W        W94076  18.825  11.414  14.933
90116W        W94077  19.929  11.068  16.743
90117W        W94078  18.957  14.188  14.591
90118W        W94079  19.331  12.654  15.342
90119W        W94080  19.985  13.283  17.655
90120W        W94081  19.815  11.641  15.645
90121W        W94082  21.171  11.238  16.073
90122W        W94083  20.891  14.520  16.401
90123W        W94084  20.303  14.168  16.741
90124W        W94085  19.699  13.205  16.702
90125W        W94086  21.469  13.928  16.828
90126W        W94087  19.163  11.431  15.597
90127W        W94088  19.685  13.728  16.557
90128W        W94089  19.168  11.659  14.622
90129W        W94090  19.969  12.268  17.016
90130W        W94091  20.817  11.134  16.886
90131W        W94092  18.237  12.977  16.771
90132W        W94093  19.941  12.795  14.929
90133W        W94094  19.209  11.110  14.699
90134W        W94095  19.947  12.191  15.750
90135W        W94096  20.917  11.167  17.449
90136W        W94097  19.505  13.179  17.558
90137W        W94098  20.309  12.961  17.775
90138W        W94099  20.926  12.991  17.668
90139W        W94100  20.210  11.131  18.173
90140W        W94101  19.432  11.747  16.566
90141W        W94102  18.858  11.703  15.964
90142W        W94103  18.644  14.415  15.640
90143W        W94104  19.976  13.745  17.765
90144W        W94105  19.011  13.230  15.124
90145W        W94106  20.691  12.615  16.345
90146W        W94107  20.971  12.414  16.744
90147W        W94108  20.176  13.088  16.678
90148W        W94109  20.646  13.462  14.810
90149W        W94110  20.318  11.483  16.138
90150W        W94111  21.797  11.761  15.406
90151W        W94112  18.291  14.350  17.437
90152W        W94113  18.708  13.576  16.969
90153W        W94114  18.275  14.422  15.201
90154W        W94115  20.174  11.692  17.007
90155W        W94116  19.537  13.715  14.856
90156W        W94117  21.442  14.097  15.042
90157W        W94118  20.417  12.750  15.056
90158W        W94119  19.260  11.941  15.573
90159W        W94120  20.092  11.851  14.625
90160W        W94121  20.676  13.416  17.803
90161W        W94122  21.029  11.322  15.420
90162W        W94123  18.359  11.170  14.868
90163W        W94124  19.645  13.489  17.158
90164W        W94125  19.444  13.405  16.250
90165W        W94126  19.186  13.357  14.648
90166W        W94127  18.931  12.668  17.858
90167W        W94128  19.635  11.228  18.044
90168W        W94129  20.344  11.370  17.400
90169W        W94130  19.539  11.138  15.681
90170W        W94131  20.598  11.215  15.186
90171W        W94132  18.543  11.147  16.763
90172W        W94133  18.591  12.110  16.133
90173W        W94134  21.280  11.218  16.539
90174W        W94135  18.702  11.716  15.353
90175W        W94136  21.273  11.404  16.969
90176W        W94137  21.669  12.607  14.654
90177W        W94138  18.961  11.365  16.473
90178W        W94139  20.075  11.937  17.413
90179W        W94140  18.223  11.627  14.891
90180W        W94141  19.009  13.016  17.452
90181W        W94142  20.367  12.414  16.631
90182W        W94143  20.234  14.493  14.927
90183W        W94144  18.380  13.000  14.624
90184W        W94145  19.115  13.411  17.750
90185W        W94146  18.636  12.578  17.381
90186W        W94147  19.627  12.683  17.175
90187W        W94148  21.395  11.042  17.437
90188W        W94149  21.793  12.652  17.428
90189W        W94150  21.781  12.852  15.114
90190W        W94151  20.644  13.184  15.213
90191W        W94152  21.118  14.484  14.908
90192W        W94153  20.295  12.474  18.050
90193W        W94154  18.625  13.441  18.090
90194W        W94155  21.831  11.363  18.042
90195W        W94156  21.549  12.291  16.663
90196W        W94157  19.857  14.421  18.140
90197W        W94158  19.712  11.050  14.867
90198W        W94159  21.251  13.649  14.810
90199W        W94160  19.020  11.742  17.696
90200W        W94161  19.454  13.736  17.558
90201W        W94162  21.580  11.727  17.356
90202W        W94163  20.791  14.386  15.324
90203W        W94164  21.030  13.005  16.691
90204W        W94165  19.280  11.421  17.358
90205W        W94166  19.749  12.490  18.115
90206W        W94167  19.252  13.669  15.309
90207W        W94168  21.007  13.167  15.573
90208W        W94169  18.775  11.793  17.297
90209W        W94170  20.104  13.855  15.761
90210W        W94171  21.854  12.415  15.942
90211W        W94172  20.076  11.048  17.661
90212W        W94173  20.856  13.753  16.740
90213W        W94174  21.159  14.097  16.448
90214W        W94175  20.378  13.899  14.876
90215W        W94176  18.388  13.791  17.718
90216W        W94177  19.131  11.783  16.956
90217W        W94178  19.101  11.131  16.066
90218W        W94179  20.722  11.973  16.758
90219W        W94180  19.520  13.144  14.958
90220W        W94181  21.518  13.086  16.457
90221W        W94182  18.845  13.844  17.880
90222W        W94183  21.232  14.526  15.677
90223W        W94184  19.331  11.546  16.122
90224W        W94185  19.100  13.039  16.212
90225W        W94186  19.413  14.450  16.962
90226W        W94187  21.480  14.546  17.994
90227W        W94188  20.639  12.734  16.927
90228W        W94189  18.488  12.532  14.842
90229W        W94190  21.622  14.190  15.539
90230W        W94191  21.459  11.514  15.158
90231W        W94192  19.598  11.033  17.561
90232W        W94193  21.304  13.835  16.019
90233W        W94194  21.333  12.391  15.924
90234W        W94195  19.450  12.064  16.140
90235W        W94196  19.695  12.326  17.464
90236W        W94197  20.806  13.479  17.327
90237W        W94198  19.456  11.933  17.439
90238W        W94199  19.435  14.399  16.055
90239W        W94200  18.752  14.358  17.689
90240W        W94201  18.864  13.719  14.819
90241W        W94202  21.381  13.477  15.629
90242W        W94203  18.985  12.269  17.515
90243W        W94204  21.758  12.199  14.996
90244W        W94205  19.503  13.256  15.467
90245W        W94206  20.602  12.638  17.548
90246W        W94207  20.493  12.266  17.092
90247W        W94208  19.053  12.638  17.121
90248W        W94209  21.263  14.526  16.950
90249W        W94210  21.054  11.160  17.944
90250W        W94211  18.718  11.310  17.531
90251W        W94212  19.057  12.333  16.584
90252W        W94213  19.426  12.147  14.706
90253W        W94214  18.229  13.906  17.251
90254W        W94215  19.814  12.615  16.694
90255W        W94216  19.637  11.640  14.799
90256W        W94217  18.772  12.456  15.580
90257W        W94218  18.543  14.308  17.017
90258W        W94219  21.338  12.534  15.125
90259W        W94220  21.433  11.450  17.811
90260W        W94221  20.869  13.659  15.774
90261W        W94222  18.467  12.583  17.951
90262W        W94223  21.433  11.047  15.247
90263W        W94224  20.953  13.522  15.258
90264W        W94225  19.855  12.580  15.343
90265W        W94226  21.042  11.384  14.866
90266W        W94227  21.107  11.991  17.052
90267W        W94228  18.816  12.584  16.259
90268W        W94229  19.110  13.523  15.908
90269W        W94230  20.873  12.143  15.873
90270W        W94231  19.896  11.522  16.569
90271W        W94232  21.858  13.433  17.080
90272W        W94233  21.776  11.420  16.641
90273W        W94234  18.315  14.250  16.017
90274W        W94235  18.824  13.437  15.553
90275W        W94236  18.739  11.054  18.106
90276W        W94237  19.858  13.907  18.208
90277W        W94238  21.613  12.875  15.998
90278W        W94239  20.967  13.052  14.878
90279W        W94240  20.262  14.573  17.090
90280W        W94241  21.119  13.295  18.127
90281W        W94242  19.934  11.005  15.407
90282W        W94243  20.647  11.874  16.266
90283W        W94244  18.333  13.461  16.598
90284W        W94245  19.586  11.423  15.239
90285W        W94246  19.390  12.907  18.088
90286W        W94247  20.384  11.888  15.802
90287W        W94248  20.589  13.298  16.924
90288W        W94249  18.743  13.903  17.359
90289W        W94250  19.334  13.886  18.082
90290W        W94251  19.185  11.683  15.096
90291W        W94252  20.702  11.825  15.421
90292W        W94253  20.660  13.933  17.658
90293W        W94254  19.345  12.525  16.257
90294W        W94255  19.000  14.223  17.122
90295W        W94256  21.745  14.340  14.723
90296W        W94257  18.608  13.012  17.719
90297W        W94258  20.603  13.274  16.407
90298W        W94259  19.039  12.923  15.649
90299W        W94260  19.410  13.930  17.044
90300W        W94261  19.788  11.349  16.085
90301W        W94262  19.918  12.284  14.885
90302W        W94263  19.854  11.475  17.368
90303W        W94264  21.526  11.184  14.795
90304W        W94265  21.619  12.930  17.894
90305W        W94266  20.273  14.187  18.046
90306W        W94267  21.831  13.281  17.568
90307W        W94268  21.239  14.079  18.179
90308W        W94269  18.978  14.535  16.657
90309W        W94270  21.837  13.157  15.531
90310W        W94271  20.367  12.424  16.044
90311W        W94272  20.134  11.036  15.934
90312W        W94273  19.193  14.020  15.771
90313W        W94274  19.692  11.761  16.996
90314W        W94275  19.392  11.130  16.465
90315W        W94276  20.271  13.316  15.731
90316W        W94277  19.146  14.111  17.610
90317W        W94278  18.623  12.934  15.306
90318W        W94279  18.508  11.477  16.305
90319W        W94280  20.056  13.442  16.362
90320W        W94281  18.308  11.296  15.382
90321W        W94282  20.972  12.502  17.309
90322W        W94283  20.849  11.888  14.881
90323W        W94284  21.366  13.560  16.529
90324W        W94285  20.027  14.044  16.360
90325W        W94286  19.439  14.148  15.271
90326W        W94287  20.721  11.051  14.701
90327W        W94288  18.521  14.311  16.442
90328W        W94289  20.718  12.069  18.077
90329W        W94290  18.701  11.599  18.076
90330W        W94291  18.432  12.199  15.409
90331W        W94292  19.123  12.188  15.134
90332W        W94293  20.886  12.515  17.951
90333W        W94294  19.229  12.796  16.660
90334W        W94295  20.703  11.082  15.780
90335W        W94296  19.834  14.513  16.283
90336W        W94297  21.048  13.975  17.220
90337W        W94298  20.632  14.124  16.331
90338W        W94299  20.651  13.104  15.925
90339W        W94300  20.113  11.329  14.996
90340W        W94301  21.794  10.957  15.718
90341W        W94302  19.482  12.592  14.881
90342W        W94303  21.648  11.929  15.871
90343W        W94304  20.340  13.099  14.748
90344W        W94305  21.276  13.299  17.496
90345W        W94306  20.930  14.000  14.963
90346W        W94307  19.545  11.675  17.869
90347W        W94308  19.365  12.259  17.110
90348W        W94309  21.457  13.754  17.387
90349W        W94310  20.557  11.704  17.764
90350W        W94311  18.401  12.175  17.541
90351W        W94312  20.161  12.652  17.267
90352W        W94313  18.518  13.410  15.924
90353W        W94314  18.665  12.707  16.814
90354W        W94315  20.982  12.993  17.164
90355W        W94316  20.754  14.373  17.975
90356W        W94317  20.650  12.112  17.528
90357W        W94318  20.927  14.166  15.933
90358W        W94319  19.929  13.886  17.256
90359W        W94320  19.414  14.241  16.525
90360W        W94321  21.219  13.412  16.944
90361W        W94322  20.269  13.484  18.081
90362W        W94323  18.874  13.437  16.420
90363W        W94324  21.220  13.196  16.065
90364W        W94325  20.861  14.262  16.816
90365W        W94326  18.839  13.991  16.686
90366W        W94327  19.860  12.043  17.896
90367W        W94328  20.311  14.209  15.407
90368W        W94329  19.619  13.464  18.045
90369W        W94330  19.745  13.702  15.422
90370W        W94331  18.966  12.442  14.681
90371W        W94332  18.305  14.528  21.580
90372W        W94333  18.681  13.421  21.103
90373W        W94334  21.386  13.151  18.873
90374W        W94335  21.516  14.236  20.900
90375W        W94336  19.434  14.227  18.426
90376W        W94337  19.517  12.379  19.409
90377W        W94338  19.032  12.227  19.573
90378W        W94339  20.023  13.042  19.007
90379W        W94340  19.698  14.134  21.362
90380W        W94341  18.347  11.695  21.325
90381W        W94342  19.109  10.975  21.127
90382W        W94343  20.803  11.363  20.014
90383W        W94344  20.452  12.234  18.584
90384W        W94345  21.022  11.668  21.675
90385W        W94346  18.388  11.460  20.800
90386W        W94347  18.487  14.079  21.821
90387W        W94348  20.009  13.469  18.553
90388W        W94349  18.441  12.252  20.246
90389W        W94350  19.334  12.143  21.483
90390W        W94351  21.793  12.002  19.982
90391W        W94352  21.557  13.045  20.841
90392W        W94353  19.865  12.378  19.868
90393W        W94354  20.411  13.717  20.237
90394W        W94355  18.911  13.151  20.469
90395W        W94356  18.270  12.679  20.040
90396W        W94357  19.306  12.651  21.232
90397W        W94358  21.577  12.434  21.486
90398W        W94359  19.193  13.878  19.931
90399W        W94360  20.314  13.567  21.065
90400W        W94361  19.534  12.207  20.290
90401W        W94362  19.826  12.991  19.933
90402W        W94363  20.823  13.764  21.781
90403W        W94364  19.902  13.084  21.791
90404W        W94365  19.883  12.800  21.269
90405W        W94366  18.292  12.191  21.791
90406W        W94367  21.124  13.726  21.390
90407W        W94368  18.705  11.308  19.388
90408W        W94369  19.232  13.566  20.387
90409W        W94370  21.695  13.349  19.677
90410W        W94371  21.108  11.749  20.244
90411W        W94372  21.393  11.702  18.339
90412W        W94373  21.858  12.503  20.645
90413W        W94374  19.825  14.210  20.398
90414W        W94375  21.599  13.676  18.836
90415W        W94376  18.728  14.462  18.590
90416W        W94377  19.121  14.508  19.266
90417W        W94378  18.918  11.262  20.692
90418W        W94379  21.541  12.280  20.967
90419W        W94380  20.946  12.702  19.426
90420W        W94381  20.912  12.390  18.453
90421W        W94382  20.120  13.534  20.593
90422W        W94383  19.926  11.864  19.792
90423W        W94384  20.526  13.951  20.786
90424W        W94385  21.397  12.742  19.208
90425W        W94386  20.299  11.400  19.224
90426W        W94387  18.956  14.094  18.907
90427W        W94388  18.327  11.593  19.506
90428W        W94389  21.113  12.200  19.980
90429W        W94390  18.571  13.817  19.895
90430W        W94391  19.912  14.167  18.765
90431W        W94392  21.304  12.193  18.229
90432W        W94393  18.327  13.951  20.393
90433W        W94394  19.118  13.523  20.873
90434W        W94395  19.491  12.883  19.492
90435W        W94396  19.513  11.288  20.585
90436W        W94397  21.742  11.050  19.882
90437W        W94398  18.961  12.922  18.350
90438W        W94399  18.616  11.955  18.529
90439W        W94400  18.678  13.911  19.323
90440W        W94401  19.809  13.394  19.571
90441W        W94402  21.141  14.253  21.285
90442W        W94403  20.067  11.895  18.969
90443W        W94404  21.450  14.293  19.741
90444W        W94405  21.127  12.146  21.339
90445W        W94406  21.840  13.802  19.473
90446W        W94407  20.467  13.094  20.957
90447W        W94408  18.233  12.645  19.163
90448W        W94409  19.344  13.060  20.736
90449W        W94410  20.548  12.324  19.114
90450W        W94411  20.425  12.814  19.218
90451W        W94412  18.768  12.234  20.692
90452W        W94413  18.753  12.110  21.614
90453W        W94414  18.643  11.027  19.773
90454W        W94415  20.411  11.374  20.334
90455W        W94416  20.059  11.559  21.497
90456W        W94417  20.414  11.708  18.675
90457W        W94418  21.597  14.101  21.429
90458W        W94419  20.564  11.182  21.468
90459W        W94420  21.583  13.483  21.590
90460W        W94421  21.013  11.650  21.186
90461W        W94422  20.813  11.588  19.456
90462W        W94423  21.206  12.722  21.860
90463W        W94424  18.946  14.298  19.846
90464W        W94425  19.604  12.015  18.832
90465W        W94426  19.173  11.299  21.496
90466W        W94427  21.225  11.783  19.177
90467W        W94428  21.592  12.265  19.122
90468W        W94429  19.335  14.482  21.593
90469W        W94430  19.261  11.018  18.828
90470W        W94431  21.582  11.552  19.863
90471W        W94432  21.732  13.801  18.308
90472W        W94433  18.639  13.004  20.010
90473W        W94434  20.556  11.591  18.240
90474W        W94435  21.690  13.923  19.960
90475W        W94436  21.729  11.117  20.710
90476W        W94437  20.174  12.329  21.264
90477W        W94438  20.267  13.668  18.967
90478W        W94439  20.667  12.962  21.707
90479W        W94440  20.341  10.939  20.016
90480W        W94441  18.953  11.842  20.079
90481W        W94442  18.507  13.042  20.853
90482W        W94443  20.366  14.235  19.559
90483W        W94444  21.560  11.832  20.431
90484W        W94445  20.197  14.179  21.198
90485W        W94446  21.540  13.238  18.403
90486W        W94447  19.975  12.721  19.464
90487W        W94448  21.827  11.232  21.205
90488W        W94449  19.976  13.067  20.799
90489W        W94450  20.193  11.953  20.244
90490W        W94451  21.045  12.251  19.082
90491W        W94452  21.332  11.984  18.724
90492W        W94453  21.141  14.024  19.113
90493W        W94454  20.975  13.627  19.909
90494W        W94455  20.871  12.706  18.887
90495W        W94456  20.304  12.916  19.873
90496W        W94457  21.185  12.704  19.940
90497W        W94458  18.560  11.719  20.364
90498W        W94459  21.338  12.771  21.191
90499W        W94460  21.689  14.389  20.337
90500W        W94461  19.619  13.833  19.739
90501W        W94462  20.626  14.366  21.063
90502W        W94463  20.620  11.696  20.827
90503W        W94464  19.827  14.404  20.888
90504W        W94465  21.524  11.358  19.354
90505W        W94466  21.315  12.677  20.655
90506W        W94467  18.298  11.998  20.693
90507W        W94468  21.158  11.793  19.711
90508W        W94469  21.569  11.944  21.488
90509W        W94470  20.454  13.643  19.706
90510W        W94471  19.710  14.234  19.319
90511W        W94472  18.825  11.414  18.577
90512W        W94473  19.929  11.068  20.387
90513W        W94474  18.957  14.188  18.235
90514W        W94475  19.331  12.654  18.986
90515W        W94476  19.985  13.283  21.299
90516W        W94477  19.815  11.641  19.289
90517W        W94478  21.171  11.238  19.717
90518W        W94479  20.891  14.520  20.045
90519W        W94480  20.303  14.168  20.385
90520W        W94481  19.699  13.205  20.346
90521W        W94482  21.469  13.928  20.472
90522W        W94483  19.163  11.431  19.241
90523W        W94484  19.685  13.728  20.201
90524W        W94485  19.168  11.659  18.266
90525W        W94486  19.969  12.268  20.660
90526W        W94487  20.817  11.134  20.530
90527W        W94488  18.237  12.977  20.415
90528W        W94489  19.941  12.795  18.573
90529W        W94490  19.209  11.110  18.343
90530W        W94491  19.947  12.191  19.394
90531W        W94492  20.917  11.167  21.093
90532W        W94493  19.505  13.179  21.202
90533W        W94494  20.309  12.961  21.419
90534W        W94495  20.926  12.991  21.312
90535W        W94496  20.210  11.131  21.817
90536W        W94497  19.432  11.747  20.210
90537W        W94498  18.858  11.703  19.608
90538W        W94499  18.644  14.415  19.284
90539W        W94500  19.976  13.745  21.409
90540W        W94501  19.011  13.230  18.768
90541W        W94502  20.691  12.615  19.989
90542W        W94503  20.971  12.414  20.388
90543W        W94504  20.176  13.088  20.322
90544W        W94505  20.646  13.462  18.454
90545W        W94506  20.318  11.483  19.782
90546W        W94507  21.797  11.761  19.050
90547W        W94508  18.291  14.350  21.081
90548W        W94509  18.708  13.576  20.613
90549W        W94510  18.275  14.422  18.845
90550W        W94511  20.174  11.692  20.651
90551W        W94512  19.537  13.715  18.500
90552W        W94513  21.442  14.097  18.686
90553W        W94514  20.417  12.750  18.700
90554W        W94515  19.260  11.941  19.217
90555W        W94516  20.092  11.851  18.269
90556W        W94517  20.676  13.416  21.447
90557W        W94518  21.029  11.322  19.064
90558W        W94519  18.359  11.170  18.512
90559W        W94520  19.645  13.489  20.802
90560W        W94521  19.444  13.405  19.894
90561W        W94522  19.186  13.357  18.292
90562W        W94523  18.427  13.598  19.060
90563W        W94524  18.931  12.668  21.502
90564W        W94525  19.635  11.228  21.688
90565W        W94526  20.344  11.370  21.044
90566W        W94527  19.539  11.138  19.325
90567W        W94528  20.598  11.215  18.830
90568W        W94529  18.543  11.147  20.407
90569W        W94530  18.591  12.110  19.777
90570W        W94531  21.280  11.218  20.183
90571W        W94532  18.702  11.716  18.997
90572W        W94533  21.273  11.404  20.613
90573W        W94534  21.669  12.607  18.298
90574W        W94535  18.961  11.365  20.117
90575W        W94536  20.075  11.937  21.057
90576W        W94537  18.223  11.627  18.535
90577W        W94538  19.009  13.016  21.096
90578W        W94539  20.367  12.414  20.275
90579W        W94540  20.234  14.493  18.571
90580W        W94541  18.380  13.000  18.268
90581W        W94542  19.115  13.411  21.394
90582W        W94543  18.636  12.578  21.025
90583W        W94544  19.627  12.683  20.819
90584W        W94545  21.395  11.042  21.081
90585W        W94546  21.793  12.652  21.072
90586W        W94547  21.781  12.852  18.758
90587W        W94548  20.644  13.184  18.857
90588W        W94549  21.118  14.484  18.552
90589W        W94550  20.295  12.474  21.694
90590W        W94551  18.625  13.441  21.734
90591W        W94552  21.831  11.363  21.686
90592W        W94553  21.549  12.291  20.307
90593W        W94554  19.857  14.421  21.784
90594W        W94555  19.712  11.050  18.511
90595W        W94556  21.251  13.649  18.454
90596W        W94557  19.020  11.742  21.340
90597W        W94558  19.454  13.736  21.202
90598W        W94559  21.580  11.727  21.000
90599W        W94560  20.791  14.386  18.968
90600W        W94561  21.030  13.005  20.335
90601W        W94562  19.280  11.421  21.002
90602W        W94563  19.749  12.490  21.759
90603W        W94564  19.252  13.669  18.953
90604W        W94565  21.007  13.167  19.217
90605W        W94566  18.775  11.793  20.941
90606W        W94567  20.104  13.855  19.405
90607W        W94568  21.854  12.415  19.586
90608W        W94569  20.076  11.048  21.305
90609W        W94570  20.856  13.753  20.384
90610W        W94571  21.159  14.097  20.092
90611W        W94572  20.378  13.899  18.520
90612W        W94573  18.388  13.791  21.362
90613W        W94574  19.131  11.783  20.600
90614W        W94575  19.101  11.131  19.710
90615W        W94576  20.722  11.973  20.402
90616W        W94577  19.520  13.144  18.602
90617W        W94578  21.518  13.086  20.101
90618W        W94579  18.845  13.844  21.524
90619W        W94580  21.232  14.526  19.321
90620W        W94581  19.331  11.546  19.766
90621W        W94582  19.100  13.039  19.856
90622W        W94583  19.413  14.450  20.606
90623W        W94584  21.480  14.546  21.638
90624W        W94585  20.639  12.734  20.571
90625W        W94586  18.488  12.532  18.486
90626W        W94587  21.622  14.190  19.183
90627W        W94588  21.459  11.514  18.802
90628W        W94589  19.598  11.033  21.205
90629W        W94590  21.304  13.835  19.663
90630W        W94591  21.333  12.391  19.568
90631W        W94592  19.450  12.064  19.784
90632W        W94593  19.695  12.326  21.108
90633W        W94594  20.806  13.479  20.971
90634W        W94595  19.456  11.933  21.083
90635W        W94596  19.435  14.399  19.699
90636W        W94597  18.752  14.358  21.333
90637W        W94598  18.864  13.719  18.463
90638W        W94599  21.381  13.477  19.273
90639W        W94600  18.985  12.269  21.159
90640W        W94601  21.758  12.199  18.640
90641W        W94602  19.503  13.256  19.111
90642W        W94603  20.602  12.638  21.192
90643W        W94604  20.493  12.266  20.736
90644W        W94605  19.053  12.638  20.765
90645W        W94606  21.263  14.526  20.594
90646W        W94607  21.054  11.160  21.588
90647W        W94608  18.718  11.310  21.175
90648W        W94609  19.057  12.333  20.228
90649W        W94610  19.426  12.147  18.350
90650W        W94611  18.229  13.906  20.895
90651W        W94612  19.814  12.615  20.338
90652W        W94613  19.637  11.640  18.443
90653W        W94614  18.772  12.456  19.224
90654W        W94615  18.543  14.308  20.661
90655W        W94616  21.338  12.534  18.769
90656W        W94617  21.433  11.450  21.455
90657W        W94618  20.869  13.659  19.418
90658W        W94619  18.467  12.583  21.595
90659W        W94620  21.433  11.047  18.891
90660W        W94621  20.953  13.522  18.902
90661W        W94622  19.855  12.580  18.987
90662W        W94623  21.042  11.384  18.510
90663W        W94624  21.107  11.991  20.696
90664W        W94625  18.816  12.584  19.903
90665W        W94626  19.110  13.523  19.552
90666W        W94627  20.873  12.143  19.517
90667W        W94628  19.896  11.522  20.213
90668W        W94629  21.858  13.433  20.724
90669W        W94630  21.776  11.420  20.285
90670W        W94631  18.315  14.250  19.661
90671W        W94632  18.824  13.437  19.197
90672W        W94633  18.739  11.054  21.750
90673W        W94634  19.858  13.907  21.852
90674W        W94635  21.613  12.875  19.642
90675W        W94636  20.967  13.052  18.522
90676W        W94637  20.262  14.573  20.734
90677W        W94638  21.119  13.295  21.771
90678W        W94639  19.934  11.005  19.051
90679W        W94640  20.647  11.874  19.910
90680W        W94641  18.333  13.461  20.242
90681W        W94642  19.586  11.423  18.883
90682W        W94643  19.390  12.907  21.732
90683W        W94644  20.384  11.888  19.446
90684W        W94645  20.589  13.298  20.568
90685W        W94646  18.743  13.903  21.003
90686W        W94647  19.334  13.886  21.726
90687W        W94648  19.185  11.683  18.740
90688W        W94649  20.702  11.825  19.065
90689W        W94650  20.660  13.933  21.302
90690W        W94651  19.345  12.525  19.901
90691W        W94652  19.000  14.223  20.766
90692W        W94653  21.745  14.340  18.367
90693W        W94654  18.608  13.012  21.363
90694W        W94655  20.603  13.274  20.051
90695W        W94656  19.039  12.923  19.293
90696W        W94657  19.410  13.930  20.688
90697W        W94658  19.788  11.349  19.729
90698W        W94659  18.399  13.333  18.659
90699W        W94660  19.918  12.284  18.529
90700W        W94661  18.564  12.833  19.548
90701W        W94662  19.854  11.475  21.012
90702W        W94663  21.526  11.184  18.439
90703W        W94664  21.619  12.930  21.538
90704W        W94665  20.273  14.187  21.690
90705W        W94666  21.831  13.281  21.212
90706W        W94667  21.239  14.079  21.823
90707W        W94668  18.978  14.535  20.301
90708W        W94669  21.837  13.157  19.175
90709W        W94670  20.367  12.424  19.688
90710W        W94671  20.134  11.036  19.578
90711W        W94672  19.193  14.020  19.415
90712W        W94673  19.692  11.761  20.640
90713W        W94674  19.392  11.130  20.109
90714W        W94675  18.455  13.952  18.657
90715W        W94676  20.271  13.316  19.375
90716W        W94677  19.146  14.111  21.254
90717W        W94678  18.623  12.934  18.950
90718W        W94679  18.508  11.477  19.949
90719W        W94680  20.056  13.442  20.006
90720W        W94681  18.308  11.296  19.026
90721W        W94682  20.972  12.502  20.953
90722W        W94683  20.849  11.888  18.525
90723W        W94684  21.366  13.560  20.173
90724W        W94685  20.027  14.044  20.004
90725W        W94686  19.439  14.148  18.915
90726W        W94687  20.721  11.051  18.345
90727W        W94688  18.521  14.311  20.086
90728W        W94689  20.718  12.069  21.721
90729W        W94690  18.701  11.599  21.720
90730W        W94691  18.432  12.199  19.053
90731W        W94692  19.123  12.188  18.778
90732W        W94693  20.886  12.515  21.595
90733W        W94694  19.229  12.796  20.304
90734W        W94695  20.703  11.082  19.424
90735W        W94696  19.834  14.513  19.927
90736W        W94697  21.048  13.975  20.864
90737W        W94698  20.632  14.124  19.975
90738W        W94699  20.651  13.104  19.569
90739W        W94700  20.113  11.329  18.640
90740W        W94701  21.794  10.957  19.362
90741W        W94702  19.482  12.592  18.525
90742W        W94703  21.648  11.929  19.515
90743W        W94704  20.340  13.099  18.392
90744W        W94705  21.276  13.299  21.140
90745W        W94706  20.930  14.000  18.607
90746W        W94707  19.545  11.675  21.513
90747W        W94708  19.365  12.259  20.754
90748W        W94709  21.457  13.754  21.031
90749W        W94710  20.557  11.704  21.408
90750W        W94711  18.401  12.175  21.185
90751W        W94712  20.161  12.652  20.911
90752W        W94713  18.518  13.410  19.568
90753W        W94714  18.665  12.707  20.458
90754W        W94715  20.982  12.993  20.808
90755W        W94716  20.754  14.373  21.619
90756W        W94717  20.650  12.112  21.172
90757W        W94718  20.927  14.166  19.577
90758W        W94719  19.929  13.886  20.900
90759W        W94720  19.414  14.241  20.169
90760W        W94721  21.219  13.412  20.588
90761W        W94722  20.269  13.484  21.725
90762W        W94723  18.874  13.437  20.064
90763W        W94724  21.220  13.196  19.709
90764W        W94725  20.861  14.262  20.460
90765W        W94726  18.839  13.991  20.330
90766W        W94727  19.860  12.043  21.540
90767W        W94728  20.311  14.209  19.051
90768W        W94729  19.619  13.464  21.689
90769W        W94730  19.745  13.702  19.066
90770W        W94731  18.966  12.442  18.325
90771W        W94732  21.386  13.151  22.518
90772W        W94733  19.434  14.227  22.071
90773W        W94734  19.517  12.379  23.054
90774W        W94735  19.032  12.227  23.218
90775W        W94736  20.023  13.042  22.652
90776W        W94737  20.452  12.234  22.229
90777W        W94738  20.009  13.469  22.198
90778W        W94739  18.705  11.308  23.033
90779W        W94740  21.393  11.702  21.984
90780W        W94741  21.599  13.676  22.481
90781W        W94742  18.728  14.462  22.235
90782W        W94743  19.121  14.508  22.911
90783W        W94744  20.946  12.702  23.071
90784W        W94745  20.912  12.390  22.098
90785W        W94746  21.397  12.742  22.853
90786W        W94747  20.299  11.400  22.869
90787W        W94748  18.956  14.094  22.552
90788W        W94749  19.912  14.167  22.410
90789W        W94750  21.304  12.193  21.874
90790W        W94751  19.491  12.883  23.137
90791W        W94752  18.961  12.922  21.995
90792W        W94753  18.616  11.955  22.174
90793W        W94754  18.678  13.911  22.968
90794W        W94755  19.809  13.394  23.216
90795W        W94756  20.067  11.895  22.614
90796W        W94757  18.233  12.645  22.808
90797W        W94758  20.548  12.324  22.759
90798W        W94759  20.425  12.814  22.863
90799W        W94760  20.414  11.708  22.320
90800W        W94761  20.813  11.588  23.101
90801W        W94762  19.604  12.015  22.477
90802W        W94763  21.225  11.783  22.822
90803W        W94764  21.592  12.265  22.767
90804W        W94765  19.261  11.018  22.473
90805W        W94766  21.732  13.801  21.953
90806W        W94767  20.556  11.591  21.885
90807W        W94768  20.267  13.668  22.612
90808W        W94769  20.366  14.235  23.204
90809W        W94770  21.540  13.238  22.048
90810W        W94771  19.975  12.721  23.109
90811W        W94772  21.045  12.251  22.727
90812W        W94773  21.332  11.984  22.369
90813W        W94774  21.141  14.024  22.758
90814W        W94775  20.871  12.706  22.532
90815W        W94776  21.524  11.358  22.999
90816W        W94777  19.710  14.234  22.964
90817W        W94778  18.825  11.414  22.222
90818W        W94779  18.957  14.188  21.880
90819W        W94780  19.331  12.654  22.631
90820W        W94781  19.815  11.641  22.934
90821W        W94782  19.163  11.431  22.886
90822W        W94783  19.168  11.659  21.911
90823W        W94784  19.941  12.795  22.218
90824W        W94785  19.209  11.110  21.988
90825W        W94786  19.947  12.191  23.039
90826W        W94787  18.858  11.703  23.253
90827W        W94788  18.644  14.415  22.929
90828W        W94789  19.011  13.230  22.413
90829W        W94790  20.646  13.462  22.099
90830W        W94791  21.797  11.761  22.695
90831W        W94792  18.275  14.422  22.490
90832W        W94793  19.537  13.715  22.145
90833W        W94794  21.442  14.097  22.331
90834W        W94795  20.417  12.750  22.345
90835W        W94796  19.260  11.941  22.862
90836W        W94797  20.092  11.851  21.914
90837W        W94798  21.029  11.322  22.709
90838W        W94799  18.359  11.170  22.157
90839W        W94800  19.186  13.357  21.937
90840W        W94801  18.427  13.598  22.705
90841W        W94802  19.539  11.138  22.970
90842W        W94803  20.598  11.215  22.475
90843W        W94804  18.702  11.716  22.642
90844W        W94805  21.669  12.607  21.943
90845W        W94806  18.223  11.627  22.180
90846W        W94807  20.234  14.493  22.216
90847W        W94808  18.380  13.000  21.913
90848W        W94809  21.781  12.852  22.403
90849W        W94810  20.644  13.184  22.502
90850W        W94811  21.118  14.484  22.197
90851W        W94812  19.712  11.050  22.156
90852W        W94813  21.251  13.649  22.099
90853W        W94814  20.791  14.386  22.613
90854W        W94815  19.252  13.669  22.598
90855W        W94816  21.007  13.167  22.862
90856W        W94817  20.104  13.855  23.050
90857W        W94818  21.854  12.415  23.231
90858W        W94819  20.378  13.899  22.165
90859W        W94820  19.520  13.144  22.247
90860W        W94821  21.232  14.526  22.966
90861W        W94822  18.488  12.532  22.131
90862W        W94823  21.622  14.190  22.828
90863W        W94824  21.459  11.514  22.447
90864W        W94825  21.333  12.391  23.213
90865W        W94826  18.864  13.719  22.108
90866W        W94827  21.381  13.477  22.918
90867W        W94828  21.758  12.199  22.285
90868W        W94829  19.503  13.256  22.756
90869W        W94830  19.426  12.147  21.995
90870W        W94831  19.637  11.640  22.088
90871W        W94832  18.772  12.456  22.869
90872W        W94833  21.338  12.534  22.414
90873W        W94834  20.869  13.659  23.063
90874W        W94835  21.433  11.047  22.536
90875W        W94836  20.953  13.522  22.547
90876W        W94837  19.855  12.580  22.632
90877W        W94838  21.042  11.384  22.155
90878W        W94839  19.110  13.523  23.197
90879W        W94840  20.873  12.143  23.162
90880W        W94841  18.315  14.250  23.306
90881W        W94842  18.824  13.437  22.842
90882W        W94843  21.613  12.875  23.287
90883W        W94844  20.967  13.052  22.167
90884W        W94845  19.934  11.005  22.696
90885W        W94846  19.586  11.423  22.528
90886W        W94847  20.384  11.888  23.091
90887W        W94848  19.185  11.683  22.385
90888W        W94849  20.702  11.825  22.710
90889W        W94850  21.745  14.340  22.012
90890W        W94851  18.399  13.333  22.304
90891W        W94852  19.918  12.284  22.174
90892W        W94853  18.564  12.833  23.193
90893W        W94854  21.526  11.184  22.084
90894W        W94855  21.837  13.157  22.820
90895W        W94856  20.134  11.036  23.223
90896W        W94857  19.193  14.020  23.060
90897W        W94858  18.455  13.952  22.302
90898W        W94859  20.271  13.316  23.020
90899W        W94860  18.623  12.934  22.595
90900W        W94861  18.308  11.296  22.671
90901W        W94862  20.849  11.888  22.170
90902W        W94863  19.439  14.148  22.560
90903W        W94864  20.721  11.051  21.990
90904W        W94865  18.432  12.199  22.698
90905W        W94866  19.123  12.188  22.423
90906W        W94867  20.651  13.104  23.214
90907W        W94868  20.113  11.329  22.285
90908W        W94869  21.794  10.957  23.007
90909W        W94870  19.482  12.592  22.170
90910W        W94871  21.648  11.929  23.160
90911W        W94872  20.340  13.099  22.037
90912W        W94873  20.930  14.000  22.252
90913W        W94874  18.518  13.410  23.213
90914W        W94875  20.927  14.166  23.222
90915W        W94876  20.311  14.209  22.696
90916W        W94877  19.745  13.702  22.711
90917W        W94878  18.966  12.442  21.970
90918W        W94879  18.305  18.172   3.359
90919W        W94880  18.681  17.065   2.882
90920W        W94881  21.386  16.795   0.652
90921W        W94882  21.516  17.880   2.679
90922W        W94883  19.434  17.871   0.205
90923W        W94884  19.517  16.023   1.188
90924W        W94885  19.032  15.871   1.352
90925W        W94886  20.023  16.686   0.786
90926W        W94887  19.698  17.778   3.141
90927W        W94888  18.347  15.339   3.104
90928W        W94889  19.109  14.619   2.906
90929W        W94890  20.803  15.007   1.793
90930W        W94891  20.452  15.878   0.363
90931W        W94892  21.022  15.312   3.454
90932W        W94893  18.388  15.104   2.579
90933W        W94894  18.487  17.723   3.600
90934W        W94895  20.009  17.113   0.332
90935W        W94896  18.441  15.896   2.025
90936W        W94897  19.334  15.787   3.262
90937W        W94898  21.793  15.646   1.761
90938W        W94899  21.557  16.689   2.620
90939W        W94900  19.865  16.022   1.647
90940W        W94901  20.411  17.361   2.016
90941W        W94902  18.911  16.795   2.248
90942W        W94903  18.270  16.323   1.819
90943W        W94904  19.306  16.295   3.011
90944W        W94905  21.577  16.078   3.265
90945W        W94906  19.193  17.522   1.710
90946W        W94907  20.314  17.211   2.844
90947W        W94908  19.534  15.851   2.069
90948W        W94909  19.826  16.635   1.712
90949W        W94910  20.823  17.408   3.560
90950W        W94911  19.902  16.728   3.570
90951W        W94912  19.883  16.444   3.048
90952W        W94913  18.292  15.835   3.570
90953W        W94914  21.124  17.370   3.169
90954W        W94915  18.705  14.952   1.167
90955W        W94916  19.232  17.210   2.166
90956W        W94917  21.695  16.993   1.456
90957W        W94918  21.108  15.393   2.023
90958W        W94919  21.393  15.346   0.118
90959W        W94920  21.858  16.147   2.424
90960W        W94921  19.825  17.854   2.177
90961W        W94922  21.599  17.320   0.615
90962W        W94923  18.728  18.106   0.369
90963W        W94924  19.121  18.152   1.045
90964W        W94925  18.918  14.906   2.471
90965W        W94926  21.541  15.924   2.746
90966W        W94927  20.946  16.346   1.205
90967W        W94928  20.912  16.034   0.232
90968W        W94929  20.120  17.178   2.372
90969W        W94930  19.926  15.508   1.571
90970W        W94931  20.526  17.595   2.565
90971W        W94932  21.397  16.386   0.987
90972W        W94933  20.299  15.044   1.003
90973W        W94934  18.956  17.738   0.686
90974W        W94935  18.327  15.237   1.285
90975W        W94936  21.113  15.844   1.759
90976W        W94937  18.571  17.461   1.674
90977W        W94938  19.912  17.811   0.544
90978W        W94939  21.304  15.837   0.008
90979W        W94940  18.327  17.595   2.172
90980W        W94941  19.118  17.167   2.652
90981W        W94942  19.491  16.527   1.271
90982W        W94943  19.513  14.932   2.364
90983W        W94944  21.742  14.694   1.661
90984W        W94945  18.961  16.566   0.129
90985W        W94946  18.616  15.599   0.308
90986W        W94947  18.678  17.555   1.102
90987W        W94948  19.809  17.038   1.350
90988W        W94949  21.141  17.897   3.064
90989W        W94950  20.067  15.539   0.748
90990W        W94951  21.450  17.937   1.520
90991W        W94952  21.127  15.790   3.118
90992W        W94953  21.840  17.446   1.252
90993W        W94954  20.467  16.738   2.736
90994W        W94955  18.233  16.289   0.942
90995W        W94956  19.344  16.704   2.515
90996W        W94957  20.548  15.968   0.893
90997W        W94958  20.425  16.458   0.997
90998W        W94959  18.768  15.878   2.471
90999W        W94960  18.753  15.754   3.393
91000W        W94961  18.643  14.671   1.552
91001W        W94962  20.411  15.018   2.113
91002W        W94963  20.059  15.203   3.276
91003W        W94964  20.414  15.352   0.454
91004W        W94965  21.597  17.745   3.208
91005W        W94966  20.564  14.826   3.247
91006W        W94967  21.583  17.127   3.369
91007W        W94968  21.013  15.294   2.965
91008W        W94969  20.813  15.232   1.235
91009W        W94970  21.206  16.366   3.639
91010W        W94971  18.946  17.942   1.625
91011W        W94972  19.604  15.659   0.611
91012W        W94973  19.173  14.943   3.275
91013W        W94974  21.225  15.427   0.956
91014W        W94975  21.592  15.909   0.901
91015W        W94976  19.335  18.126   3.372
91016W        W94977  19.261  14.662   0.607
91017W        W94978  21.582  15.196   1.642
91018W        W94979  21.732  17.445   0.087
91019W        W94980  18.639  16.648   1.789
91020W        W94981  20.556  15.235   0.019
91021W        W94982  21.690  17.567   1.739
91022W        W94983  21.729  14.761   2.489
91023W        W94984  20.174  15.973   3.043
91024W        W94985  20.267  17.312   0.746
91025W        W94986  20.667  16.606   3.486
91026W        W94987  20.341  14.583   1.795
91027W        W94988  18.953  15.486   1.858
91028W        W94989  18.507  16.686   2.632
91029W        W94990  20.366  17.879   1.338
91030W        W94991  21.560  15.476   2.210
91031W        W94992  20.197  17.823   2.977
91032W        W94993  21.540  16.882   0.182
91033W        W94994  19.975  16.365   1.243
91034W        W94995  21.827  14.876   2.984
91035W        W94996  19.976  16.711   2.578
91036W        W94997  20.193  15.597   2.023
91037W        W94998  21.045  15.895   0.861
91038W        W94999  21.332  15.628   0.503
91039W        W95000  21.141  17.668   0.892
91040W        W95001  20.975  17.271   1.688
91041W        W95002  20.871  16.350   0.666
91042W        W95003  20.304  16.560   1.652
91043W        W95004  21.185  16.348   1.719
91044W        W95005  18.560  15.363   2.143
91045W        W95006  21.338  16.415   2.970
91046W        W95007  21.689  18.033   2.116
91047W        W95008  19.619  17.477   1.518
91048W        W95009  20.626  18.010   2.842
91049W        W95010  20.620  15.340   2.606
91050W        W95011  19.827  18.048   2.667
91051W        W95012  21.524  15.002   1.133
91052W        W95013  21.315  16.321   2.434
91053W        W95014  18.298  15.642   2.472
91054W        W95015  21.158  15.437   1.490
91055W        W95016  21.569  15.588   3.267
91056W        W95017  20.454  17.287   1.485
91057W        W95018  19.710  17.878   1.098
91058W        W95019  18.825  15.058   0.356
91059W        W95020  18.957  17.832   0.014
91060W        W95021  19.331  16.298   0.765
91061W        W95022  19.985  16.927   3.078
91062W        W95023  19.815  15.285   1.068
91063W        W95024  21.171  14.882   1.496
91064W        W95025  20.891  18.164   1.824
91065W        W95026  20.303  17.812   2.164
91066W        W95027  19.699  16.849   2.125
91067W        W95028  21.469  17.572   2.251
91068W        W95029  19.163  15.075   1.020
91069W        W95030  19.685  17.372   1.980
91070W        W95031  19.168  15.303   0.045
91071W        W95032  19.969  15.912   2.439
91072W        W95033  20.817  14.778   2.309
91073W        W95034  18.237  16.621   2.194
91074W        W95035  19.941  16.439   0.352
91075W        W95036  19.209  14.754   0.122
91076W        W95037  19.947  15.835   1.173
91077W        W95038  20.917  14.811   2.872
91078W        W95039  19.505  16.823   2.981
91079W        W95040  20.309  16.605   3.198
91080W        W95041  20.926  16.635   3.091
91081W        W95042  20.210  14.775   3.596
91082W        W95043  19.432  15.391   1.989
91083W        W95044  18.858  15.347   1.387
91084W        W95045  18.644  18.059   1.063
91085W        W95046  19.976  17.389   3.188
91086W        W95047  19.011  16.874   0.547
91087W        W95048  20.691  16.259   1.768
91088W        W95049  20.971  16.058   2.167
91089W        W95050  20.176  16.732   2.101
91090W        W95051  20.646  17.106   0.233
91091W        W95052  20.318  15.127   1.561
91092W        W95053  21.797  15.405   0.829
91093W        W95054  18.291  17.994   2.860
91094W        W95055  18.708  17.220   2.392
91095W        W95056  18.275  18.066   0.624
91096W        W95057  20.174  15.336   2.430
91097W        W95058  19.537  17.359   0.279
91098W        W95059  21.442  17.741   0.465
91099W        W95060  20.417  16.394   0.479
91100W        W95061  19.260  15.585   0.996
91101W        W95062  20.092  15.495   0.048
91102W        W95063  20.676  17.060   3.226
91103W        W95064  21.029  14.966   0.843
91104W        W95065  18.359  14.814   0.291
91105W        W95066  19.645  17.133   2.581
91106W        W95067  19.444  17.049   1.673
91107W        W95068  19.186  17.001   0.071
91108W        W95069  18.427  17.242   0.839
91109W        W95070  18.931  16.312   3.281
91110W        W95071  19.635  14.872   3.467
91111W        W95072  20.344  15.014   2.823
91112W        W95073  19.539  14.782   1.104
91113W        W95074  20.598  14.859   0.609
91114W        W95075  18.543  14.791   2.186
91115W        W95076  18.591  15.754   1.556
91116W        W95077  21.280  14.862   1.962
91117W        W95078  18.702  15.360   0.776
91118W        W95079  21.273  15.048   2.392
91119W        W95080  21.669  16.251   0.077
91120W        W95081  18.961  15.009   1.896
91121W        W95082  20.075  15.581   2.836
91122W        W95083  18.223  15.271   0.314
91123W        W95084  19.009  16.660   2.875
91124W        W95085  20.367  16.058   2.054
91125W        W95086  20.234  18.137   0.350
91126W        W95087  18.380  16.644   0.047
91127W        W95088  19.115  17.055   3.173
91128W        W95089  18.636  16.222   2.804
91129W        W95090  19.627  16.327   2.598
91130W        W95091  21.395  14.686   2.860
91131W        W95092  21.793  16.296   2.851
91132W        W95093  21.781  16.496   0.537
91133W        W95094  20.644  16.828   0.636
91134W        W95095  21.118  18.128   0.331
91135W        W95096  20.295  16.118   3.473
91136W        W95097  18.625  17.085   3.513
91137W        W95098  21.831  15.007   3.465
91138W        W95099  21.549  15.935   2.086
91139W        W95100  19.857  18.065   3.563
91140W        W95101  19.712  14.694   0.290
91141W        W95102  21.251  17.293   0.233
91142W        W95103  19.020  15.386   3.119
91143W        W95104  19.454  17.380   2.981
91144W        W95105  21.580  15.371   2.779
91145W        W95106  20.791  18.030   0.747
91146W        W95107  21.030  16.649   2.114
91147W        W95108  19.280  15.065   2.781
91148W        W95109  19.749  16.134   3.538
91149W        W95110  19.252  17.313   0.732
91150W        W95111  21.007  16.811   0.996
91151W        W95112  18.775  15.437   2.720
91152W        W95113  20.104  17.499   1.184
91153W        W95114  21.854  16.059   1.365
91154W        W95115  20.076  14.692   3.084
91155W        W95116  20.856  17.397   2.163
91156W        W95117  21.159  17.741   1.871
91157W        W95118  20.378  17.543   0.299
91158W        W95119  18.388  17.435   3.141
91159W        W95120  19.131  15.427   2.379
91160W        W95121  19.101  14.775   1.489
91161W        W95122  20.722  15.617   2.181
91162W        W95123  19.520  16.788   0.381
91163W        W95124  21.518  16.730   1.880
91164W        W95125  18.845  17.488   3.303
91165W        W95126  21.232  18.170   1.100
91166W        W95127  19.331  15.190   1.545
91167W        W95128  19.100  16.683   1.635
91168W        W95129  19.413  18.094   2.385
91169W        W95130  21.480  18.190   3.417
91170W        W95131  20.639  16.378   2.350
91171W        W95132  18.488  16.176   0.265
91172W        W95133  21.622  17.834   0.962
91173W        W95134  21.459  15.158   0.581
91174W        W95135  19.598  14.677   2.984
91175W        W95136  21.304  17.479   1.442
91176W        W95137  21.333  16.035   1.347
91177W        W95138  19.450  15.708   1.563
91178W        W95139  19.695  15.970   2.887
91179W        W95140  20.806  17.123   2.750
91180W        W95141  19.456  15.577   2.862
91181W        W95142  19.435  18.043   1.478
91182W        W95143  18.752  18.002   3.112
91183W        W95144  18.864  17.363   0.242
91184W        W95145  21.381  17.121   1.052
91185W        W95146  18.985  15.913   2.938
91186W        W95147  21.758  15.843   0.419
91187W        W95148  19.503  16.900   0.890
91188W        W95149  20.602  16.282   2.971
91189W        W95150  20.493  15.910   2.515
91190W        W95151  19.053  16.282   2.544
91191W        W95152  21.263  18.170   2.373
91192W        W95153  21.054  14.804   3.367
91193W        W95154  18.718  14.954   2.954
91194W        W95155  19.057  15.977   2.007
91195W        W95156  19.426  15.791   0.129
91196W        W95157  18.229  17.550   2.674
91197W        W95158  19.814  16.259   2.117
91198W        W95159  19.637  15.284   0.222
91199W        W95160  18.772  16.100   1.003
91200W        W95161  18.543  17.952   2.440
91201W        W95162  21.338  16.178   0.548
91202W        W95163  21.433  15.094   3.234
91203W        W95164  20.869  17.303   1.197
91204W        W95165  18.467  16.227   3.374
91205W        W95166  21.433  14.691   0.670
91206W        W95167  20.953  17.166   0.681
91207W        W95168  19.855  16.224   0.766
91208W        W95169  21.042  15.028   0.289
91209W        W95170  21.107  15.635   2.475
91210W        W95171  18.816  16.228   1.682
91211W        W95172  19.110  17.167   1.331
91212W        W95173  20.873  15.787   1.296
91213W        W95174  19.896  15.166   1.992
91214W        W95175  21.858  17.077   2.503
91215W        W95176  21.776  15.064   2.064
91216W        W95177  18.315  17.894   1.440
91217W        W95178  18.824  17.081   0.976
91218W        W95179  18.739  14.698   3.529
91219W        W95180  19.858  17.551   3.631
91220W        W95181  21.613  16.519   1.421
91221W        W95182  20.967  16.696   0.301
91222W        W95183  20.262  18.217   2.513
91223W        W95184  21.119  16.939   3.550
91224W        W95185  19.934  14.649   0.830
91225W        W95186  20.647  15.518   1.689
91226W        W95187  18.333  17.105   2.021
91227W        W95188  19.586  15.067   0.662
91228W        W95189  19.390  16.551   3.511
91229W        W95190  20.384  15.532   1.225
91230W        W95191  20.589  16.942   2.347
91231W        W95192  18.743  17.547   2.782
91232W        W95193  19.334  17.530   3.505
91233W        W95194  19.185  15.327   0.519
91234W        W95195  20.702  15.469   0.844
91235W        W95196  20.660  17.577   3.081
91236W        W95197  19.345  16.169   1.680
91237W        W95198  19.000  17.867   2.545
91238W        W95199  21.745  17.984   0.146
91239W        W95200  18.608  16.656   3.142
91240W        W95201  20.603  16.918   1.830
91241W        W95202  19.039  16.567   1.072
91242W        W95203  19.410  17.574   2.467
91243W        W95204  19.788  14.993   1.508
91244W        W95205  18.399  16.977   0.438
91245W        W95206  19.918  15.928   0.308
91246W        W95207  18.564  16.477   1.327
91247W        W95208  19.854  15.119   2.791
91248W        W95209  21.526  14.828   0.218
91249W        W95210  21.619  16.574   3.317
91250W        W95211  20.273  17.831   3.469
91251W        W95212  21.831  16.925   2.991
91252W        W95213  21.239  17.723   3.602
91253W        W95214  18.978  18.179   2.080
91254W        W95215  21.837  16.801   0.954
91255W        W95216  20.367  16.068   1.467
91256W        W95217  20.134  14.680   1.357
91257W        W95218  19.193  17.664   1.194
91258W        W95219  19.692  15.405   2.419
91259W        W95220  19.392  14.774   1.888
91260W        W95221  18.455  17.596   0.436
91261W        W95222  20.271  16.960   1.154
91262W        W95223  19.146  17.755   3.033
91263W        W95224  18.623  16.578   0.729
91264W        W95225  18.508  15.121   1.728
91265W        W95226  20.056  17.086   1.785
91266W        W95227  18.308  14.940   0.805
91267W        W95228  20.972  16.146   2.732
91268W        W95229  20.849  15.532   0.304
91269W        W95230  21.366  17.204   1.952
91270W        W95231  20.027  17.688   1.783
91271W        W95232  19.439  17.792   0.694
91272W        W95233  20.721  14.695   0.124
91273W        W95234  18.521  17.955   1.865
91274W        W95235  20.718  15.713   3.500
91275W        W95236  18.701  15.243   3.499
91276W        W95237  18.432  15.843   0.832
91277W        W95238  19.123  15.832   0.557
91278W        W95239  20.886  16.159   3.374
91279W        W95240  19.229  16.440   2.083
91280W        W95241  20.703  14.726   1.203
91281W        W95242  19.834  18.157   1.706
91282W        W95243  21.048  17.619   2.643
91283W        W95244  20.632  17.768   1.754
91284W        W95245  20.651  16.748   1.348
91285W        W95246  20.113  14.973   0.419
91286W        W95247  21.794  14.601   1.141
91287W        W95248  19.482  16.236   0.304
91288W        W95249  21.648  15.573   1.294
91289W        W95250  20.340  16.743   0.171
91290W        W95251  21.276  16.943   2.919
91291W        W95252  20.930  17.644   0.386
91292W        W95253  19.545  15.319   3.292
91293W        W95254  19.365  15.903   2.533
91294W        W95255  21.457  17.398   2.810
91295W        W95256  20.557  15.348   3.187
91296W        W95257  18.401  15.819   2.964
91297W        W95258  20.161  16.296   2.690
91298W        W95259  18.518  17.054   1.347
91299W        W95260  18.665  16.351   2.237
91300W        W95261  20.982  16.637   2.587
91301W        W95262  20.754  18.017   3.398
91302W        W95263  20.650  15.756   2.951
91303W        W95264  20.927  17.810   1.356
91304W        W95265  19.929  17.530   2.679
91305W        W95266  19.414  17.885   1.948
91306W        W95267  21.219  17.056   2.367
91307W        W95268  20.269  17.128   3.504
91308W        W95269  18.874  17.081   1.843
91309W        W95270  21.220  16.840   1.488
91310W        W95271  20.861  17.906   2.239
91311W        W95272  18.839  17.635   2.109
91312W        W95273  19.860  15.687   3.319
91313W        W95274  20.311  17.853   0.830
91314W        W95275  19.619  17.108   3.468
91315W        W95276  19.745  17.346   0.845
91316W        W95277  18.966  16.086   0.104
91317W        W95278  18.305  18.172   7.003
91318W        W95279  18.681  17.065   6.526
91319W        W95280  21.386  16.795   4.296
91320W        W95281  21.516  17.880   6.323
91321W        W95282  19.434  17.871   3.849
91322W        W95283  19.517  16.023   4.832
91323W        W95284  19.032  15.871   4.996
91324W        W95285  20.023  16.686   4.430
91325W        W95286  19.698  17.778   6.785
91326W        W95287  18.347  15.339   6.748
91327W        W95288  19.109  14.619   6.550
91328W        W95289  20.803  15.007   5.437
91329W        W95290  20.452  15.878   4.007
91330W        W95291  21.022  15.312   7.098
91331W        W95292  18.388  15.104   6.223
91332W        W95293  18.487  17.723   7.244
91333W        W95294  20.009  17.113   3.976
91334W        W95295  18.441  15.896   5.669
91335W        W95296  19.334  15.787   6.906
91336W        W95297  21.793  15.646   5.405
91337W        W95298  21.557  16.689   6.264
91338W        W95299  19.865  16.022   5.291
91339W        W95300  20.411  17.361   5.660
91340W        W95301  18.911  16.795   5.892
91341W        W95302  18.270  16.323   5.463
91342W        W95303  19.306  16.295   6.655
91343W        W95304  21.577  16.078   6.909
91344W        W95305  19.193  17.522   5.354
91345W        W95306  20.314  17.211   6.488
91346W        W95307  19.534  15.851   5.713
91347W        W95308  19.826  16.635   5.356
91348W        W95309  20.823  17.408   7.204
91349W        W95310  19.902  16.728   7.214
91350W        W95311  19.883  16.444   6.692
91351W        W95312  18.292  15.835   7.214
91352W        W95313  21.124  17.370   6.813
91353W        W95314  18.705  14.952   4.811
91354W        W95315  19.232  17.210   5.810
91355W        W95316  21.695  16.993   5.100
91356W        W95317  21.108  15.393   5.667
91357W        W95318  21.393  15.346   3.762
91358W        W95319  21.858  16.147   6.068
91359W        W95320  19.825  17.854   5.821
91360W        W95321  21.599  17.320   4.259
91361W        W95322  18.728  18.106   4.013
91362W        W95323  19.121  18.152   4.689
91363W        W95324  18.918  14.906   6.115
91364W        W95325  21.541  15.924   6.390
91365W        W95326  20.946  16.346   4.849
91366W        W95327  20.912  16.034   3.876
91367W        W95328  20.120  17.178   6.016
91368W        W95329  19.926  15.508   5.215
91369W        W95330  20.526  17.595   6.209
91370W        W95331  21.397  16.386   4.631
91371W        W95332  20.299  15.044   4.647
91372W        W95333  18.956  17.738   4.330
91373W        W95334  18.327  15.237   4.929
91374W        W95335  21.113  15.844   5.403
91375W        W95336  18.571  17.461   5.318
91376W        W95337  19.912  17.811   4.188
91377W        W95338  21.304  15.837   3.652
91378W        W95339  18.327  17.595   5.816
91379W        W95340  19.118  17.167   6.296
91380W        W95341  19.491  16.527   4.915
91381W        W95342  19.513  14.932   6.008
91382W        W95343  21.742  14.694   5.305
91383W        W95344  18.961  16.566   3.773
91384W        W95345  18.616  15.599   3.952
91385W        W95346  18.678  17.555   4.746
91386W        W95347  19.809  17.038   4.994
91387W        W95348  21.141  17.897   6.708
91388W        W95349  21.450  17.937   5.164
91389W        W95350  21.127  15.790   6.762
91390W        W95351  21.840  17.446   4.896
91391W        W95352  20.467  16.738   6.380
91392W        W95353  18.233  16.289   4.586
91393W        W95354  19.344  16.704   6.159
91394W        W95355  20.548  15.968   4.537
91395W        W95356  20.425  16.458   4.641
91396W        W95357  18.768  15.878   6.115
91397W        W95358  18.753  15.754   7.037
91398W        W95359  18.643  14.671   5.196
91399W        W95360  20.411  15.018   5.757
91400W        W95361  20.059  15.203   6.920
91401W        W95362  21.597  17.745   6.852
91402W        W95363  20.564  14.826   6.891
91403W        W95364  21.583  17.127   7.013
91404W        W95365  21.013  15.294   6.609
91405W        W95366  20.813  15.232   4.879
91406W        W95367  21.206  16.366   7.283
91407W        W95368  18.946  17.942   5.269
91408W        W95369  19.604  15.659   4.255
91409W        W95370  19.173  14.943   6.919
91410W        W95371  21.225  15.427   4.600
91411W        W95372  21.592  15.909   4.545
91412W        W95373  19.335  18.126   7.016
91413W        W95374  19.261  14.662   4.251
91414W        W95375  21.582  15.196   5.286
91415W        W95376  21.732  17.445   3.731
91416W        W95377  18.639  16.648   5.433
91417W        W95378  21.690  17.567   5.383
91418W        W95379  21.729  14.761   6.133
91419W        W95380  20.174  15.973   6.687
91420W        W95381  20.267  17.312   4.390
91421W        W95382  20.667  16.606   7.130
91422W        W95383  20.341  14.583   5.439
91423W        W95384  18.953  15.486   5.502
91424W        W95385  18.507  16.686   6.276
91425W        W95386  20.366  17.879   4.982
91426W        W95387  21.560  15.476   5.854
91427W        W95388  20.197  17.823   6.621
91428W        W95389  21.540  16.882   3.826
91429W        W95390  19.975  16.365   4.887
91430W        W95391  21.827  14.876   6.628
91431W        W95392  19.976  16.711   6.222
91432W        W95393  20.193  15.597   5.667
91433W        W95394  21.045  15.895   4.505
91434W        W95395  21.141  17.668   4.536
91435W        W95396  20.975  17.271   5.332
91436W        W95397  20.871  16.350   4.310
91437W        W95398  20.304  16.560   5.296
91438W        W95399  21.185  16.348   5.363
91439W        W95400  18.560  15.363   5.787
91440W        W95401  21.338  16.415   6.614
91441W        W95402  21.689  18.033   5.760
91442W        W95403  19.619  17.477   5.162
91443W        W95404  20.626  18.010   6.486
91444W        W95405  20.620  15.340   6.250
91445W        W95406  19.827  18.048   6.311
91446W        W95407  21.524  15.002   4.777
91447W        W95408  21.315  16.321   6.078
91448W        W95409  18.298  15.642   6.116
91449W        W95410  21.158  15.437   5.134
91450W        W95411  21.569  15.588   6.911
91451W        W95412  20.454  17.287   5.129
91452W        W95413  19.710  17.878   4.742
91453W        W95414  18.825  15.058   4.000
91454W        W95415  19.929  14.712   5.810
91455W        W95416  18.957  17.832   3.658
91456W        W95417  19.331  16.298   4.409
91457W        W95418  19.985  16.927   6.722
91458W        W95419  19.815  15.285   4.712
91459W        W95420  21.171  14.882   5.140
91460W        W95421  20.891  18.164   5.468
91461W        W95422  20.303  17.812   5.808
91462W        W95423  19.699  16.849   5.769
91463W        W95424  19.163  15.075   4.664
91464W        W95425  19.685  17.372   5.624
91465W        W95426  19.168  15.303   3.689
91466W        W95427  19.969  15.912   6.083
91467W        W95428  20.817  14.778   5.953
91468W        W95429  18.237  16.621   5.838
91469W        W95430  19.941  16.439   3.996
91470W        W95431  19.209  14.754   3.766
91471W        W95432  19.947  15.835   4.817
91472W        W95433  19.505  16.823   6.625
91473W        W95434  20.309  16.605   6.842
91474W        W95435  20.926  16.635   6.735
91475W        W95436  20.210  14.775   7.240
91476W        W95437  19.432  15.391   5.633
91477W        W95438  18.858  15.347   5.031
91478W        W95439  18.644  18.059   4.707
91479W        W95440  19.976  17.389   6.832
91480W        W95441  19.011  16.874   4.191
91481W        W95442  20.691  16.259   5.412
91482W        W95443  20.971  16.058   5.811
91483W        W95444  20.176  16.732   5.745
91484W        W95445  20.646  17.106   3.877
91485W        W95446  20.318  15.127   5.205
91486W        W95447  21.797  15.405   4.473
91487W        W95448  18.291  17.994   6.504
91488W        W95449  18.708  17.220   6.036
91489W        W95450  18.275  18.066   4.268
91490W        W95451  20.174  15.336   6.074
91491W        W95452  19.537  17.359   3.923
91492W        W95453  21.442  17.741   4.109
91493W        W95454  20.417  16.394   4.123
91494W        W95455  19.260  15.585   4.640
91495W        W95456  20.092  15.495   3.692
91496W        W95457  20.676  17.060   6.870
91497W        W95458  21.029  14.966   4.487
91498W        W95459  18.359  14.814   3.935
91499W        W95460  19.645  17.133   6.225
91500W        W95461  19.444  17.049   5.317
91501W        W95462  19.186  17.001   3.715
91502W        W95463  18.427  17.242   4.483
91503W        W95464  18.931  16.312   6.925
91504W        W95465  19.635  14.872   7.111
91505W        W95466  20.344  15.014   6.467
91506W        W95467  19.539  14.782   4.748
91507W        W95468  18.543  14.791   5.830
91508W        W95469  18.591  15.754   5.200
91509W        W95470  21.280  14.862   5.606
91510W        W95471  18.702  15.360   4.420
91511W        W95472  21.273  15.048   6.036
91512W        W95473  21.669  16.251   3.721
91513W        W95474  18.961  15.009   5.540
91514W        W95475  20.075  15.581   6.480
91515W        W95476  18.223  15.271   3.958
91516W        W95477  19.009  16.660   6.519
91517W        W95478  20.367  16.058   5.698
91518W        W95479  20.234  18.137   3.994
91519W        W95480  18.380  16.644   3.691
91520W        W95481  19.115  17.055   6.817
91521W        W95482  18.636  16.222   6.448
91522W        W95483  19.627  16.327   6.242
91523W        W95484  21.395  14.686   6.504
91524W        W95485  21.793  16.296   6.495
91525W        W95486  21.781  16.496   4.181
91526W        W95487  20.644  16.828   4.280
91527W        W95488  21.118  18.128   3.975
91528W        W95489  20.295  16.118   7.117
91529W        W95490  18.625  17.085   7.157
91530W        W95491  21.831  15.007   7.109
91531W        W95492  21.549  15.935   5.730
91532W        W95493  19.857  18.065   7.207
91533W        W95494  19.712  14.694   3.934
91534W        W95495  21.251  17.293   3.877
91535W        W95496  19.020  15.386   6.763
91536W        W95497  19.454  17.380   6.625
91537W        W95498  21.580  15.371   6.423
91538W        W95499  20.791  18.030   4.391
91539W        W95500  21.030  16.649   5.758
91540W        W95501  19.280  15.065   6.425
91541W        W95502  19.749  16.134   7.182
91542W        W95503  19.252  17.313   4.376
91543W        W95504  21.007  16.811   4.640
91544W        W95505  18.775  15.437   6.364
91545W        W95506  20.104  17.499   4.828
91546W        W95507  21.854  16.059   5.009
91547W        W95508  20.076  14.692   6.728
91548W        W95509  20.856  17.397   5.807
91549W        W95510  21.159  17.741   5.515
91550W        W95511  20.378  17.543   3.943
91551W        W95512  18.388  17.435   6.785
91552W        W95513  19.131  15.427   6.023
91553W        W95514  19.101  14.775   5.133
91554W        W95515  20.722  15.617   5.825
91555W        W95516  19.520  16.788   4.025
91556W        W95517  21.518  16.730   5.524
91557W        W95518  18.845  17.488   6.947
91558W        W95519  21.232  18.170   4.744
91559W        W95520  19.331  15.190   5.189
91560W        W95521  19.100  16.683   5.279
91561W        W95522  19.413  18.094   6.029
91562W        W95523  20.639  16.378   5.994
91563W        W95524  18.488  16.176   3.909
91564W        W95525  21.622  17.834   4.606
91565W        W95526  21.459  15.158   4.225
91566W        W95527  19.598  14.677   6.628
91567W        W95528  21.304  17.479   5.086
91568W        W95529  21.333  16.035   4.991
91569W        W95530  19.450  15.708   5.207
91570W        W95531  19.695  15.970   6.531
91571W        W95532  20.806  17.123   6.394
91572W        W95533  19.456  15.577   6.506
91573W        W95534  19.435  18.043   5.122
91574W        W95535  18.752  18.002   6.756
91575W        W95536  18.864  17.363   3.886
91576W        W95537  21.381  17.121   4.696
91577W        W95538  18.985  15.913   6.582
91578W        W95539  21.758  15.843   4.063
91579W        W95540  19.503  16.900   4.534
91580W        W95541  20.602  16.282   6.615
91581W        W95542  20.493  15.910   6.159
91582W        W95543  19.053  16.282   6.188
91583W        W95544  21.054  14.804   7.011
91584W        W95545  18.718  14.954   6.598
91585W        W95546  19.057  15.977   5.651
91586W        W95547  19.426  15.791   3.773
91587W        W95548  18.229  17.550   6.318
91588W        W95549  19.814  16.259   5.761
91589W        W95550  19.637  15.284   3.866
91590W        W95551  18.772  16.100   4.647
91591W        W95552  18.543  17.952   6.084
91592W        W95553  21.338  16.178   4.192
91593W        W95554  21.433  15.094   6.878
91594W        W95555  20.869  17.303   4.841
91595W        W95556  18.467  16.227   7.018
91596W        W95557  21.433  14.691   4.314
91597W        W95558  20.953  17.166   4.325
91598W        W95559  19.855  16.224   4.410
91599W        W95560  21.042  15.028   3.933
91600W        W95561  21.107  15.635   6.119
91601W        W95562  18.816  16.228   5.326
91602W        W95563  19.110  17.167   4.975
91603W        W95564  20.873  15.787   4.940
91604W        W95565  19.896  15.166   5.636
91605W        W95566  21.858  17.077   6.147
91606W        W95567  21.776  15.064   5.708
91607W        W95568  18.315  17.894   5.084
91608W        W95569  18.824  17.081   4.620
91609W        W95570  18.739  14.698   7.173
91610W        W95571  19.858  17.551   7.275
91611W        W95572  21.613  16.519   5.065
91612W        W95573  20.967  16.696   3.945
91613W        W95574  20.262  18.217   6.157
91614W        W95575  21.119  16.939   7.194
91615W        W95576  19.934  14.649   4.474
91616W        W95577  20.647  15.518   5.333
91617W        W95578  18.333  17.105   5.665
91618W        W95579  19.586  15.067   4.306
91619W        W95580  19.390  16.551   7.155
91620W        W95581  20.384  15.532   4.869
91621W        W95582  20.589  16.942   5.991
91622W        W95583  18.743  17.547   6.426
91623W        W95584  19.334  17.530   7.149
91624W        W95585  19.185  15.327   4.163
91625W        W95586  20.702  15.469   4.488
91626W        W95587  20.660  17.577   6.725
91627W        W95588  19.345  16.169   5.324
91628W        W95589  19.000  17.867   6.189
91629W        W95590  21.745  17.984   3.790
91630W        W95591  18.608  16.656   6.786
91631W        W95592  20.603  16.918   5.474
91632W        W95593  19.039  16.567   4.716
91633W        W95594  19.410  17.574   6.111
91634W        W95595  19.788  14.993   5.152
91635W        W95596  18.399  16.977   4.082
91636W        W95597  19.918  15.928   3.952
91637W        W95598  18.564  16.477   4.971
91638W        W95599  19.854  15.119   6.435
91639W        W95600  21.526  14.828   3.862
91640W        W95601  21.619  16.574   6.961
91641W        W95602  20.273  17.831   7.113
91642W        W95603  21.831  16.925   6.635
91643W        W95604  21.239  17.723   7.246
91644W        W95605  18.978  18.179   5.724
91645W        W95606  21.837  16.801   4.598
91646W        W95607  20.367  16.068   5.111
91647W        W95608  20.134  14.680   5.001
91648W        W95609  19.193  17.664   4.838
91649W        W95610  19.692  15.405   6.063
91650W        W95611  19.392  14.774   5.532
91651W        W95612  18.455  17.596   4.080
91652W        W95613  20.271  16.960   4.798
91653W        W95614  19.146  17.755   6.677
91654W        W95615  18.623  16.578   4.373
91655W        W95616  18.508  15.121   5.372
91656W        W95617  20.056  17.086   5.429
91657W        W95618  18.308  14.940   4.449
91658W        W95619  20.972  16.146   6.376
91659W        W95620  21.366  17.204   5.596
91660W        W95621  20.027  17.688   5.427
91661W        W95622  19.439  17.792   4.338
91662W        W95623  20.721  14.695   3.768
91663W        W95624  18.521  17.955   5.509
91664W        W95625  20.718  15.713   7.144
91665W        W95626  18.701  15.243   7.143
91666W        W95627  18.432  15.843   4.476
91667W        W95628  19.123  15.832   4.201
91668W        W95629  20.886  16.159   7.018
91669W        W95630  19.229  16.440   5.727
91670W        W95631  20.703  14.726   4.847
91671W        W95632  19.834  18.157   5.350
91672W        W95633  21.048  17.619   6.287
91673W        W95634  20.632  17.768   5.398
91674W        W95635  20.651  16.748   4.992
91675W        W95636  20.113  14.973   4.063
91676W        W95637  21.794  14.601   4.785
91677W        W95638  19.482  16.236   3.948
91678W        W95639  21.648  15.573   4.938
91679W        W95640  20.340  16.743   3.815
91680W        W95641  21.276  16.943   6.563
91681W        W95642  20.930  17.644   4.030
91682W        W95643  19.545  15.319   6.936
91683W        W95644  19.365  15.903   6.177
91684W        W95645  21.457  17.398   6.454
91685W        W95646  20.557  15.348   6.831
91686W        W95647  18.401  15.819   6.608
91687W        W95648  20.161  16.296   6.334
91688W        W95649  18.518  17.054   4.991
91689W        W95650  18.665  16.351   5.881
91690W        W95651  20.982  16.637   6.231
91691W        W95652  20.754  18.017   7.042
91692W        W95653  20.650  15.756   6.595
91693W        W95654  20.927  17.810   5.000
91694W        W95655  19.929  17.530   6.323
91695W        W95656  19.414  17.885   5.592
91696W        W95657  21.219  17.056   6.011
91697W        W95658  20.269  17.128   7.148
91698W        W95659  18.874  17.081   5.487
91699W        W95660  21.220  16.840   5.132
91700W        W95661  20.861  17.906   5.883
91701W        W95662  18.839  17.635   5.753
91702W        W95663  19.860  15.687   6.963
91703W        W95664  20.311  17.853   4.474
91704W        W95665  19.619  17.108   7.112
91705W        W95666  19.745  17.346   4.489
91706W        W95667  18.966  16.086   3.748
91707W        W95668  18.305  18.172  10.648
91708W        W95669  18.681  17.065  10.171
91709W        W95670  21.386  16.795   7.941
91710W        W95671  21.516  17.880   9.968
91711W        W95672  19.434  17.871   7.494
91712W        W95673  19.517  16.023   8.477
91713W        W95674  19.032  15.871   8.641
91714W        W95675  20.023  16.686   8.075
91715W        W95676  19.698  17.778  10.430
91716W        W95677  18.347  15.339  10.393
91717W        W95678  19.109  14.619  10.195
91718W        W95679  20.803  15.007   9.082
91719W        W95680  20.452  15.878   7.652
91720W        W95681  21.022  15.312  10.743
91721W        W95682  18.388  15.104   9.868
91722W        W95683  18.487  17.723  10.889
91723W        W95684  20.009  17.113   7.621
91724W        W95685  18.441  15.896   9.314
91725W        W95686  19.334  15.787  10.551
91726W        W95687  21.793  15.646   9.050
91727W        W95688  21.557  16.689   9.909
91728W        W95689  19.865  16.022   8.936
91729W        W95690  20.411  17.361   9.305
91730W        W95691  18.911  16.795   9.537
91731W        W95692  18.270  16.323   9.108
91732W        W95693  19.306  16.295  10.300
91733W        W95694  21.577  16.078  10.554
91734W        W95695  19.193  17.522   8.999
91735W        W95696  20.314  17.211  10.133
91736W        W95697  19.534  15.851   9.358
91737W        W95698  19.826  16.635   9.001
91738W        W95699  20.823  17.408  10.849
91739W        W95700  19.902  16.728  10.859
91740W        W95701  19.883  16.444  10.337
91741W        W95702  18.292  15.835  10.859
91742W        W95703  21.124  17.370  10.458
91743W        W95704  18.705  14.952   8.456
91744W        W95705  19.232  17.210   9.455
91745W        W95706  21.695  16.993   8.745
91746W        W95707  21.108  15.393   9.312
91747W        W95708  21.393  15.346   7.407
91748W        W95709  21.858  16.147   9.713
91749W        W95710  19.825  17.854   9.466
91750W        W95711  21.599  17.320   7.904
91751W        W95712  18.728  18.106   7.658
91752W        W95713  19.121  18.152   8.334
91753W        W95714  18.918  14.906   9.760
91754W        W95715  21.541  15.924  10.035
91755W        W95716  20.946  16.346   8.494
91756W        W95717  20.912  16.034   7.521
91757W        W95718  20.120  17.178   9.661
91758W        W95719  19.926  15.508   8.860
91759W        W95720  20.526  17.595   9.854
91760W        W95721  21.397  16.386   8.276
91761W        W95722  20.299  15.044   8.292
91762W        W95723  18.956  17.738   7.975
91763W        W95724  18.327  15.237   8.574
91764W        W95725  21.113  15.844   9.048
91765W        W95726  18.571  17.461   8.963
91766W        W95727  19.912  17.811   7.833
91767W        W95728  21.304  15.837   7.297
91768W        W95729  19.118  17.167   9.941
91769W        W95730  19.491  16.527   8.560
91770W        W95731  19.513  14.932   9.653
91771W        W95732  21.742  14.694   8.950
91772W        W95733  18.961  16.566   7.418
91773W        W95734  18.616  15.599   7.597
91774W        W95735  18.678  17.555   8.391
91775W        W95736  19.809  17.038   8.639
91776W        W95737  21.141  17.897  10.353
91777W        W95738  20.067  15.539   8.037
91778W        W95739  21.450  17.937   8.809
91779W        W95740  21.127  15.790  10.407
91780W        W95741  21.840  17.446   8.541
91781W        W95742  20.467  16.738  10.025
91782W        W95743  18.233  16.289   8.231
91783W        W95744  19.344  16.704   9.804
91784W        W95745  20.548  15.968   8.182
91785W        W95746  20.425  16.458   8.286
91786W        W95747  18.768  15.878   9.760
91787W        W95748  18.753  15.754  10.682
91788W        W95749  18.643  14.671   8.841
91789W        W95750  20.411  15.018   9.402
91790W        W95751  20.059  15.203  10.565
91791W        W95752  20.414  15.352   7.743
91792W        W95753  21.597  17.745  10.497
91793W        W95754  20.564  14.826  10.536
91794W        W95755  21.583  17.127  10.658
91795W        W95756  21.013  15.294  10.254
91796W        W95757  20.813  15.232   8.524
91797W        W95758  21.206  16.366  10.928
91798W        W95759  18.946  17.942   8.914
91799W        W95760  19.604  15.659   7.900
91800W        W95761  19.173  14.943  10.564
91801W        W95762  21.225  15.427   8.245
91802W        W95763  21.592  15.909   8.190
91803W        W95764  19.335  18.126  10.661
91804W        W95765  19.261  14.662   7.896
91805W        W95766  21.582  15.196   8.931
91806W        W95767  21.732  17.445   7.376
91807W        W95768  18.639  16.648   9.078
91808W        W95769  20.556  15.235   7.308
91809W        W95770  21.690  17.567   9.028
91810W        W95771  21.729  14.761   9.778
91811W        W95772  20.174  15.973  10.332
91812W        W95773  20.267  17.312   8.035
91813W        W95774  20.667  16.606  10.775
91814W        W95775  20.341  14.583   9.084
91815W        W95776  18.953  15.486   9.147
91816W        W95777  18.507  16.686   9.921
91817W        W95778  20.366  17.879   8.627
91818W        W95779  21.560  15.476   9.499
91819W        W95780  20.197  17.823  10.266
91820W        W95781  21.540  16.882   7.471
91821W        W95782  19.975  16.365   8.532
91822W        W95783  21.827  14.876  10.273
91823W        W95784  19.976  16.711   9.867
91824W        W95785  20.193  15.597   9.312
91825W        W95786  21.045  15.895   8.150
91826W        W95787  21.332  15.628   7.792
91827W        W95788  21.141  17.668   8.181
91828W        W95789  20.975  17.271   8.977
91829W        W95790  20.871  16.350   7.955
91830W        W95791  20.304  16.560   8.941
91831W        W95792  21.185  16.348   9.008
91832W        W95793  18.560  15.363   9.432
91833W        W95794  21.338  16.415  10.259
91834W        W95795  21.689  18.033   9.405
91835W        W95796  19.619  17.477   8.807
91836W        W95797  20.626  18.010  10.131
91837W        W95798  20.620  15.340   9.895
91838W        W95799  19.827  18.048   9.956
91839W        W95800  21.524  15.002   8.422
91840W        W95801  21.315  16.321   9.723
91841W        W95802  18.298  15.642   9.761
91842W        W95803  21.158  15.437   8.779
91843W        W95804  21.569  15.588  10.556
91844W        W95805  20.454  17.287   8.774
91845W        W95806  19.710  17.878   8.387
91846W        W95807  18.825  15.058   7.645
91847W        W95808  19.929  14.712   9.455
91848W        W95809  18.957  17.832   7.303
91849W        W95810  19.331  16.298   8.054
91850W        W95811  19.985  16.927  10.367
91851W        W95812  19.815  15.285   8.357
91852W        W95813  21.171  14.882   8.785
91853W        W95814  20.891  18.164   9.113
91854W        W95815  20.303  17.812   9.453
91855W        W95816  19.699  16.849   9.414
91856W        W95817  21.469  17.572   9.540
91857W        W95818  19.163  15.075   8.309
91858W        W95819  19.685  17.372   9.269
91859W        W95820  19.168  15.303   7.334
91860W        W95821  19.969  15.912   9.728
91861W        W95822  20.817  14.778   9.598
91862W        W95823  18.237  16.621   9.483
91863W        W95824  19.941  16.439   7.641
91864W        W95825  19.209  14.754   7.411
91865W        W95826  19.947  15.835   8.462
91866W        W95827  20.917  14.811  10.161
91867W        W95828  19.505  16.823  10.270
91868W        W95829  20.309  16.605  10.487
91869W        W95830  20.926  16.635  10.380
91870W        W95831  20.210  14.775  10.885
91871W        W95832  19.432  15.391   9.278
91872W        W95833  18.858  15.347   8.676
91873W        W95834  18.644  18.059   8.352
91874W        W95835  19.976  17.389  10.477
91875W        W95836  19.011  16.874   7.836
91876W        W95837  20.691  16.259   9.057
91877W        W95838  20.971  16.058   9.456
91878W        W95839  20.176  16.732   9.390
91879W        W95840  20.646  17.106   7.522
91880W        W95841  20.318  15.127   8.850
91881W        W95842  21.797  15.405   8.118
91882W        W95843  18.291  17.994  10.149
91883W        W95844  18.708  17.220   9.681
91884W        W95845  18.275  18.066   7.913
91885W        W95846  20.174  15.336   9.719
91886W        W95847  19.537  17.359   7.568
91887W        W95848  21.442  17.741   7.754
91888W        W95849  20.417  16.394   7.768
91889W        W95850  19.260  15.585   8.285
91890W        W95851  20.092  15.495   7.337
91891W        W95852  20.676  17.060  10.515
91892W        W95853  21.029  14.966   8.132
91893W        W95854  18.359  14.814   7.580
91894W        W95855  19.645  17.133   9.870
91895W        W95856  19.444  17.049   8.962
91896W        W95857  19.186  17.001   7.360
91897W        W95858  18.427  17.242   8.128
91898W        W95859  18.931  16.312  10.570
91899W        W95860  19.635  14.872  10.756
91900W        W95861  20.344  15.014  10.112
91901W        W95862  19.539  14.782   8.393
91902W        W95863  20.598  14.859   7.898
91903W        W95864  18.543  14.791   9.475
91904W        W95865  18.591  15.754   8.845
91905W        W95866  21.280  14.862   9.251
91906W        W95867  18.702  15.360   8.065
91907W        W95868  21.273  15.048   9.681
91908W        W95869  21.669  16.251   7.366
91909W        W95870  18.961  15.009   9.185
91910W        W95871  20.075  15.581  10.125
91911W        W95872  18.223  15.271   7.603
91912W        W95873  19.009  16.660  10.164
91913W        W95874  20.367  16.058   9.343
91914W        W95875  20.234  18.137   7.639
91915W        W95876  18.380  16.644   7.336
91916W        W95877  19.115  17.055  10.462
91917W        W95878  18.636  16.222  10.093
91918W        W95879  19.627  16.327   9.887
91919W        W95880  21.395  14.686  10.149
91920W        W95881  21.793  16.296  10.140
91921W        W95882  21.781  16.496   7.826
91922W        W95883  20.644  16.828   7.925
91923W        W95884  21.118  18.128   7.620
91924W        W95885  20.295  16.118  10.762
91925W        W95886  18.625  17.085  10.802
91926W        W95887  21.831  15.007  10.754
91927W        W95888  21.549  15.935   9.375
91928W        W95889  19.857  18.065  10.852
91929W        W95890  19.712  14.694   7.579
91930W        W95891  21.251  17.293   7.522
91931W        W95892  19.020  15.386  10.408
91932W        W95893  19.454  17.380  10.270
91933W        W95894  21.580  15.371  10.068
91934W        W95895  20.791  18.030   8.036
91935W        W95896  21.030  16.649   9.403
91936W        W95897  19.280  15.065  10.070
91937W        W95898  19.749  16.134  10.827
91938W        W95899  19.252  17.313   8.021
91939W        W95900  21.007  16.811   8.285
91940W        W95901  18.775  15.437  10.009
91941W        W95902  20.104  17.499   8.473
91942W        W95903  21.854  16.059   8.654
91943W        W95904  20.076  14.692  10.373
91944W        W95905  20.856  17.397   9.452
91945W        W95906  21.159  17.741   9.160
91946W        W95907  20.378  17.543   7.588
91947W        W95908  18.388  17.435  10.430
91948W        W95909  19.131  15.427   9.668
91949W        W95910  19.101  14.775   8.778
91950W        W95911  20.722  15.617   9.470
91951W        W95912  19.520  16.788   7.670
91952W        W95913  21.518  16.730   9.169
91953W        W95914  18.845  17.488  10.592
91954W        W95915  21.232  18.170   8.389
91955W        W95916  19.331  15.190   8.834
91956W        W95917  19.100  16.683   8.924
91957W        W95918  19.413  18.094   9.674
91958W        W95919  21.480  18.190  10.706
91959W        W95920  20.639  16.378   9.639
91960W        W95921  18.488  16.176   7.554
91961W        W95922  21.622  17.834   8.251
91962W        W95923  21.459  15.158   7.870
91963W        W95924  19.598  14.677  10.273
91964W        W95925  21.304  17.479   8.731
91965W        W95926  21.333  16.035   8.636
91966W        W95927  19.450  15.708   8.852
91967W        W95928  19.695  15.970  10.176
91968W        W95929  20.806  17.123  10.039
91969W        W95930  19.456  15.577  10.151
91970W        W95931  19.435  18.043   8.767
91971W        W95932  18.752  18.002  10.401
91972W        W95933  18.864  17.363   7.531
91973W        W95934  21.381  17.121   8.341
91974W        W95935  18.985  15.913  10.227
91975W        W95936  21.758  15.843   7.708
91976W        W95937  19.503  16.900   8.179
91977W        W95938  20.602  16.282  10.260
91978W        W95939  20.493  15.910   9.804
91979W        W95940  19.053  16.282   9.833
91980W        W95941  21.263  18.170   9.662
91981W        W95942  21.054  14.804  10.656
91982W        W95943  18.718  14.954  10.243
91983W        W95944  19.057  15.977   9.296
91984W        W95945  19.426  15.791   7.418
91985W        W95946  18.229  17.550   9.963
91986W        W95947  19.814  16.259   9.406
91987W        W95948  19.637  15.284   7.511
91988W        W95949  18.772  16.100   8.292
91989W        W95950  18.543  17.952   9.729
91990W        W95951  21.338  16.178   7.837
91991W        W95952  21.433  15.094  10.523
91992W        W95953  20.869  17.303   8.486
91993W        W95954  18.467  16.227  10.663
91994W        W95955  21.433  14.691   7.959
91995W        W95956  20.953  17.166   7.970
91996W        W95957  19.855  16.224   8.055
91997W        W95958  21.042  15.028   7.578
91998W        W95959  21.107  15.635   9.764
91999W        W95960  18.816  16.228   8.971
92000W        W95961  19.110  17.167   8.620
92001W        W95962  20.873  15.787   8.585
92002W        W95963  19.896  15.166   9.281
92003W        W95964  21.858  17.077   9.792
92004W        W95965  21.776  15.064   9.353
92005W        W95966  18.315  17.894   8.729
92006W        W95967  18.824  17.081   8.265
92007W        W95968  18.739  14.698  10.818
92008W        W95969  19.858  17.551  10.920
92009W        W95970  21.613  16.519   8.710
92010W        W95971  20.967  16.696   7.590
92011W        W95972  20.262  18.217   9.802
92012W        W95973  21.119  16.939  10.839
92013W        W95974  19.934  14.649   8.119
92014W        W95975  20.647  15.518   8.978
92015W        W95976  19.586  15.067   7.951
92016W        W95977  19.390  16.551  10.800
92017W        W95978  20.384  15.532   8.514
92018W        W95979  20.589  16.942   9.636
92019W        W95980  18.743  17.547  10.071
92020W        W95981  19.334  17.530  10.794
92021W        W95982  19.185  15.327   7.808
92022W        W95983  20.702  15.469   8.133
92023W        W95984  20.660  17.577  10.370
92024W        W95985  19.345  16.169   8.969
92025W        W95986  19.000  17.867   9.834
92026W        W95987  21.745  17.984   7.435
92027W        W95988  18.608  16.656  10.431
92028W        W95989  20.603  16.918   9.119
92029W        W95990  19.039  16.567   8.361
92030W        W95991  19.410  17.574   9.756
92031W        W95992  19.788  14.993   8.797
92032W        W95993  18.399  16.977   7.727
92033W        W95994  19.918  15.928   7.597
92034W        W95995  18.564  16.477   8.616
92035W        W95996  19.854  15.119  10.080
92036W        W95997  21.526  14.828   7.507
92037W        W95998  21.619  16.574  10.606
92038W        W95999  20.273  17.831  10.758
92039W        W96000  21.831  16.925  10.280
92040W        W96001  21.239  17.723  10.891
92041W        W96002  18.978  18.179   9.369
92042W        W96003  21.837  16.801   8.243
92043W        W96004  20.367  16.068   8.756
92044W        W96005  20.134  14.680   8.646
92045W        W96006  19.193  17.664   8.483
92046W        W96007  19.692  15.405   9.708
92047W        W96008  19.392  14.774   9.177
92048W        W96009  18.455  17.596   7.725
92049W        W96010  20.271  16.960   8.443
92050W        W96011  19.146  17.755  10.322
92051W        W96012  18.623  16.578   8.018
92052W        W96013  18.508  15.121   9.017
92053W        W96014  20.056  17.086   9.074
92054W        W96015  18.308  14.940   8.094
92055W        W96016  20.972  16.146  10.021
92056W        W96017  20.849  15.532   7.593
92057W        W96018  21.366  17.204   9.241
92058W        W96019  20.027  17.688   9.072
92059W        W96020  19.439  17.792   7.983
92060W        W96021  18.521  17.955   9.154
92061W        W96022  20.718  15.713  10.789
92062W        W96023  18.701  15.243  10.788
92063W        W96024  18.432  15.843   8.121
92064W        W96025  19.123  15.832   7.846
92065W        W96026  20.886  16.159  10.663
92066W        W96027  19.229  16.440   9.372
92067W        W96028  20.703  14.726   8.492
92068W        W96029  19.834  18.157   8.995
92069W        W96030  21.048  17.619   9.932
92070W        W96031  20.632  17.768   9.043
92071W        W96032  20.651  16.748   8.637
92072W        W96033  20.113  14.973   7.708
92073W        W96034  21.794  14.601   8.430
92074W        W96035  19.482  16.236   7.593
92075W        W96036  21.648  15.573   8.583
92076W        W96037  20.340  16.743   7.460
92077W        W96038  21.276  16.943  10.208
92078W        W96039  20.930  17.644   7.675
92079W        W96040  19.545  15.319  10.581
92080W        W96041  19.365  15.903   9.822
92081W        W96042  21.457  17.398  10.099
92082W        W96043  20.557  15.348  10.476
92083W        W96044  18.401  15.819  10.253
92084W        W96045  20.161  16.296   9.979
92085W        W96046  18.518  17.054   8.636
92086W        W96047  18.665  16.351   9.526
92087W        W96048  20.982  16.637   9.876
92088W        W96049  20.754  18.017  10.687
92089W        W96050  20.650  15.756  10.240
92090W        W96051  20.927  17.810   8.645
92091W        W96052  19.929  17.530   9.968
92092W        W96053  19.414  17.885   9.237
92093W        W96054  21.219  17.056   9.656
92094W        W96055  20.269  17.128  10.793
92095W        W96056  18.874  17.081   9.132
92096W        W96057  21.220  16.840   8.777
92097W        W96058  20.861  17.906   9.528
92098W        W96059  18.839  17.635   9.398
92099W        W96060  19.860  15.687  10.608
92100W        W96061  20.311  17.853   8.119
92101W        W96062  19.745  17.346   8.134
92102W        W96063  18.966  16.086   7.393
92103W        W96064  18.305  18.172  14.292
92104W        W96065  18.681  17.065  13.815
92105W        W96066  21.386  16.795  11.585
92106W        W96067  21.516  17.880  13.612
92107W        W96068  19.434  17.871  11.138
92108W        W96069  19.517  16.023  12.121
92109W        W96070  19.032  15.871  12.285
92110W        W96071  20.023  16.686  11.719
92111W        W96072  19.698  17.778  14.074
92112W        W96073  18.347  15.339  14.037
92113W        W96074  19.109  14.619  13.839
92114W        W96075  20.803  15.007  12.726
92115W        W96076  20.452  15.878  11.296
92116W        W96077  21.022  15.312  14.387
92117W        W96078  18.388  15.104  13.512
92118W        W96079  18.487  17.723  14.533
92119W        W96080  18.441  15.896  12.958
92120W        W96081  19.334  15.787  14.195
92121W        W96082  21.793  15.646  12.694
92122W        W96083  21.557  16.689  13.553
92123W        W96084  19.865  16.022  12.580
92124W        W96085  20.411  17.361  12.949
92125W        W96086  18.911  16.795  13.181
92126W        W96087  18.270  16.323  12.752
92127W        W96088  19.306  16.295  13.944
92128W        W96089  21.577  16.078  14.198
92129W        W96090  19.193  17.522  12.643
92130W        W96091  19.534  15.851  13.002
92131W        W96092  19.826  16.635  12.645
92132W        W96093  20.823  17.408  14.493
92133W        W96094  19.902  16.728  14.503
92134W        W96095  19.883  16.444  13.981
92135W        W96096  18.292  15.835  14.503
92136W        W96097  21.124  17.370  14.102
92137W        W96098  18.705  14.952  12.100
92138W        W96099  19.232  17.210  13.099
92139W        W96100  21.695  16.993  12.389
92140W        W96101  21.108  15.393  12.956
92141W        W96102  21.393  15.346  11.051
92142W        W96103  21.858  16.147  13.357
92143W        W96104  19.825  17.854  13.110
92144W        W96105  21.599  17.320  11.548
92145W        W96106  18.728  18.106  11.302
92146W        W96107  19.121  18.152  11.978
92147W        W96108  18.918  14.906  13.404
92148W        W96109  21.541  15.924  13.679
92149W        W96110  20.946  16.346  12.138
92150W        W96111  20.912  16.034  11.165
92151W        W96112  20.120  17.178  13.305
92152W        W96113  19.926  15.508  12.504
92153W        W96114  20.526  17.595  13.498
92154W        W96115  21.397  16.386  11.920
92155W        W96116  20.299  15.044  11.936
92156W        W96117  18.956  17.738  11.619
92157W        W96118  18.327  15.237  12.218
92158W        W96119  21.113  15.844  12.692
92159W        W96120  18.571  17.461  12.607
92160W        W96121  19.912  17.811  11.477
92161W        W96122  21.304  15.837  10.941
92162W        W96123  18.327  17.595  13.105
92163W        W96124  19.118  17.167  13.585
92164W        W96125  19.491  16.527  12.204
92165W        W96126  19.513  14.932  13.297
92166W        W96127  21.742  14.694  12.594
92167W        W96128  18.961  16.566  11.062
92168W        W96129  18.616  15.599  11.241
92169W        W96130  18.678  17.555  12.035
92170W        W96131  19.809  17.038  12.283
92171W        W96132  21.141  17.897  13.997
92172W        W96133  20.067  15.539  11.681
92173W        W96134  21.450  17.937  12.453
92174W        W96135  21.127  15.790  14.051
92175W        W96136  21.840  17.446  12.185
92176W        W96137  20.467  16.738  13.669
92177W        W96138  18.233  16.289  11.875
92178W        W96139  19.344  16.704  13.448
92179W        W96140  20.548  15.968  11.826
92180W        W96141  20.425  16.458  11.930
92181W        W96142  18.768  15.878  13.404
92182W        W96143  18.753  15.754  14.326
92183W        W96144  18.643  14.671  12.485
92184W        W96145  20.411  15.018  13.046
92185W        W96146  20.059  15.203  14.209
92186W        W96147  20.414  15.352  11.387
92187W        W96148  21.597  17.745  14.141
92188W        W96149  20.564  14.826  14.180
92189W        W96150  21.583  17.127  14.302
92190W        W96151  21.013  15.294  13.898
92191W        W96152  20.813  15.232  12.168
92192W        W96153  21.206  16.366  14.572
92193W        W96154  18.946  17.942  12.558
92194W        W96155  19.604  15.659  11.544
92195W        W96156  19.173  14.943  14.208
92196W        W96157  21.225  15.427  11.889
92197W        W96158  21.592  15.909  11.834
92198W        W96159  19.335  18.126  14.305
92199W        W96160  19.261  14.662  11.540
92200W        W96161  21.582  15.196  12.575
92201W        W96162  21.732  17.445  11.020
92202W        W96163  18.639  16.648  12.722
92203W        W96164  20.556  15.235  10.952
92204W        W96165  21.690  17.567  12.672
92205W        W96166  21.729  14.761  13.422
92206W        W96167  20.174  15.973  13.976
92207W        W96168  20.267  17.312  11.679
92208W        W96169  20.667  16.606  14.419
92209W        W96170  20.341  14.583  12.728
92210W        W96171  18.953  15.486  12.791
92211W        W96172  18.507  16.686  13.565
92212W        W96173  20.366  17.879  12.271
92213W        W96174  21.560  15.476  13.143
92214W        W96175  20.197  17.823  13.910
92215W        W96176  21.540  16.882  11.115
92216W        W96177  19.975  16.365  12.176
92217W        W96178  21.827  14.876  13.917
92218W        W96179  19.976  16.711  13.511
92219W        W96180  20.193  15.597  12.956
92220W        W96181  21.045  15.895  11.794
92221W        W96182  21.332  15.628  11.436
92222W        W96183  21.141  17.668  11.825
92223W        W96184  20.975  17.271  12.621
92224W        W96185  20.871  16.350  11.599
92225W        W96186  20.304  16.560  12.585
92226W        W96187  21.185  16.348  12.652
92227W        W96188  18.560  15.363  13.076
92228W        W96189  21.338  16.415  13.903
92229W        W96190  21.689  18.033  13.049
92230W        W96191  19.619  17.477  12.451
92231W        W96192  20.626  18.010  13.775
92232W        W96193  20.620  15.340  13.539
92233W        W96194  19.827  18.048  13.600
92234W        W96195  21.524  15.002  12.066
92235W        W96196  21.315  16.321  13.367
92236W        W96197  18.298  15.642  13.405
92237W        W96198  21.158  15.437  12.423
92238W        W96199  21.569  15.588  14.200
92239W        W96200  20.454  17.287  12.418
92240W        W96201  19.710  17.878  12.031
92241W        W96202  18.825  15.058  11.289
92242W        W96203  19.929  14.712  13.099
92243W        W96204  18.957  17.832  10.947
92244W        W96205  19.331  16.298  11.698
92245W        W96206  19.985  16.927  14.011
92246W        W96207  19.815  15.285  12.001
92247W        W96208  21.171  14.882  12.429
92248W        W96209  20.891  18.164  12.757
92249W        W96210  20.303  17.812  13.097
92250W        W96211  19.699  16.849  13.058
92251W        W96212  21.469  17.572  13.184
92252W        W96213  19.163  15.075  11.953
92253W        W96214  19.685  17.372  12.913
92254W        W96215  19.168  15.303  10.978
92255W        W96216  19.969  15.912  13.372
92256W        W96217  20.817  14.778  13.242
92257W        W96218  18.237  16.621  13.127
92258W        W96219  19.941  16.439  11.285
92259W        W96220  19.209  14.754  11.055
92260W        W96221  19.947  15.835  12.106
92261W        W96222  20.917  14.811  13.805
92262W        W96223  19.505  16.823  13.914
92263W        W96224  20.309  16.605  14.131
92264W        W96225  20.926  16.635  14.024
92265W        W96226  20.210  14.775  14.529
92266W        W96227  19.432  15.391  12.922
92267W        W96228  18.858  15.347  12.320
92268W        W96229  18.644  18.059  11.996
92269W        W96230  19.976  17.389  14.121
92270W        W96231  19.011  16.874  11.480
92271W        W96232  20.691  16.259  12.701
92272W        W96233  20.971  16.058  13.100
92273W        W96234  20.176  16.732  13.034
92274W        W96235  20.646  17.106  11.166
92275W        W96236  20.318  15.127  12.494
92276W        W96237  21.797  15.405  11.762
92277W        W96238  18.291  17.994  13.793
92278W        W96239  18.708  17.220  13.325
92279W        W96240  18.275  18.066  11.557
92280W        W96241  20.174  15.336  13.363
92281W        W96242  19.537  17.359  11.212
92282W        W96243  21.442  17.741  11.398
92283W        W96244  20.417  16.394  11.412
92284W        W96245  19.260  15.585  11.929
92285W        W96246  20.092  15.495  10.981
92286W        W96247  20.676  17.060  14.159
92287W        W96248  21.029  14.966  11.776
92288W        W96249  18.359  14.814  11.224
92289W        W96250  19.645  17.133  13.514
92290W        W96251  19.444  17.049  12.606
92291W        W96252  19.186  17.001  11.004
92292W        W96253  18.427  17.242  11.772
92293W        W96254  18.931  16.312  14.214
92294W        W96255  19.635  14.872  14.400
92295W        W96256  20.344  15.014  13.756
92296W        W96257  19.539  14.782  12.037
92297W        W96258  20.598  14.859  11.542
92298W        W96259  18.543  14.791  13.119
92299W        W96260  18.591  15.754  12.489
92300W        W96261  21.280  14.862  12.895
92301W        W96262  18.702  15.360  11.709
92302W        W96263  21.273  15.048  13.325
92303W        W96264  21.669  16.251  11.010
92304W        W96265  18.961  15.009  12.829
92305W        W96266  20.075  15.581  13.769
92306W        W96267  18.223  15.271  11.247
92307W        W96268  19.009  16.660  13.808
92308W        W96269  20.367  16.058  12.987
92309W        W96270  20.234  18.137  11.283
92310W        W96271  18.380  16.644  10.980
92311W        W96272  19.115  17.055  14.106
92312W        W96273  18.636  16.222  13.737
92313W        W96274  19.627  16.327  13.531
92314W        W96275  21.395  14.686  13.793
92315W        W96276  21.793  16.296  13.784
92316W        W96277  21.781  16.496  11.470
92317W        W96278  20.644  16.828  11.569
92318W        W96279  21.118  18.128  11.264
92319W        W96280  20.295  16.118  14.406
92320W        W96281  18.625  17.085  14.446
92321W        W96282  21.831  15.007  14.398
92322W        W96283  21.549  15.935  13.019
92323W        W96284  19.857  18.065  14.496
92324W        W96285  19.712  14.694  11.223
92325W        W96286  21.251  17.293  11.166
92326W        W96287  19.020  15.386  14.052
92327W        W96288  19.454  17.380  13.914
92328W        W96289  21.580  15.371  13.712
92329W        W96290  20.791  18.030  11.680
92330W        W96291  21.030  16.649  13.047
92331W        W96292  19.280  15.065  13.714
92332W        W96293  19.749  16.134  14.471
92333W        W96294  19.252  17.313  11.665
92334W        W96295  21.007  16.811  11.929
92335W        W96296  18.775  15.437  13.653
92336W        W96297  20.104  17.499  12.117
92337W        W96298  21.854  16.059  12.298
92338W        W96299  20.076  14.692  14.017
92339W        W96300  20.856  17.397  13.096
92340W        W96301  21.159  17.741  12.804
92341W        W96302  20.378  17.543  11.232
92342W        W96303  18.388  17.435  14.074
92343W        W96304  19.131  15.427  13.312
92344W        W96305  19.101  14.775  12.422
92345W        W96306  20.722  15.617  13.114
92346W        W96307  21.518  16.730  12.813
92347W        W96308  18.845  17.488  14.236
92348W        W96309  21.232  18.170  12.033
92349W        W96310  19.331  15.190  12.478
92350W        W96311  19.100  16.683  12.568
92351W        W96312  19.413  18.094  13.318
92352W        W96313  21.480  18.190  14.350
92353W        W96314  20.639  16.378  13.283
92354W        W96315  18.488  16.176  11.198
92355W        W96316  21.622  17.834  11.895
92356W        W96317  21.459  15.158  11.514
92357W        W96318  19.598  14.677  13.917
92358W        W96319  21.304  17.479  12.375
92359W        W96320  21.333  16.035  12.280
92360W        W96321  19.450  15.708  12.496
92361W        W96322  19.695  15.970  13.820
92362W        W96323  20.806  17.123  13.683
92363W        W96324  19.456  15.577  13.795
92364W        W96325  19.435  18.043  12.411
92365W        W96326  18.752  18.002  14.045
92366W        W96327  18.864  17.363  11.175
92367W        W96328  21.381  17.121  11.985
92368W        W96329  18.985  15.913  13.871
92369W        W96330  21.758  15.843  11.352
92370W        W96331  19.503  16.900  11.823
92371W        W96332  20.602  16.282  13.904
92372W        W96333  20.493  15.910  13.448
92373W        W96334  19.053  16.282  13.477
92374W        W96335  21.263  18.170  13.306
92375W        W96336  21.054  14.804  14.300
92376W        W96337  18.718  14.954  13.887
92377W        W96338  19.057  15.977  12.940
92378W        W96339  19.426  15.791  11.062
92379W        W96340  18.229  17.550  13.607
92380W        W96341  19.814  16.259  13.050
92381W        W96342  19.637  15.284  11.155
92382W        W96343  18.772  16.100  11.936
92383W        W96344  18.543  17.952  13.373
92384W        W96345  21.338  16.178  11.481
92385W        W96346  21.433  15.094  14.167
92386W        W96347  20.869  17.303  12.130
92387W        W96348  18.467  16.227  14.307
92388W        W96349  21.433  14.691  11.603
92389W        W96350  20.953  17.166  11.614
92390W        W96351  19.855  16.224  11.699
92391W        W96352  21.042  15.028  11.222
92392W        W96353  21.107  15.635  13.408
92393W        W96354  18.816  16.228  12.615
92394W        W96355  19.110  17.167  12.264
92395W        W96356  20.873  15.787  12.229
92396W        W96357  19.896  15.166  12.925
92397W        W96358  21.858  17.077  13.436
92398W        W96359  21.776  15.064  12.997
92399W        W96360  18.315  17.894  12.373
92400W        W96361  18.824  17.081  11.909
92401W        W96362  18.739  14.698  14.462
92402W        W96363  19.858  17.551  14.564
92403W        W96364  21.613  16.519  12.354
92404W        W96365  20.967  16.696  11.234
92405W        W96366  20.262  18.217  13.446
92406W        W96367  21.119  16.939  14.483
92407W        W96368  19.934  14.649  11.763
92408W        W96369  20.647  15.518  12.622
92409W        W96370  18.333  17.105  12.954
92410W        W96371  19.586  15.067  11.595
92411W        W96372  19.390  16.551  14.444
92412W        W96373  20.384  15.532  12.158
92413W        W96374  20.589  16.942  13.280
92414W        W96375  18.743  17.547  13.715
92415W        W96376  19.334  17.530  14.438
92416W        W96377  19.185  15.327  11.452
92417W        W96378  20.702  15.469  11.777
92418W        W96379  20.660  17.577  14.014
92419W        W96380  19.345  16.169  12.613
92420W        W96381  19.000  17.867  13.478
92421W        W96382  21.745  17.984  11.079
92422W        W96383  18.608  16.656  14.075
92423W        W96384  20.603  16.918  12.763
92424W        W96385  19.039  16.567  12.005
92425W        W96386  19.410  17.574  13.400
92426W        W96387  19.788  14.993  12.441
92427W        W96388  18.399  16.977  11.371
92428W        W96389  19.918  15.928  11.241
92429W        W96390  18.564  16.477  12.260
92430W        W96391  19.854  15.119  13.724
92431W        W96392  21.526  14.828  11.151
92432W        W96393  21.619  16.574  14.250
92433W        W96394  20.273  17.831  14.402
92434W        W96395  21.831  16.925  13.924
92435W        W96396  21.239  17.723  14.535
92436W        W96397  18.978  18.179  13.013
92437W        W96398  21.837  16.801  11.887
92438W        W96399  20.367  16.068  12.400
92439W        W96400  20.134  14.680  12.290
92440W        W96401  19.193  17.664  12.127
92441W        W96402  19.692  15.405  13.352
92442W        W96403  19.392  14.774  12.821
92443W        W96404  18.455  17.596  11.369
92444W        W96405  20.271  16.960  12.087
92445W        W96406  19.146  17.755  13.966
92446W        W96407  18.623  16.578  11.662
92447W        W96408  18.508  15.121  12.661
92448W        W96409  20.056  17.086  12.718
92449W        W96410  18.308  14.940  11.738
92450W        W96411  20.972  16.146  13.665
92451W        W96412  20.849  15.532  11.237
92452W        W96413  21.366  17.204  12.885
92453W        W96414  20.027  17.688  12.716
92454W        W96415  19.439  17.792  11.627
92455W        W96416  20.721  14.695  11.057
92456W        W96417  18.521  17.955  12.798
92457W        W96418  20.718  15.713  14.433
92458W        W96419  18.701  15.243  14.432
92459W        W96420  18.432  15.843  11.765
92460W        W96421  19.123  15.832  11.490
92461W        W96422  20.886  16.159  14.307
92462W        W96423  19.229  16.440  13.016
92463W        W96424  20.703  14.726  12.136
92464W        W96425  19.834  18.157  12.639
92465W        W96426  21.048  17.619  13.576
92466W        W96427  20.632  17.768  12.687
92467W        W96428  20.651  16.748  12.281
92468W        W96429  20.113  14.973  11.352
92469W        W96430  21.794  14.601  12.074
92470W        W96431  19.482  16.236  11.237
92471W        W96432  21.648  15.573  12.227
92472W        W96433  21.276  16.943  13.852
92473W        W96434  20.930  17.644  11.319
92474W        W96435  19.545  15.319  14.225
92475W        W96436  19.365  15.903  13.466
92476W        W96437  21.457  17.398  13.743
92477W        W96438  20.557  15.348  14.120
92478W        W96439  18.401  15.819  13.897
92479W        W96440  20.161  16.296  13.623
92480W        W96441  18.518  17.054  12.280
92481W        W96442  18.665  16.351  13.170
92482W        W96443  20.982  16.637  13.520
92483W        W96444  20.754  18.017  14.331
92484W        W96445  20.650  15.756  13.884
92485W        W96446  20.927  17.810  12.289
92486W        W96447  19.929  17.530  13.612
92487W        W96448  19.414  17.885  12.881
92488W        W96449  21.219  17.056  13.300
92489W        W96450  18.874  17.081  12.776
92490W        W96451  21.220  16.840  12.421
92491W        W96452  20.861  17.906  13.172
92492W        W96453  18.839  17.635  13.042
92493W        W96454  19.860  15.687  14.252
92494W        W96455  20.311  17.853  11.763
92495W        W96456  19.619  17.108  14.401
92496W        W96457  18.966  16.086  11.037
92497W        W96458  18.305  18.172  17.936
92498W        W96459  18.681  17.065  17.459
92499W        W96460  21.386  16.795  15.229
92500W        W96461  21.516  17.880  17.256
92501W        W96462  19.434  17.871  14.782
92502W        W96463  19.517  16.023  15.765
92503W        W96464  19.032  15.871  15.929
92504W        W96465  20.023  16.686  15.363
92505W        W96466  19.698  17.778  17.718
92506W        W96467  18.347  15.339  17.681
92507W        W96468  19.109  14.619  17.483
92508W        W96469  20.803  15.007  16.370
92509W        W96470  20.452  15.878  14.940
92510W        W96471  21.022  15.312  18.031
92511W        W96472  18.388  15.104  17.156
92512W        W96473  18.487  17.723  18.177
92513W        W96474  18.441  15.896  16.602
92514W        W96475  19.334  15.787  17.839
92515W        W96476  21.793  15.646  16.338
92516W        W96477  21.557  16.689  17.197
92517W        W96478  19.865  16.022  16.224
92518W        W96479  20.411  17.361  16.593
92519W        W96480  18.911  16.795  16.825
92520W        W96481  18.270  16.323  16.396
92521W        W96482  19.306  16.295  17.588
92522W        W96483  21.577  16.078  17.842
92523W        W96484  19.193  17.522  16.287
92524W        W96485  20.314  17.211  17.421
92525W        W96486  19.534  15.851  16.646
92526W        W96487  19.826  16.635  16.289
92527W        W96488  20.823  17.408  18.137
92528W        W96489  19.902  16.728  18.147
92529W        W96490  19.883  16.444  17.625
92530W        W96491  18.292  15.835  18.147
92531W        W96492  21.124  17.370  17.746
92532W        W96493  18.705  14.952  15.744
92533W        W96494  19.232  17.210  16.743
92534W        W96495  21.695  16.993  16.033
92535W        W96496  21.108  15.393  16.600
92536W        W96497  21.393  15.346  14.695
92537W        W96498  21.858  16.147  17.001
92538W        W96499  19.825  17.854  16.754
92539W        W96500  21.599  17.320  15.192
92540W        W96501  18.728  18.106  14.946
92541W        W96502  19.121  18.152  15.622
92542W        W96503  18.918  14.906  17.048
92543W        W96504  21.541  15.924  17.323
92544W        W96505  20.946  16.346  15.782
92545W        W96506  20.912  16.034  14.809
92546W        W96507  20.120  17.178  16.949
92547W        W96508  19.926  15.508  16.148
92548W        W96509  20.526  17.595  17.142
92549W        W96510  21.397  16.386  15.564
92550W        W96511  20.299  15.044  15.580
92551W        W96512  18.956  17.738  15.263
92552W        W96513  18.327  15.237  15.862
92553W        W96514  21.113  15.844  16.336
92554W        W96515  18.571  17.461  16.251
92555W        W96516  19.912  17.811  15.121
92556W        W96517  21.304  15.837  14.585
92557W        W96518  18.327  17.595  16.749
92558W        W96519  19.118  17.167  17.229
92559W        W96520  19.491  16.527  15.848
92560W        W96521  19.513  14.932  16.941
92561W        W96522  21.742  14.694  16.238
92562W        W96523  18.961  16.566  14.706
92563W        W96524  18.616  15.599  14.885
92564W        W96525  18.678  17.555  15.679
92565W        W96526  19.809  17.038  15.927
92566W        W96527  21.141  17.897  17.641
92567W        W96528  20.067  15.539  15.325
92568W        W96529  21.450  17.937  16.097
92569W        W96530  21.127  15.790  17.695
92570W        W96531  21.840  17.446  15.829
92571W        W96532  20.467  16.738  17.313
92572W        W96533  18.233  16.289  15.519
92573W        W96534  19.344  16.704  17.092
92574W        W96535  20.548  15.968  15.470
92575W        W96536  20.425  16.458  15.574
92576W        W96537  18.768  15.878  17.048
92577W        W96538  18.753  15.754  17.970
92578W        W96539  18.643  14.671  16.129
92579W        W96540  20.411  15.018  16.690
92580W        W96541  20.059  15.203  17.853
92581W        W96542  20.414  15.352  15.031
92582W        W96543  21.597  17.745  17.785
92583W        W96544  20.564  14.826  17.824
92584W        W96545  21.583  17.127  17.946
92585W        W96546  21.013  15.294  17.542
92586W        W96547  20.813  15.232  15.812
92587W        W96548  21.206  16.366  18.216
92588W        W96549  18.946  17.942  16.202
92589W        W96550  19.604  15.659  15.188
92590W        W96551  19.173  14.943  17.852
92591W        W96552  21.225  15.427  15.533
92592W        W96553  21.592  15.909  15.478
92593W        W96554  19.335  18.126  17.949
92594W        W96555  19.261  14.662  15.184
92595W        W96556  21.582  15.196  16.219
92596W        W96557  21.732  17.445  14.664
92597W        W96558  18.639  16.648  16.366
92598W        W96559  20.556  15.235  14.596
92599W        W96560  21.690  17.567  16.316
92600W        W96561  21.729  14.761  17.066
92601W        W96562  20.174  15.973  17.620
92602W        W96563  20.267  17.312  15.323
92603W        W96564  20.667  16.606  18.063
92604W        W96565  20.341  14.583  16.372
92605W        W96566  18.953  15.486  16.435
92606W        W96567  18.507  16.686  17.209
92607W        W96568  20.366  17.879  15.915
92608W        W96569  21.560  15.476  16.787
92609W        W96570  20.197  17.823  17.554
92610W        W96571  21.540  16.882  14.759
92611W        W96572  19.975  16.365  15.820
92612W        W96573  21.827  14.876  17.561
92613W        W96574  19.976  16.711  17.155
92614W        W96575  20.193  15.597  16.600
92615W        W96576  21.045  15.895  15.438
92616W        W96577  21.332  15.628  15.080
92617W        W96578  21.141  17.668  15.469
92618W        W96579  20.975  17.271  16.265
92619W        W96580  20.871  16.350  15.243
92620W        W96581  20.304  16.560  16.229
92621W        W96582  21.185  16.348  16.296
92622W        W96583  18.560  15.363  16.720
92623W        W96584  21.338  16.415  17.547
92624W        W96585  21.689  18.033  16.693
92625W        W96586  19.619  17.477  16.095
92626W        W96587  20.626  18.010  17.419
92627W        W96588  20.620  15.340  17.183
92628W        W96589  19.827  18.048  17.244
92629W        W96590  21.524  15.002  15.710
92630W        W96591  21.315  16.321  17.011
92631W        W96592  18.298  15.642  17.049
92632W        W96593  21.158  15.437  16.067
92633W        W96594  21.569  15.588  17.844
92634W        W96595  20.454  17.287  16.062
92635W        W96596  19.710  17.878  15.675
92636W        W96597  18.825  15.058  14.933
92637W        W96598  19.929  14.712  16.743
92638W        W96599  18.957  17.832  14.591
92639W        W96600  19.331  16.298  15.342
92640W        W96601  19.985  16.927  17.655
92641W        W96602  19.815  15.285  15.645
92642W        W96603  21.171  14.882  16.073
92643W        W96604  20.891  18.164  16.401
92644W        W96605  20.303  17.812  16.741
92645W        W96606  19.699  16.849  16.702
92646W        W96607  21.469  17.572  16.828
92647W        W96608  19.163  15.075  15.597
92648W        W96609  19.685  17.372  16.557
92649W        W96610  19.168  15.303  14.622
92650W        W96611  19.969  15.912  17.016
92651W        W96612  20.817  14.778  16.886
92652W        W96613  18.237  16.621  16.771
92653W        W96614  19.941  16.439  14.929
92654W        W96615  19.209  14.754  14.699
92655W        W96616  19.947  15.835  15.750
92656W        W96617  20.917  14.811  17.449
92657W        W96618  19.505  16.823  17.558
92658W        W96619  20.309  16.605  17.775
92659W        W96620  20.926  16.635  17.668
92660W        W96621  20.210  14.775  18.173
92661W        W96622  19.432  15.391  16.566
92662W        W96623  18.858  15.347  15.964
92663W        W96624  18.644  18.059  15.640
92664W        W96625  19.976  17.389  17.765
92665W        W96626  19.011  16.874  15.124
92666W        W96627  20.691  16.259  16.345
92667W        W96628  20.971  16.058  16.744
92668W        W96629  20.176  16.732  16.678
92669W        W96630  20.318  15.127  16.138
92670W        W96631  21.797  15.405  15.406
92671W        W96632  18.291  17.994  17.437
92672W        W96633  18.708  17.220  16.969
92673W        W96634  18.275  18.066  15.201
92674W        W96635  20.174  15.336  17.007
92675W        W96636  19.537  17.359  14.856
92676W        W96637  21.442  17.741  15.042
92677W        W96638  20.417  16.394  15.056
92678W        W96639  19.260  15.585  15.573
92679W        W96640  20.092  15.495  14.625
92680W        W96641  20.676  17.060  17.803
92681W        W96642  21.029  14.966  15.420
92682W        W96643  18.359  14.814  14.868
92683W        W96644  19.645  17.133  17.158
92684W        W96645  19.444  17.049  16.250
92685W        W96646  19.186  17.001  14.648
92686W        W96647  18.427  17.242  15.416
92687W        W96648  18.931  16.312  17.858
92688W        W96649  19.635  14.872  18.044
92689W        W96650  20.344  15.014  17.400
92690W        W96651  19.539  14.782  15.681
92691W        W96652  20.598  14.859  15.186
92692W        W96653  18.543  14.791  16.763
92693W        W96654  18.591  15.754  16.133
92694W        W96655  21.280  14.862  16.539
92695W        W96656  18.702  15.360  15.353
92696W        W96657  21.273  15.048  16.969
92697W        W96658  21.669  16.251  14.654
92698W        W96659  18.961  15.009  16.473
92699W        W96660  20.075  15.581  17.413
92700W        W96661  18.223  15.271  14.891
92701W        W96662  19.009  16.660  17.452
92702W        W96663  20.367  16.058  16.631
92703W        W96664  20.234  18.137  14.927
92704W        W96665  18.380  16.644  14.624
92705W        W96666  19.115  17.055  17.750
92706W        W96667  18.636  16.222  17.381
92707W        W96668  19.627  16.327  17.175
92708W        W96669  21.395  14.686  17.437
92709W        W96670  21.793  16.296  17.428
92710W        W96671  21.781  16.496  15.114
92711W        W96672  20.644  16.828  15.213
92712W        W96673  21.118  18.128  14.908
92713W        W96674  20.295  16.118  18.050
92714W        W96675  18.625  17.085  18.090
92715W        W96676  21.831  15.007  18.042
92716W        W96677  21.549  15.935  16.663
92717W        W96678  19.857  18.065  18.140
92718W        W96679  19.712  14.694  14.867
92719W        W96680  21.251  17.293  14.810
92720W        W96681  19.020  15.386  17.696
92721W        W96682  19.454  17.380  17.558
92722W        W96683  21.580  15.371  17.356
92723W        W96684  20.791  18.030  15.324
92724W        W96685  21.030  16.649  16.691
92725W        W96686  19.280  15.065  17.358
92726W        W96687  19.749  16.134  18.115
92727W        W96688  19.252  17.313  15.309
92728W        W96689  21.007  16.811  15.573
92729W        W96690  18.775  15.437  17.297
92730W        W96691  20.104  17.499  15.761
92731W        W96692  21.854  16.059  15.942
92732W        W96693  20.076  14.692  17.661
92733W        W96694  20.856  17.397  16.740
92734W        W96695  21.159  17.741  16.448
92735W        W96696  20.378  17.543  14.876
92736W        W96697  18.388  17.435  17.718
92737W        W96698  19.131  15.427  16.956
92738W        W96699  19.101  14.775  16.066
92739W        W96700  20.722  15.617  16.758
92740W        W96701  19.520  16.788  14.958
92741W        W96702  21.518  16.730  16.457
92742W        W96703  18.845  17.488  17.880
92743W        W96704  21.232  18.170  15.677
92744W        W96705  19.331  15.190  16.122
92745W        W96706  19.100  16.683  16.212
92746W        W96707  19.413  18.094  16.962
92747W        W96708  21.480  18.190  17.994
92748W        W96709  20.639  16.378  16.927
92749W        W96710  18.488  16.176  14.842
92750W        W96711  21.622  17.834  15.539
92751W        W96712  21.459  15.158  15.158
92752W        W96713  19.598  14.677  17.561
92753W        W96714  21.304  17.479  16.019
92754W        W96715  21.333  16.035  15.924
92755W        W96716  19.450  15.708  16.140
92756W        W96717  19.695  15.970  17.464
92757W        W96718  20.806  17.123  17.327
92758W        W96719  19.456  15.577  17.439
92759W        W96720  19.435  18.043  16.055
92760W        W96721  18.752  18.002  17.689
92761W        W96722  18.864  17.363  14.819
92762W        W96723  21.381  17.121  15.629
92763W        W96724  18.985  15.913  17.515
92764W        W96725  21.758  15.843  14.996
92765W        W96726  19.503  16.900  15.467
92766W        W96727  20.602  16.282  17.548
92767W        W96728  20.493  15.910  17.092
92768W        W96729  19.053  16.282  17.121
92769W        W96730  21.263  18.170  16.950
92770W        W96731  21.054  14.804  17.944
92771W        W96732  18.718  14.954  17.531
92772W        W96733  19.057  15.977  16.584
92773W        W96734  19.426  15.791  14.706
92774W        W96735  18.229  17.550  17.251
92775W        W96736  19.814  16.259  16.694
92776W        W96737  19.637  15.284  14.799
92777W        W96738  18.772  16.100  15.580
92778W        W96739  18.543  17.952  17.017
92779W        W96740  21.338  16.178  15.125
92780W        W96741  21.433  15.094  17.811
92781W        W96742  20.869  17.303  15.774
92782W        W96743  18.467  16.227  17.951
92783W        W96744  21.433  14.691  15.247
92784W        W96745  20.953  17.166  15.258
92785W        W96746  19.855  16.224  15.343
92786W        W96747  21.042  15.028  14.866
92787W        W96748  21.107  15.635  17.052
92788W        W96749  18.816  16.228  16.259
92789W        W96750  19.110  17.167  15.908
92790W        W96751  20.873  15.787  15.873
92791W        W96752  19.896  15.166  16.569
92792W        W96753  21.858  17.077  17.080
92793W        W96754  21.776  15.064  16.641
92794W        W96755  18.315  17.894  16.017
92795W        W96756  18.824  17.081  15.553
92796W        W96757  18.739  14.698  18.106
92797W        W96758  19.858  17.551  18.208
92798W        W96759  21.613  16.519  15.998
92799W        W96760  20.967  16.696  14.878
92800W        W96761  20.262  18.217  17.090
92801W        W96762  21.119  16.939  18.127
92802W        W96763  19.934  14.649  15.407
92803W        W96764  20.647  15.518  16.266
92804W        W96765  18.333  17.105  16.598
92805W        W96766  19.586  15.067  15.239
92806W        W96767  19.390  16.551  18.088
92807W        W96768  20.384  15.532  15.802
92808W        W96769  20.589  16.942  16.924
92809W        W96770  18.743  17.547  17.359
92810W        W96771  19.334  17.530  18.082
92811W        W96772  19.185  15.327  15.096
92812W        W96773  20.702  15.469  15.421
92813W        W96774  20.660  17.577  17.658
92814W        W96775  19.345  16.169  16.257
92815W        W96776  19.000  17.867  17.122
92816W        W96777  21.745  17.984  14.723
92817W        W96778  18.608  16.656  17.719
92818W        W96779  20.603  16.918  16.407
92819W        W96780  19.039  16.567  15.649
92820W        W96781  19.410  17.574  17.044
92821W        W96782  19.788  14.993  16.085
92822W        W96783  18.399  16.977  15.015
92823W        W96784  19.918  15.928  14.885
92824W        W96785  18.564  16.477  15.904
92825W        W96786  19.854  15.119  17.368
92826W        W96787  21.526  14.828  14.795
92827W        W96788  21.619  16.574  17.894
92828W        W96789  20.273  17.831  18.046
92829W        W96790  21.831  16.925  17.568
92830W        W96791  21.239  17.723  18.179
92831W        W96792  18.978  18.179  16.657
92832W        W96793  21.837  16.801  15.531
92833W        W96794  20.367  16.068  16.044
92834W        W96795  20.134  14.680  15.934
92835W        W96796  19.193  17.664  15.771
92836W        W96797  19.692  15.405  16.996
92837W        W96798  19.392  14.774  16.465
92838W        W96799  18.455  17.596  15.013
92839W        W96800  20.271  16.960  15.731
92840W        W96801  19.146  17.755  17.610
92841W        W96802  18.623  16.578  15.306
92842W        W96803  18.508  15.121  16.305
92843W        W96804  20.056  17.086  16.362
92844W        W96805  18.308  14.940  15.382
92845W        W96806  20.972  16.146  17.309
92846W        W96807  20.849  15.532  14.881
92847W        W96808  21.366  17.204  16.529
92848W        W96809  20.027  17.688  16.360
92849W        W96810  19.439  17.792  15.271
92850W        W96811  20.721  14.695  14.701
92851W        W96812  18.521  17.955  16.442
92852W        W96813  20.718  15.713  18.077
92853W        W96814  18.701  15.243  18.076
92854W        W96815  18.432  15.843  15.409
92855W        W96816  19.123  15.832  15.134
92856W        W96817  20.886  16.159  17.951
92857W        W96818  19.229  16.440  16.660
92858W        W96819  20.703  14.726  15.780
92859W        W96820  19.834  18.157  16.283
92860W        W96821  21.048  17.619  17.220
92861W        W96822  20.632  17.768  16.331
92862W        W96823  20.651  16.748  15.925
92863W        W96824  20.113  14.973  14.996
92864W        W96825  21.794  14.601  15.718
92865W        W96826  19.482  16.236  14.881
92866W        W96827  21.648  15.573  15.871
92867W        W96828  20.340  16.743  14.748
92868W        W96829  21.276  16.943  17.496
92869W        W96830  20.930  17.644  14.963
92870W        W96831  19.545  15.319  17.869
92871W        W96832  19.365  15.903  17.110
92872W        W96833  21.457  17.398  17.387
92873W        W96834  20.557  15.348  17.764
92874W        W96835  18.401  15.819  17.541
92875W        W96836  20.161  16.296  17.267
92876W        W96837  18.518  17.054  15.924
92877W        W96838  18.665  16.351  16.814
92878W        W96839  20.982  16.637  17.164
92879W        W96840  20.754  18.017  17.975
92880W        W96841  20.650  15.756  17.528
92881W        W96842  20.927  17.810  15.933
92882W        W96843  19.929  17.530  17.256
92883W        W96844  19.414  17.885  16.525
92884W        W96845  21.219  17.056  16.944
92885W        W96846  20.269  17.128  18.081
92886W        W96847  18.874  17.081  16.420
92887W        W96848  21.220  16.840  16.065
92888W        W96849  20.861  17.906  16.816
92889W        W96850  18.839  17.635  16.686
92890W        W96851  19.860  15.687  17.896
92891W        W96852  20.311  17.853  15.407
92892W        W96853  19.619  17.108  18.045
92893W        W96854  19.745  17.346  15.422
92894W        W96855  18.966  16.086  14.681
92895W        W96856  18.681  17.065  21.103
92896W        W96857  21.386  16.795  18.873
92897W        W96858  21.516  17.880  20.900
92898W        W96859  19.434  17.871  18.426
92899W        W96860  19.517  16.023  19.409
92900W        W96861  19.032  15.871  19.573
92901W        W96862  20.023  16.686  19.007
92902W        W96863  19.698  17.778  21.362
92903W        W96864  18.347  15.339  21.325
92904W        W96865  19.109  14.619  21.127
92905W        W96866  20.803  15.007  20.014
92906W        W96867  20.452  15.878  18.584
92907W        W96868  21.022  15.312  21.675
92908W        W96869  18.388  15.104  20.800
92909W        W96870  18.487  17.723  21.821
92910W        W96871  20.009  17.113  18.553
92911W        W96872  18.441  15.896  20.246
92912W        W96873  19.334  15.787  21.483
92913W        W96874  21.793  15.646  19.982
92914W        W96875  21.557  16.689  20.841
92915W        W96876  19.865  16.022  19.868
92916W        W96877  20.411  17.361  20.237
92917W        W96878  18.911  16.795  20.469
92918W        W96879  18.270  16.323  20.040
92919W        W96880  19.306  16.295  21.232
92920W        W96881  19.193  17.522  19.931
92921W        W96882  20.314  17.211  21.065
92922W        W96883  19.534  15.851  20.290
92923W        W96884  19.826  16.635  19.933
92924W        W96885  20.823  17.408  21.781
92925W        W96886  19.902  16.728  21.791
92926W        W96887  19.883  16.444  21.269
92927W        W96888  18.292  15.835  21.791
92928W        W96889  21.124  17.370  21.390
92929W        W96890  18.705  14.952  19.388
92930W        W96891  19.232  17.210  20.387
92931W        W96892  21.695  16.993  19.677
92932W        W96893  21.108  15.393  20.244
92933W        W96894  21.393  15.346  18.339
92934W        W96895  21.858  16.147  20.645
92935W        W96896  19.825  17.854  20.398
92936W        W96897  21.599  17.320  18.836
92937W        W96898  18.728  18.106  18.590
92938W        W96899  19.121  18.152  19.266
92939W        W96900  18.918  14.906  20.692
92940W        W96901  21.541  15.924  20.967
92941W        W96902  20.946  16.346  19.426
92942W        W96903  20.912  16.034  18.453
92943W        W96904  20.120  17.178  20.593
92944W        W96905  19.926  15.508  19.792
92945W        W96906  20.526  17.595  20.786
92946W        W96907  21.397  16.386  19.208
92947W        W96908  20.299  15.044  19.224
92948W        W96909  18.956  17.738  18.907
92949W        W96910  18.327  15.237  19.506
92950W        W96911  21.113  15.844  19.980
92951W        W96912  18.571  17.461  19.895
92952W        W96913  19.912  17.811  18.765
92953W        W96914  21.304  15.837  18.229
92954W        W96915  18.327  17.595  20.393
92955W        W96916  19.118  17.167  20.873
92956W        W96917  19.491  16.527  19.492
92957W        W96918  19.513  14.932  20.585
92958W        W96919  21.742  14.694  19.882
92959W        W96920  18.961  16.566  18.350
92960W        W96921  18.616  15.599  18.529
92961W        W96922  18.678  17.555  19.323
92962W        W96923  19.809  17.038  19.571
92963W        W96924  21.141  17.897  21.285
92964W        W96925  20.067  15.539  18.969
92965W        W96926  21.450  17.937  19.741
92966W        W96927  21.127  15.790  21.339
92967W        W96928  21.840  17.446  19.473
92968W        W96929  20.467  16.738  20.957
92969W        W96930  18.233  16.289  19.163
92970W        W96931  19.344  16.704  20.736
92971W        W96932  20.548  15.968  19.114
92972W        W96933  20.425  16.458  19.218
92973W        W96934  18.768  15.878  20.692
92974W        W96935  18.753  15.754  21.614
92975W        W96936  18.643  14.671  19.773
92976W        W96937  20.411  15.018  20.334
92977W        W96938  20.059  15.203  21.497
92978W        W96939  20.414  15.352  18.675
92979W        W96940  21.597  17.745  21.429
92980W        W96941  20.564  14.826  21.468
92981W        W96942  21.583  17.127  21.590
92982W        W96943  21.013  15.294  21.186
92983W        W96944  20.813  15.232  19.456
92984W        W96945  18.946  17.942  19.846
92985W        W96946  19.604  15.659  18.832
92986W        W96947  19.173  14.943  21.496
92987W        W96948  21.225  15.427  19.177
92988W        W96949  21.592  15.909  19.122
92989W        W96950  19.335  18.126  21.593
92990W        W96951  19.261  14.662  18.828
92991W        W96952  21.582  15.196  19.863
92992W        W96953  21.732  17.445  18.308
92993W        W96954  18.639  16.648  20.010
92994W        W96955  20.556  15.235  18.240
92995W        W96956  21.690  17.567  19.960
92996W        W96957  21.729  14.761  20.710
92997W        W96958  20.174  15.973  21.264
92998W        W96959  20.267  17.312  18.967
92999W        W96960  20.667  16.606  21.707
93000W        W96961  20.341  14.583  20.016
93001W        W96962  18.953  15.486  20.079
93002W        W96963  18.507  16.686  20.853
93003W        W96964  20.366  17.879  19.559
93004W        W96965  21.560  15.476  20.431
93005W        W96966  20.197  17.823  21.198
93006W        W96967  21.540  16.882  18.403
93007W        W96968  19.975  16.365  19.464
93008W        W96969  21.827  14.876  21.205
93009W        W96970  19.976  16.711  20.799
93010W        W96971  20.193  15.597  20.244
93011W        W96972  21.045  15.895  19.082
93012W        W96973  21.332  15.628  18.724
93013W        W96974  21.141  17.668  19.113
93014W        W96975  20.975  17.271  19.909
93015W        W96976  20.871  16.350  18.887
93016W        W96977  20.304  16.560  19.873
93017W        W96978  21.185  16.348  19.940
93018W        W96979  18.560  15.363  20.364
93019W        W96980  21.338  16.415  21.191
93020W        W96981  21.689  18.033  20.337
93021W        W96982  19.619  17.477  19.739
93022W        W96983  20.626  18.010  21.063
93023W        W96984  20.620  15.340  20.827
93024W        W96985  19.827  18.048  20.888
93025W        W96986  21.524  15.002  19.354
93026W        W96987  21.315  16.321  20.655
93027W        W96988  18.298  15.642  20.693
93028W        W96989  21.158  15.437  19.711
93029W        W96990  21.569  15.588  21.488
93030W        W96991  20.454  17.287  19.706
93031W        W96992  19.710  17.878  19.319
93032W        W96993  18.825  15.058  18.577
93033W        W96994  19.929  14.712  20.387
93034W        W96995  18.957  17.832  18.235
93035W        W96996  19.331  16.298  18.986
93036W        W96997  19.985  16.927  21.299
93037W        W96998  19.815  15.285  19.289
93038W        W96999  21.171  14.882  19.717
93039W        W97000  20.891  18.164  20.045
93040W        W97001  20.303  17.812  20.385
93041W        W97002  19.699  16.849  20.346
93042W        W97003  21.469  17.572  20.472
93043W        W97004  19.163  15.075  19.241
93044W        W97005  19.685  17.372  20.201
93045W        W97006  19.168  15.303  18.266
93046W        W97007  19.969  15.912  20.660
93047W        W97008  20.817  14.778  20.530
93048W        W97009  18.237  16.621  20.415
93049W        W97010  19.941  16.439  18.573
93050W        W97011  19.209  14.754  18.343
93051W        W97012  19.947  15.835  19.394
93052W        W97013  20.917  14.811  21.093
93053W        W97014  19.505  16.823  21.202
93054W        W97015  20.309  16.605  21.419
93055W        W97016  20.926  16.635  21.312
93056W        W97017  20.210  14.775  21.817
93057W        W97018  19.432  15.391  20.210
93058W        W97019  18.858  15.347  19.608
93059W        W97020  18.644  18.059  19.284
93060W        W97021  19.976  17.389  21.409
93061W        W97022  19.011  16.874  18.768
93062W        W97023  20.691  16.259  19.989
93063W        W97024  20.971  16.058  20.388
93064W        W97025  20.176  16.732  20.322
93065W        W97026  20.646  17.106  18.454
93066W        W97027  20.318  15.127  19.782
93067W        W97028  21.797  15.405  19.050
93068W        W97029  18.291  17.994  21.081
93069W        W97030  18.708  17.220  20.613
93070W        W97031  18.275  18.066  18.845
93071W        W97032  20.174  15.336  20.651
93072W        W97033  19.537  17.359  18.500
93073W        W97034  21.442  17.741  18.686
93074W        W97035  20.417  16.394  18.700
93075W        W97036  19.260  15.585  19.217
93076W        W97037  20.092  15.495  18.269
93077W        W97038  20.676  17.060  21.447
93078W        W97039  21.029  14.966  19.064
93079W        W97040  18.359  14.814  18.512
93080W        W97041  19.645  17.133  20.802
93081W        W97042  19.444  17.049  19.894
93082W        W97043  19.186  17.001  18.292
93083W        W97044  18.427  17.242  19.060
93084W        W97045  18.931  16.312  21.502
93085W        W97046  19.635  14.872  21.688
93086W        W97047  20.344  15.014  21.044
93087W        W97048  19.539  14.782  19.325
93088W        W97049  20.598  14.859  18.830
93089W        W97050  18.543  14.791  20.407
93090W        W97051  18.591  15.754  19.777
93091W        W97052  21.280  14.862  20.183
93092W        W97053  18.702  15.360  18.997
93093W        W97054  21.273  15.048  20.613
93094W        W97055  21.669  16.251  18.298
93095W        W97056  18.961  15.009  20.117
93096W        W97057  20.075  15.581  21.057
93097W        W97058  18.223  15.271  18.535
93098W        W97059  19.009  16.660  21.096
93099W        W97060  20.367  16.058  20.275
93100W        W97061  20.234  18.137  18.571
93101W        W97062  18.380  16.644  18.268
93102W        W97063  19.115  17.055  21.394
93103W        W97064  18.636  16.222  21.025
93104W        W97065  19.627  16.327  20.819
93105W        W97066  21.395  14.686  21.081
93106W        W97067  21.793  16.296  21.072
93107W        W97068  21.781  16.496  18.758
93108W        W97069  20.644  16.828  18.857
93109W        W97070  21.118  18.128  18.552
93110W        W97071  20.295  16.118  21.694
93111W        W97072  18.625  17.085  21.734
93112W        W97073  21.831  15.007  21.686
93113W        W97074  21.549  15.935  20.307
93114W        W97075  19.857  18.065  21.784
93115W        W97076  19.712  14.694  18.511
93116W        W97077  21.251  17.293  18.454
93117W        W97078  19.020  15.386  21.340
93118W        W97079  19.454  17.380  21.202
93119W        W97080  21.580  15.371  21.000
93120W        W97081  20.791  18.030  18.968
93121W        W97082  21.030  16.649  20.335
93122W        W97083  19.280  15.065  21.002
93123W        W97084  19.749  16.134  21.759
93124W        W97085  19.252  17.313  18.953
93125W        W97086  21.007  16.811  19.217
93126W        W97087  18.775  15.437  20.941
93127W        W97088  20.104  17.499  19.405
93128W        W97089  21.854  16.059  19.586
93129W        W97090  20.076  14.692  21.305
93130W        W97091  20.856  17.397  20.384
93131W        W97092  21.159  17.741  20.092
93132W        W97093  20.378  17.543  18.520
93133W        W97094  18.388  17.435  21.362
93134W        W97095  19.131  15.427  20.600
93135W        W97096  19.101  14.775  19.710
93136W        W97097  20.722  15.617  20.402
93137W        W97098  19.520  16.788  18.602
93138W        W97099  21.518  16.730  20.101
93139W        W97100  18.845  17.488  21.524
93140W        W97101  21.232  18.170  19.321
93141W        W97102  19.331  15.190  19.766
93142W        W97103  19.100  16.683  19.856
93143W        W97104  19.413  18.094  20.606
93144W        W97105  21.480  18.190  21.638
93145W        W97106  20.639  16.378  20.571
93146W        W97107  18.488  16.176  18.486
93147W        W97108  21.622  17.834  19.183
93148W        W97109  21.459  15.158  18.802
93149W        W97110  19.598  14.677  21.205
93150W        W97111  21.304  17.479  19.663
93151W        W97112  21.333  16.035  19.568
93152W        W97113  19.450  15.708  19.784
93153W        W97114  19.695  15.970  21.108
93154W        W97115  20.806  17.123  20.971
93155W        W97116  19.456  15.577  21.083
93156W        W97117  19.435  18.043  19.699
93157W        W97118  18.864  17.363  18.463
93158W        W97119  21.381  17.121  19.273
93159W        W97120  18.985  15.913  21.159
93160W        W97121  21.758  15.843  18.640
93161W        W97122  19.503  16.900  19.111
93162W        W97123  20.602  16.282  21.192
93163W        W97124  20.493  15.910  20.736
93164W        W97125  19.053  16.282  20.765
93165W        W97126  21.263  18.170  20.594
93166W        W97127  21.054  14.804  21.588
93167W        W97128  18.718  14.954  21.175
93168W        W97129  19.057  15.977  20.228
93169W        W97130  19.426  15.791  18.350
93170W        W97131  18.229  17.550  20.895
93171W        W97132  19.814  16.259  20.338
93172W        W97133  19.637  15.284  18.443
93173W        W97134  18.772  16.100  19.224
93174W        W97135  18.543  17.952  20.661
93175W        W97136  21.338  16.178  18.769
93176W        W97137  21.433  15.094  21.455
93177W        W97138  20.869  17.303  19.418
93178W        W97139  18.467  16.227  21.595
93179W        W97140  21.433  14.691  18.891
93180W        W97141  20.953  17.166  18.902
93181W        W97142  19.855  16.224  18.987
93182W        W97143  21.042  15.028  18.510
93183W        W97144  21.107  15.635  20.696
93184W        W97145  18.816  16.228  19.903
93185W        W97146  19.110  17.167  19.552
93186W        W97147  20.873  15.787  19.517
93187W        W97148  19.896  15.166  20.213
93188W        W97149  21.858  17.077  20.724
93189W        W97150  21.776  15.064  20.285
93190W        W97151  18.315  17.894  19.661
93191W        W97152  18.824  17.081  19.197
93192W        W97153  18.739  14.698  21.750
93193W        W97154  19.858  17.551  21.852
93194W        W97155  21.613  16.519  19.642
93195W        W97156  20.967  16.696  18.522
93196W        W97157  20.262  18.217  20.734
93197W        W97158  21.119  16.939  21.771
93198W        W97159  19.934  14.649  19.051
93199W        W97160  20.647  15.518  19.910
93200W        W97161  18.333  17.105  20.242
93201W        W97162  19.586  15.067  18.883
93202W        W97163  19.390  16.551  21.732
93203W        W97164  20.384  15.532  19.446
93204W        W97165  20.589  16.942  20.568
93205W        W97166  18.743  17.547  21.003
93206W        W97167  19.334  17.530  21.726
93207W        W97168  19.185  15.327  18.740
93208W        W97169  20.702  15.469  19.065
93209W        W97170  20.660  17.577  21.302
93210W        W97171  19.345  16.169  19.901
93211W        W97172  19.000  17.867  20.766
93212W        W97173  21.745  17.984  18.367
93213W        W97174  18.608  16.656  21.363
93214W        W97175  20.603  16.918  20.051
93215W        W97176  19.039  16.567  19.293
93216W        W97177  19.410  17.574  20.688
93217W        W97178  19.788  14.993  19.729
93218W        W97179  18.399  16.977  18.659
93219W        W97180  19.918  15.928  18.529
93220W        W97181  18.564  16.477  19.548
93221W        W97182  19.854  15.119  21.012
93222W        W97183  21.526  14.828  18.439
93223W        W97184  21.619  16.574  21.538
93224W        W97185  20.273  17.831  21.690
93225W        W97186  21.831  16.925  21.212
93226W        W97187  21.239  17.723  21.823
93227W        W97188  18.978  18.179  20.301
93228W        W97189  21.837  16.801  19.175
93229W        W97190  20.367  16.068  19.688
93230W        W97191  20.134  14.680  19.578
93231W        W97192  19.193  17.664  19.415
93232W        W97193  19.692  15.405  20.640
93233W        W97194  19.392  14.774  20.109
93234W        W97195  18.455  17.596  18.657
93235W        W97196  20.271  16.960  19.375
93236W        W97197  19.146  17.755  21.254
93237W        W97198  18.623  16.578  18.950
93238W        W97199  18.508  15.121  19.949
93239W        W97200  20.056  17.086  20.006
93240W        W97201  18.308  14.940  19.026
93241W        W97202  20.972  16.146  20.953
93242W        W97203  20.849  15.532  18.525
93243W        W97204  21.366  17.204  20.173
93244W        W97205  20.027  17.688  20.004
93245W        W97206  19.439  17.792  18.915
93246W        W97207  20.721  14.695  18.345
93247W        W97208  18.521  17.955  20.086
93248W        W97209  20.718  15.713  21.721
93249W        W97210  18.701  15.243  21.720
93250W        W97211  18.432  15.843  19.053
93251W        W97212  19.123  15.832  18.778
93252W        W97213  20.886  16.159  21.595
93253W        W97214  19.229  16.440  20.304
93254W        W97215  20.703  14.726  19.424
93255W        W97216  19.834  18.157  19.927
93256W        W97217  21.048  17.619  20.864
93257W        W97218  20.632  17.768  19.975
93258W        W97219  20.651  16.748  19.569
93259W        W97220  20.113  14.973  18.640
93260W        W97221  21.794  14.601  19.362
93261W        W97222  19.482  16.236  18.525
93262W        W97223  21.648  15.573  19.515
93263W        W97224  20.340  16.743  18.392
93264W        W97225  21.276  16.943  21.140
93265W        W97226  20.930  17.644  18.607
93266W        W97227  19.545  15.319  21.513
93267W        W97228  19.365  15.903  20.754
93268W        W97229  21.457  17.398  21.031
93269W        W97230  20.557  15.348  21.408
93270W        W97231  18.401  15.819  21.185
93271W        W97232  20.161  16.296  20.911
93272W        W97233  18.518  17.054  19.568
93273W        W97234  18.665  16.351  20.458
93274W        W97235  20.982  16.637  20.808
93275W        W97236  20.754  18.017  21.619
93276W        W97237  20.650  15.756  21.172
93277W        W97238  20.927  17.810  19.577
93278W        W97239  19.929  17.530  20.900
93279W        W97240  19.414  17.885  20.169
93280W        W97241  21.219  17.056  20.588
93281W        W97242  20.269  17.128  21.725
93282W        W97243  18.874  17.081  20.064
93283W        W97244  21.220  16.840  19.709
93284W        W97245  20.861  17.906  20.460
93285W        W97246  18.839  17.635  20.330
93286W        W97247  19.860  15.687  21.540
93287W        W97248  20.311  17.853  19.051
93288W        W97249  19.619  17.108  21.689
93289W        W97250  19.745  17.346  19.066
93290W        W97251  18.966  16.086  18.325
93291W        W97252  21.386  16.795  22.518
93292W        W97253  19.434  17.871  22.071
93293W        W97254  19.517  16.023  23.054
93294W        W97255  19.032  15.871  23.218
93295W        W97256  20.023  16.686  22.652
93296W        W97257  20.452  15.878  22.229
93297W        W97258  20.009  17.113  22.198
93298W        W97259  18.705  14.952  23.033
93299W        W97260  21.393  15.346  21.984
93300W        W97261  21.599  17.320  22.481
93301W        W97262  18.728  18.106  22.235
93302W        W97263  19.121  18.152  22.911
93303W        W97264  20.946  16.346  23.071
93304W        W97265  21.397  16.386  22.853
93305W        W97266  20.299  15.044  22.869
93306W        W97267  18.956  17.738  22.552
93307W        W97268  19.912  17.811  22.410
93308W        W97269  21.304  15.837  21.874
93309W        W97270  19.491  16.527  23.137
93310W        W97271  18.961  16.566  21.995
93311W        W97272  18.616  15.599  22.174
93312W        W97273  18.678  17.555  22.968
93313W        W97274  19.809  17.038  23.216
93314W        W97275  20.067  15.539  22.614
93315W        W97276  18.233  16.289  22.808
93316W        W97277  20.548  15.968  22.759
93317W        W97278  20.425  16.458  22.863
93318W        W97279  20.414  15.352  22.320
93319W        W97280  20.813  15.232  23.101
93320W        W97281  19.604  15.659  22.477
93321W        W97282  21.225  15.427  22.822
93322W        W97283  21.592  15.909  22.767
93323W        W97284  19.261  14.662  22.473
93324W        W97285  21.732  17.445  21.953
93325W        W97286  20.556  15.235  21.885
93326W        W97287  20.267  17.312  22.612
93327W        W97288  20.366  17.879  23.204
93328W        W97289  21.540  16.882  22.048
93329W        W97290  19.975  16.365  23.109
93330W        W97291  21.045  15.895  22.727
93331W        W97292  21.332  15.628  22.369
93332W        W97293  21.141  17.668  22.758
93333W        W97294  20.871  16.350  22.532
93334W        W97295  21.524  15.002  22.999
93335W        W97296  19.710  17.878  22.964
93336W        W97297  18.825  15.058  22.222
93337W        W97298  18.957  17.832  21.880
93338W        W97299  19.331  16.298  22.631
93339W        W97300  19.815  15.285  22.934
93340W        W97301  19.163  15.075  22.886
93341W        W97302  19.168  15.303  21.911
93342W        W97303  19.941  16.439  22.218
93343W        W97304  19.209  14.754  21.988
93344W        W97305  19.947  15.835  23.039
93345W        W97306  18.858  15.347  23.253
93346W        W97307  18.644  18.059  22.929
93347W        W97308  19.011  16.874  22.413
93348W        W97309  20.646  17.106  22.099
93349W        W97310  21.797  15.405  22.695
93350W        W97311  18.275  18.066  22.490
93351W        W97312  19.537  17.359  22.145
93352W        W97313  21.442  17.741  22.331
93353W        W97314  20.417  16.394  22.345
93354W        W97315  19.260  15.585  22.862
93355W        W97316  20.092  15.495  21.914
93356W        W97317  21.029  14.966  22.709
93357W        W97318  18.359  14.814  22.157
93358W        W97319  19.186  17.001  21.937
93359W        W97320  18.427  17.242  22.705
93360W        W97321  19.539  14.782  22.970
93361W        W97322  20.598  14.859  22.475
93362W        W97323  18.702  15.360  22.642
93363W        W97324  18.223  15.271  22.180
93364W        W97325  20.234  18.137  22.216
93365W        W97326  18.380  16.644  21.913
93366W        W97327  21.781  16.496  22.403
93367W        W97328  20.644  16.828  22.502
93368W        W97329  21.118  18.128  22.197
93369W        W97330  19.712  14.694  22.156
93370W        W97331  21.251  17.293  22.099
93371W        W97332  20.791  18.030  22.613
93372W        W97333  19.252  17.313  22.598
93373W        W97334  21.007  16.811  22.862
93374W        W97335  20.104  17.499  23.050
93375W        W97336  21.854  16.059  23.231
93376W        W97337  20.378  17.543  22.165
93377W        W97338  19.520  16.788  22.247
93378W        W97339  21.232  18.170  22.966
93379W        W97340  18.488  16.176  22.131
93380W        W97341  21.622  17.834  22.828
93381W        W97342  21.459  15.158  22.447
93382W        W97343  21.333  16.035  23.213
93383W        W97344  18.864  17.363  22.108
93384W        W97345  21.381  17.121  22.918
93385W        W97346  21.758  15.843  22.285
93386W        W97347  19.503  16.900  22.756
93387W        W97348  19.426  15.791  21.995
93388W        W97349  19.637  15.284  22.088
93389W        W97350  18.772  16.100  22.869
93390W        W97351  21.338  16.178  22.414
93391W        W97352  20.869  17.303  23.063
93392W        W97353  21.433  14.691  22.536
93393W        W97354  20.953  17.166  22.547
93394W        W97355  19.855  16.224  22.632
93395W        W97356  21.042  15.028  22.155
93396W        W97357  19.110  17.167  23.197
93397W        W97358  20.873  15.787  23.162
93398W        W97359  18.315  17.894  23.306
93399W        W97360  18.824  17.081  22.842
93400W        W97361  21.613  16.519  23.287
93401W        W97362  20.967  16.696  22.167
93402W        W97363  19.934  14.649  22.696
93403W        W97364  19.586  15.067  22.528
93404W        W97365  20.384  15.532  23.091
93405W        W97366  19.185  15.327  22.385
93406W        W97367  20.702  15.469  22.710
93407W        W97368  21.745  17.984  22.012
93408W        W97369  18.399  16.977  22.304
93409W        W97370  19.918  15.928  22.174
93410W        W97371  18.564  16.477  23.193
93411W        W97372  21.526  14.828  22.084
93412W        W97373  21.837  16.801  22.820
93413W        W97374  20.134  14.680  23.223
93414W        W97375  19.193  17.664  23.060
93415W        W97376  18.455  17.596  22.302
93416W        W97377  20.271  16.960  23.020
93417W        W97378  18.623  16.578  22.595
93418W        W97379  18.308  14.940  22.671
93419W        W97380  20.849  15.532  22.170
93420W        W97381  19.439  17.792  22.560
93421W        W97382  20.721  14.695  21.990
93422W        W97383  18.432  15.843  22.698
93423W        W97384  19.123  15.832  22.423
93424W        W97385  20.651  16.748  23.214
93425W        W97386  20.113  14.973  22.285
93426W        W97387  21.794  14.601  23.007
93427W        W97388  19.482  16.236  22.170
93428W        W97389  21.648  15.573  23.160
93429W        W97390  20.340  16.743  22.037
93430W        W97391  20.930  17.644  22.252
93431W        W97392  18.518  17.054  23.213
93432W        W97393  20.927  17.810  23.222
93433W        W97394  20.311  17.853  22.696
93434W        W97395  19.745  17.346  22.711
93435W        W97396  18.966  16.086  21.970
93436W        W97397  18.305  21.816   3.359
93437W        W97398  18.681  20.709   2.882
93438W        W97399  21.386  20.439   0.652
93439W        W97400  21.516  21.524   2.679
93440W        W97401  19.434  21.515   0.205
93441W        W97402  19.517  19.667   1.188
93442W        W97403  19.032  19.515   1.352
93443W        W97404  20.023  20.330   0.786
93444W        W97405  19.698  21.422   3.141
93445W        W97406  18.347  18.983   3.104
93446W        W97407  19.109  18.263   2.906
93447W        W97408  20.803  18.651   1.793
93448W        W97409  20.452  19.522   0.363
93449W        W97410  21.022  18.956   3.454
93450W        W97411  18.388  18.748   2.579
93451W        W97412  18.487  21.367   3.600
93452W        W97413  20.009  20.757   0.332
93453W        W97414  18.441  19.540   2.025
93454W        W97415  19.334  19.431   3.262
93455W        W97416  21.793  19.290   1.761
93456W        W97417  21.557  20.333   2.620
93457W        W97418  19.865  19.666   1.647
93458W        W97419  20.411  21.005   2.016
93459W        W97420  18.911  20.439   2.248
93460W        W97421  18.270  19.967   1.819
93461W        W97422  19.306  19.939   3.011
93462W        W97423  21.577  19.722   3.265
93463W        W97424  19.193  21.166   1.710
93464W        W97425  20.314  20.855   2.844
93465W        W97426  19.534  19.495   2.069
93466W        W97427  19.826  20.279   1.712
93467W        W97428  20.823  21.052   3.560
93468W        W97429  19.902  20.372   3.570
93469W        W97430  19.883  20.088   3.048
93470W        W97431  18.292  19.479   3.570
93471W        W97432  21.124  21.014   3.169
93472W        W97433  18.705  18.596   1.167
93473W        W97434  19.232  20.854   2.166
93474W        W97435  21.695  20.637   1.456
93475W        W97436  21.108  19.037   2.023
93476W        W97437  21.393  18.990   0.118
93477W        W97438  21.858  19.791   2.424
93478W        W97439  19.825  21.498   2.177
93479W        W97440  21.599  20.964   0.615
93480W        W97441  18.728  21.750   0.369
93481W        W97442  19.121  21.796   1.045
93482W        W97443  18.918  18.550   2.471
93483W        W97444  21.541  19.568   2.746
93484W        W97445  20.946  19.990   1.205
93485W        W97446  20.912  19.678   0.232
93486W        W97447  20.120  20.822   2.372
93487W        W97448  19.926  19.152   1.571
93488W        W97449  20.526  21.239   2.565
93489W        W97450  21.397  20.030   0.987
93490W        W97451  20.299  18.688   1.003
93491W        W97452  18.956  21.382   0.686
93492W        W97453  18.327  18.881   1.285
93493W        W97454  21.113  19.488   1.759
93494W        W97455  18.571  21.105   1.674
93495W        W97456  19.912  21.455   0.544
93496W        W97457  21.304  19.481   0.008
93497W        W97458  18.327  21.239   2.172
93498W        W97459  19.118  20.811   2.652
93499W        W97460  19.491  20.171   1.271
93500W        W97461  19.513  18.576   2.364
93501W        W97462  21.742  18.338   1.661
93502W        W97463  18.961  20.210   0.129
93503W        W97464  18.616  19.243   0.308
93504W        W97465  18.678  21.199   1.102
93505W        W97466  19.809  20.682   1.350
93506W        W97467  21.141  21.541   3.064
93507W        W97468  20.067  19.183   0.748
93508W        W97469  21.450  21.581   1.520
93509W        W97470  21.127  19.434   3.118
93510W        W97471  21.840  21.090   1.252
93511W        W97472  20.467  20.382   2.736
93512W        W97473  18.233  19.933   0.942
93513W        W97474  19.344  20.348   2.515
93514W        W97475  20.548  19.612   0.893
93515W        W97476  20.425  20.102   0.997
93516W        W97477  18.768  19.522   2.471
93517W        W97478  18.753  19.398   3.393
93518W        W97479  18.643  18.315   1.552
93519W        W97480  20.411  18.662   2.113
93520W        W97481  20.059  18.847   3.276
93521W        W97482  20.414  18.996   0.454
93522W        W97483  21.597  21.389   3.208
93523W        W97484  20.564  18.470   3.247
93524W        W97485  21.583  20.771   3.369
93525W        W97486  21.013  18.938   2.965
93526W        W97487  20.813  18.876   1.235
93527W        W97488  21.206  20.010   3.639
93528W        W97489  18.946  21.586   1.625
93529W        W97490  19.604  19.303   0.611
93530W        W97491  19.173  18.587   3.275
93531W        W97492  21.225  19.071   0.956
93532W        W97493  21.592  19.553   0.901
93533W        W97494  19.335  21.770   3.372
93534W        W97495  19.261  18.306   0.607
93535W        W97496  21.582  18.840   1.642
93536W        W97497  21.732  21.089   0.087
93537W        W97498  18.639  20.292   1.789
93538W        W97499  20.556  18.879   0.019
93539W        W97500  21.690  21.211   1.739
93540W        W97501  21.729  18.405   2.489
93541W        W97502  20.174  19.617   3.043
93542W        W97503  20.267  20.956   0.746
93543W        W97504  20.667  20.250   3.486
93544W        W97505  20.341  18.227   1.795
93545W        W97506  18.953  19.130   1.858
93546W        W97507  18.507  20.330   2.632
93547W        W97508  20.366  21.523   1.338
93548W        W97509  21.560  19.120   2.210
93549W        W97510  20.197  21.467   2.977
93550W        W97511  21.540  20.526   0.182
93551W        W97512  19.975  20.009   1.243
93552W        W97513  21.827  18.520   2.984
93553W        W97514  19.976  20.355   2.578
93554W        W97515  20.193  19.241   2.023
93555W        W97516  21.045  19.539   0.861
93556W        W97517  21.332  19.272   0.503
93557W        W97518  21.141  21.312   0.892
93558W        W97519  20.975  20.915   1.688
93559W        W97520  20.871  19.994   0.666
93560W        W97521  20.304  20.204   1.652
93561W        W97522  21.185  19.992   1.719
93562W        W97523  18.560  19.007   2.143
93563W        W97524  21.338  20.059   2.970
93564W        W97525  21.689  21.677   2.116
93565W        W97526  19.619  21.121   1.518
93566W        W97527  20.626  21.654   2.842
93567W        W97528  20.620  18.984   2.606
93568W        W97529  19.827  21.692   2.667
93569W        W97530  21.524  18.646   1.133
93570W        W97531  21.315  19.965   2.434
93571W        W97532  18.298  19.286   2.472
93572W        W97533  21.158  19.081   1.490
93573W        W97534  21.569  19.232   3.267
93574W        W97535  20.454  20.931   1.485
93575W        W97536  19.710  21.522   1.098
93576W        W97537  18.825  18.702   0.356
93577W        W97538  19.929  18.356   2.166
93578W        W97539  18.957  21.476   0.014
93579W        W97540  19.331  19.942   0.765
93580W        W97541  19.985  20.571   3.078
93581W        W97542  19.815  18.929   1.068
93582W        W97543  21.171  18.526   1.496
93583W        W97544  20.891  21.808   1.824
93584W        W97545  20.303  21.456   2.164
93585W        W97546  19.699  20.493   2.125
93586W        W97547  21.469  21.216   2.251
93587W        W97548  19.163  18.719   1.020
93588W        W97549  19.685  21.016   1.980
93589W        W97550  19.168  18.947   0.045
93590W        W97551  19.969  19.556   2.439
93591W        W97552  20.817  18.422   2.309
93592W        W97553  18.237  20.265   2.194
93593W        W97554  19.941  20.083   0.352
93594W        W97555  19.209  18.398   0.122
93595W        W97556  19.947  19.479   1.173
93596W        W97557  20.917  18.455   2.872
93597W        W97558  19.505  20.467   2.981
93598W        W97559  20.309  20.249   3.198
93599W        W97560  20.926  20.279   3.091
93600W        W97561  20.210  18.419   3.596
93601W        W97562  19.432  19.035   1.989
93602W        W97563  18.858  18.991   1.387
93603W        W97564  18.644  21.703   1.063
93604W        W97565  19.976  21.033   3.188
93605W        W97566  19.011  20.518   0.547
93606W        W97567  20.691  19.903   1.768
93607W        W97568  20.971  19.702   2.167
93608W        W97569  20.176  20.376   2.101
93609W        W97570  20.646  20.750   0.233
93610W        W97571  20.318  18.771   1.561
93611W        W97572  21.797  19.049   0.829
93612W        W97573  18.291  21.638   2.860
93613W        W97574  18.708  20.864   2.392
93614W        W97575  18.275  21.710   0.624
93615W        W97576  20.174  18.980   2.430
93616W        W97577  19.537  21.003   0.279
93617W        W97578  21.442  21.385   0.465
93618W        W97579  20.417  20.038   0.479
93619W        W97580  19.260  19.229   0.996
93620W        W97581  20.092  19.139   0.048
93621W        W97582  20.676  20.704   3.226
93622W        W97583  21.029  18.610   0.843
93623W        W97584  18.359  18.458   0.291
93624W        W97585  19.645  20.777   2.581
93625W        W97586  19.444  20.693   1.673
93626W        W97587  19.186  20.645   0.071
93627W        W97588  18.427  20.886   0.839
93628W        W97589  18.931  19.956   3.281
93629W        W97590  19.635  18.516   3.467
93630W        W97591  20.344  18.658   2.823
93631W        W97592  19.539  18.426   1.104
93632W        W97593  20.598  18.503   0.609
93633W        W97594  18.543  18.435   2.186
93634W        W97595  18.591  19.398   1.556
93635W        W97596  21.280  18.506   1.962
93636W        W97597  18.702  19.004   0.776
93637W        W97598  21.273  18.692   2.392
93638W        W97599  21.669  19.895   0.077
93639W        W97600  18.961  18.653   1.896
93640W        W97601  20.075  19.225   2.836
93641W        W97602  18.223  18.915   0.314
93642W        W97603  19.009  20.304   2.875
93643W        W97604  20.367  19.702   2.054
93644W        W97605  20.234  21.781   0.350
93645W        W97606  18.380  20.288   0.047
93646W        W97607  19.115  20.699   3.173
93647W        W97608  18.636  19.866   2.804
93648W        W97609  19.627  19.971   2.598
93649W        W97610  21.395  18.330   2.860
93650W        W97611  21.793  19.940   2.851
93651W        W97612  21.781  20.140   0.537
93652W        W97613  20.644  20.472   0.636
93653W        W97614  21.118  21.772   0.331
93654W        W97615  20.295  19.762   3.473
93655W        W97616  18.625  20.729   3.513
93656W        W97617  21.831  18.651   3.465
93657W        W97618  21.549  19.579   2.086
93658W        W97619  19.857  21.709   3.563
93659W        W97620  19.712  18.338   0.290
93660W        W97621  21.251  20.937   0.233
93661W        W97622  19.020  19.030   3.119
93662W        W97623  19.454  21.024   2.981
93663W        W97624  21.580  19.015   2.779
93664W        W97625  20.791  21.674   0.747
93665W        W97626  21.030  20.293   2.114
93666W        W97627  19.280  18.709   2.781
93667W        W97628  19.749  19.778   3.538
93668W        W97629  19.252  20.957   0.732
93669W        W97630  21.007  20.455   0.996
93670W        W97631  18.775  19.081   2.720
93671W        W97632  20.104  21.143   1.184
93672W        W97633  21.854  19.703   1.365
93673W        W97634  20.076  18.336   3.084
93674W        W97635  20.856  21.041   2.163
93675W        W97636  21.159  21.385   1.871
93676W        W97637  20.378  21.187   0.299
93677W        W97638  18.388  21.079   3.141
93678W        W97639  19.131  19.071   2.379
93679W        W97640  19.101  18.419   1.489
93680W        W97641  20.722  19.261   2.181
93681W        W97642  19.520  20.432   0.381
93682W        W97643  21.518  20.374   1.880
93683W        W97644  18.845  21.132   3.303
93684W        W97645  21.232  21.814   1.100
93685W        W97646  19.331  18.834   1.545
93686W        W97647  19.100  20.327   1.635
93687W        W97648  19.413  21.738   2.385
93688W        W97649  21.480  21.834   3.417
93689W        W97650  20.639  20.022   2.350
93690W        W97651  18.488  19.820   0.265
93691W        W97652  21.622  21.478   0.962
93692W        W97653  21.459  18.802   0.581
93693W        W97654  19.598  18.321   2.984
93694W        W97655  21.304  21.123   1.442
93695W        W97656  21.333  19.679   1.347
93696W        W97657  19.450  19.352   1.563
93697W        W97658  19.695  19.614   2.887
93698W        W97659  20.806  20.767   2.750
93699W        W97660  19.456  19.221   2.862
93700W        W97661  19.435  21.687   1.478
93701W        W97662  18.752  21.646   3.112
93702W        W97663  18.864  21.007   0.242
93703W        W97664  21.381  20.765   1.052
93704W        W97665  18.985  19.557   2.938
93705W        W97666  21.758  19.487   0.419
93706W        W97667  19.503  20.544   0.890
93707W        W97668  20.602  19.926   2.971
93708W        W97669  20.493  19.554   2.515
93709W        W97670  19.053  19.926   2.544
93710W        W97671  21.263  21.814   2.373
93711W        W97672  21.054  18.448   3.367
93712W        W97673  18.718  18.598   2.954
93713W        W97674  19.057  19.621   2.007
93714W        W97675  19.426  19.435   0.129
93715W        W97676  18.229  21.194   2.674
93716W        W97677  19.814  19.903   2.117
93717W        W97678  19.637  18.928   0.222
93718W        W97679  18.772  19.744   1.003
93719W        W97680  18.543  21.596   2.440
93720W        W97681  21.338  19.822   0.548
93721W        W97682  21.433  18.738   3.234
93722W        W97683  20.869  20.947   1.197
93723W        W97684  18.467  19.871   3.374
93724W        W97685  21.433  18.335   0.670
93725W        W97686  20.953  20.810   0.681
93726W        W97687  19.855  19.868   0.766
93727W        W97688  21.042  18.672   0.289
93728W        W97689  21.107  19.279   2.475
93729W        W97690  18.816  19.872   1.682
93730W        W97691  19.110  20.811   1.331
93731W        W97692  20.873  19.431   1.296
93732W        W97693  19.896  18.810   1.992
93733W        W97694  21.858  20.721   2.503
93734W        W97695  21.776  18.708   2.064
93735W        W97696  18.315  21.538   1.440
93736W        W97697  18.824  20.725   0.976
93737W        W97698  18.739  18.342   3.529
93738W        W97699  19.858  21.195   3.631
93739W        W97700  21.613  20.163   1.421
93740W        W97701  20.967  20.340   0.301
93741W        W97702  20.262  21.861   2.513
93742W        W97703  21.119  20.583   3.550
93743W        W97704  19.934  18.293   0.830
93744W        W97705  20.647  19.162   1.689
93745W        W97706  18.333  20.749   2.021
93746W        W97707  19.586  18.711   0.662
93747W        W97708  19.390  20.195   3.511
93748W        W97709  20.384  19.176   1.225
93749W        W97710  20.589  20.586   2.347
93750W        W97711  18.743  21.191   2.782
93751W        W97712  19.334  21.174   3.505
93752W        W97713  19.185  18.971   0.519
93753W        W97714  20.702  19.113   0.844
93754W        W97715  20.660  21.221   3.081
93755W        W97716  19.345  19.813   1.680
93756W        W97717  19.000  21.511   2.545
93757W        W97718  21.745  21.628   0.146
93758W        W97719  18.608  20.300   3.142
93759W        W97720  20.603  20.562   1.830
93760W        W97721  19.039  20.211   1.072
93761W        W97722  19.410  21.218   2.467
93762W        W97723  19.788  18.637   1.508
93763W        W97724  18.399  20.621   0.438
93764W        W97725  19.918  19.572   0.308
93765W        W97726  18.564  20.121   1.327
93766W        W97727  19.854  18.763   2.791
93767W        W97728  21.526  18.472   0.218
93768W        W97729  21.619  20.218   3.317
93769W        W97730  20.273  21.475   3.469
93770W        W97731  21.831  20.569   2.991
93771W        W97732  21.239  21.367   3.602
93772W        W97733  18.978  21.823   2.080
93773W        W97734  21.837  20.445   0.954
93774W        W97735  20.367  19.712   1.467
93775W        W97736  20.134  18.324   1.357
93776W        W97737  19.193  21.308   1.194
93777W        W97738  19.692  19.049   2.419
93778W        W97739  19.392  18.418   1.888
93779W        W97740  18.455  21.240   0.436
93780W        W97741  20.271  20.604   1.154
93781W        W97742  19.146  21.399   3.033
93782W        W97743  18.623  20.222   0.729
93783W        W97744  18.508  18.765   1.728
93784W        W97745  20.056  20.730   1.785
93785W        W97746  18.308  18.584   0.805
93786W        W97747  20.972  19.790   2.732
93787W        W97748  20.849  19.176   0.304
93788W        W97749  21.366  20.848   1.952
93789W        W97750  20.027  21.332   1.783
93790W        W97751  19.439  21.436   0.694
93791W        W97752  20.721  18.339   0.124
93792W        W97753  18.521  21.599   1.865
93793W        W97754  20.718  19.357   3.500
93794W        W97755  18.701  18.887   3.499
93795W        W97756  18.432  19.487   0.832
93796W        W97757  19.123  19.476   0.557
93797W        W97758  20.886  19.803   3.374
93798W        W97759  19.229  20.084   2.083
93799W        W97760  20.703  18.370   1.203
93800W        W97761  19.834  21.801   1.706
93801W        W97762  21.048  21.263   2.643
93802W        W97763  20.632  21.412   1.754
93803W        W97764  20.651  20.392   1.348
93804W        W97765  20.113  18.617   0.419
93805W        W97766  21.794  18.245   1.141
93806W        W97767  19.482  19.880   0.304
93807W        W97768  21.648  19.217   1.294
93808W        W97769  20.340  20.387   0.171
93809W        W97770  21.276  20.587   2.919
93810W        W97771  20.930  21.288   0.386
93811W        W97772  19.545  18.963   3.292
93812W        W97773  19.365  19.547   2.533
93813W        W97774  21.457  21.042   2.810
93814W        W97775  20.557  18.992   3.187
93815W        W97776  18.401  19.463   2.964
93816W        W97777  20.161  19.940   2.690
93817W        W97778  18.518  20.698   1.347
93818W        W97779  18.665  19.995   2.237
93819W        W97780  20.982  20.281   2.587
93820W        W97781  20.754  21.661   3.398
93821W        W97782  20.650  19.400   2.951
93822W        W97783  20.927  21.454   1.356
93823W        W97784  19.929  21.174   2.679
93824W        W97785  19.414  21.529   1.948
93825W        W97786  21.219  20.700   2.367
93826W        W97787  20.269  20.772   3.504
93827W        W97788  18.874  20.725   1.843
93828W        W97789  21.220  20.484   1.488
93829W        W97790  20.861  21.550   2.239
93830W        W97791  18.839  21.279   2.109
93831W        W97792  19.860  19.331   3.319
93832W        W97793  20.311  21.497   0.830
93833W        W97794  19.619  20.752   3.468
93834W        W97795  19.745  20.990   0.845
93835W        W97796  18.966  19.730   0.104
93836W        W97797  18.305  21.816   7.003
93837W        W97798  18.681  20.709   6.526
93838W        W97799  21.386  20.439   4.296
93839W        W97800  21.516  21.524   6.323
93840W        W97801  19.434  21.515   3.849
93841W        W97802  19.517  19.667   4.832
93842W        W97803  19.032  19.515   4.996
93843W        W97804  20.023  20.330   4.430
93844W        W97805  19.698  21.422   6.785
93845W        W97806  18.347  18.983   6.748
93846W        W97807  19.109  18.263   6.550
93847W        W97808  20.803  18.651   5.437
93848W        W97809  20.452  19.522   4.007
93849W        W97810  21.022  18.956   7.098
93850W        W97811  18.388  18.748   6.223
93851W        W97812  18.487  21.367   7.244
93852W        W97813  20.009  20.757   3.976
93853W        W97814  18.441  19.540   5.669
93854W        W97815  19.334  19.431   6.906
93855W        W97816  21.793  19.290   5.405
93856W        W97817  21.557  20.333   6.264
93857W        W97818  19.865  19.666   5.291
93858W        W97819  20.411  21.005   5.660
93859W        W97820  18.911  20.439   5.892
93860W        W97821  18.270  19.967   5.463
93861W        W97822  19.306  19.939   6.655
93862W        W97823  21.577  19.722   6.909
93863W        W97824  19.193  21.166   5.354
93864W        W97825  20.314  20.855   6.488
93865W        W97826  19.534  19.495   5.713
93866W        W97827  19.826  20.279   5.356
93867W        W97828  20.823  21.052   7.204
93868W        W97829  19.902  20.372   7.214
93869W        W97830  19.883  20.088   6.692
93870W        W97831  18.292  19.479   7.214
93871W        W97832  21.124  21.014   6.813
93872W        W97833  18.705  18.596   4.811
93873W        W97834  19.232  20.854   5.810
93874W        W97835  21.695  20.637   5.100
93875W        W97836  21.108  19.037   5.667
93876W        W97837  21.393  18.990   3.762
93877W        W97838  21.858  19.791   6.068
93878W        W97839  19.825  21.498   5.821
93879W        W97840  21.599  20.964   4.259
93880W        W97841  18.728  21.750   4.013
93881W        W97842  19.121  21.796   4.689
93882W        W97843  18.918  18.550   6.115
93883W        W97844  21.541  19.568   6.390
93884W        W97845  20.946  19.990   4.849
93885W        W97846  20.912  19.678   3.876
93886W        W97847  20.120  20.822   6.016
93887W        W97848  19.926  19.152   5.215
93888W        W97849  20.526  21.239   6.209
93889W        W97850  21.397  20.030   4.631
93890W        W97851  20.299  18.688   4.647
93891W        W97852  18.956  21.382   4.330
93892W        W97853  18.327  18.881   4.929
93893W        W97854  21.113  19.488   5.403
93894W        W97855  18.571  21.105   5.318
93895W        W97856  19.912  21.455   4.188
93896W        W97857  21.304  19.481   3.652
93897W        W97858  18.327  21.239   5.816
93898W        W97859  19.118  20.811   6.296
93899W        W97860  19.491  20.171   4.915
93900W        W97861  19.513  18.576   6.008
93901W        W97862  21.742  18.338   5.305
93902W        W97863  18.961  20.210   3.773
93903W        W97864  18.616  19.243   3.952
93904W        W97865  18.678  21.199   4.746
93905W        W97866  19.809  20.682   4.994
93906W        W97867  21.141  21.541   6.708
93907W        W97868  20.067  19.183   4.392
93908W        W97869  21.450  21.581   5.164
93909W        W97870  21.127  19.434   6.762
93910W        W97871  21.840  21.090   4.896
93911W        W97872  20.467  20.382   6.380
93912W        W97873  18.233  19.933   4.586
93913W        W97874  19.344  20.348   6.159
93914W        W97875  20.548  19.612   4.537
93915W        W97876  20.425  20.102   4.641
93916W        W97877  18.768  19.522   6.115
93917W        W97878  18.753  19.398   7.037
93918W        W97879  18.643  18.315   5.196
93919W        W97880  20.411  18.662   5.757
93920W        W97881  20.059  18.847   6.920
93921W        W97882  20.414  18.996   4.098
93922W        W97883  21.597  21.389   6.852
93923W        W97884  20.564  18.470   6.891
93924W        W97885  21.583  20.771   7.013
93925W        W97886  21.013  18.938   6.609
93926W        W97887  20.813  18.876   4.879
93927W        W97888  21.206  20.010   7.283
93928W        W97889  18.946  21.586   5.269
93929W        W97890  19.604  19.303   4.255
93930W        W97891  19.173  18.587   6.919
93931W        W97892  21.225  19.071   4.600
93932W        W97893  21.592  19.553   4.545
93933W        W97894  19.335  21.770   7.016
93934W        W97895  19.261  18.306   4.251
93935W        W97896  21.582  18.840   5.286
93936W        W97897  21.732  21.089   3.731
93937W        W97898  18.639  20.292   5.433
93938W        W97899  20.556  18.879   3.663
93939W        W97900  21.690  21.211   5.383
93940W        W97901  20.174  19.617   6.687
93941W        W97902  20.267  20.956   4.390
93942W        W97903  20.667  20.250   7.130
93943W        W97904  20.341  18.227   5.439
93944W        W97905  18.953  19.130   5.502
93945W        W97906  18.507  20.330   6.276
93946W        W97907  20.366  21.523   4.982
93947W        W97908  21.560  19.120   5.854
93948W        W97909  20.197  21.467   6.621
93949W        W97910  21.540  20.526   3.826
93950W        W97911  19.975  20.009   4.887
93951W        W97912  21.827  18.520   6.628
93952W        W97913  19.976  20.355   6.222
93953W        W97914  20.193  19.241   5.667
93954W        W97915  21.045  19.539   4.505
93955W        W97916  21.332  19.272   4.147
93956W        W97917  21.141  21.312   4.536
93957W        W97918  20.975  20.915   5.332
93958W        W97919  20.871  19.994   4.310
93959W        W97920  20.304  20.204   5.296
93960W        W97921  21.185  19.992   5.363
93961W        W97922  18.560  19.007   5.787
93962W        W97923  21.338  20.059   6.614
93963W        W97924  21.689  21.677   5.760
93964W        W97925  19.619  21.121   5.162
93965W        W97926  20.626  21.654   6.486
93966W        W97927  20.620  18.984   6.250
93967W        W97928  19.827  21.692   6.311
93968W        W97929  21.524  18.646   4.777
93969W        W97930  21.315  19.965   6.078
93970W        W97931  18.298  19.286   6.116
93971W        W97932  21.158  19.081   5.134
93972W        W97933  21.569  19.232   6.911
93973W        W97934  20.454  20.931   5.129
93974W        W97935  19.710  21.522   4.742
93975W        W97936  18.825  18.702   4.000
93976W        W97937  19.929  18.356   5.810
93977W        W97938  18.957  21.476   3.658
93978W        W97939  19.331  19.942   4.409
93979W        W97940  19.985  20.571   6.722
93980W        W97941  19.815  18.929   4.712
93981W        W97942  21.171  18.526   5.140
93982W        W97943  20.891  21.808   5.468
93983W        W97944  20.303  21.456   5.808
93984W        W97945  19.699  20.493   5.769
93985W        W97946  21.469  21.216   5.895
93986W        W97947  19.163  18.719   4.664
93987W        W97948  19.685  21.016   5.624
93988W        W97949  19.168  18.947   3.689
93989W        W97950  19.969  19.556   6.083
93990W        W97951  20.817  18.422   5.953
93991W        W97952  18.237  20.265   5.838
93992W        W97953  19.941  20.083   3.996
93993W        W97954  19.209  18.398   3.766
93994W        W97955  19.947  19.479   4.817
93995W        W97956  20.917  18.455   6.516
93996W        W97957  19.505  20.467   6.625
93997W        W97958  20.309  20.249   6.842
93998W        W97959  20.926  20.279   6.735
93999W        W97960  20.210  18.419   7.240
94000W        W97961  19.432  19.035   5.633
94001W        W97962  18.858  18.991   5.031
94002W        W97963  18.644  21.703   4.707
94003W        W97964  19.976  21.033   6.832
94004W        W97965  19.011  20.518   4.191
94005W        W97966  20.691  19.903   5.412
94006W        W97967  20.971  19.702   5.811
94007W        W97968  20.176  20.376   5.745
94008W        W97969  20.646  20.750   3.877
94009W        W97970  20.318  18.771   5.205
94010W        W97971  21.797  19.049   4.473
94011W        W97972  18.291  21.638   6.504
94012W        W97973  18.708  20.864   6.036
94013W        W97974  18.275  21.710   4.268
94014W        W97975  20.174  18.980   6.074
94015W        W97976  19.537  21.003   3.923
94016W        W97977  21.442  21.385   4.109
94017W        W97978  20.417  20.038   4.123
94018W        W97979  19.260  19.229   4.640
94019W        W97980  20.092  19.139   3.692
94020W        W97981  20.676  20.704   6.870
94021W        W97982  21.029  18.610   4.487
94022W        W97983  18.359  18.458   3.935
94023W        W97984  19.645  20.777   6.225
94024W        W97985  19.444  20.693   5.317
94025W        W97986  19.186  20.645   3.715
94026W        W97987  18.427  20.886   4.483
94027W        W97988  18.931  19.956   6.925
94028W        W97989  19.635  18.516   7.111
94029W        W97990  20.344  18.658   6.467
94030W        W97991  19.539  18.426   4.748
94031W        W97992  20.598  18.503   4.253
94032W        W97993  18.543  18.435   5.830
94033W        W97994  18.591  19.398   5.200
94034W        W97995  21.280  18.506   5.606
94035W        W97996  18.702  19.004   4.420
94036W        W97997  21.669  19.895   3.721
94037W        W97998  18.961  18.653   5.540
94038W        W97999  20.075  19.225   6.480
94039W        W98000  18.223  18.915   3.958
94040W        W98001  19.009  20.304   6.519
94041W        W98002  20.367  19.702   5.698
94042W        W98003  20.234  21.781   3.994
94043W        W98004  18.380  20.288   3.691
94044W        W98005  19.115  20.699   6.817
94045W        W98006  18.636  19.866   6.448
94046W        W98007  19.627  19.971   6.242
94047W        W98008  21.793  19.940   6.495
94048W        W98009  21.781  20.140   4.181
94049W        W98010  20.644  20.472   4.280
94050W        W98011  21.118  21.772   3.975
94051W        W98012  20.295  19.762   7.117
94052W        W98013  18.625  20.729   7.157
94053W        W98014  21.831  18.651   7.109
94054W        W98015  21.549  19.579   5.730
94055W        W98016  19.857  21.709   7.207
94056W        W98017  19.712  18.338   3.934
94057W        W98018  21.251  20.937   3.877
94058W        W98019  19.020  19.030   6.763
94059W        W98020  19.454  21.024   6.625
94060W        W98021  21.580  19.015   6.423
94061W        W98022  20.791  21.674   4.391
94062W        W98023  21.030  20.293   5.758
94063W        W98024  19.280  18.709   6.425
94064W        W98025  19.749  19.778   7.182
94065W        W98026  19.252  20.957   4.376
94066W        W98027  21.007  20.455   4.640
94067W        W98028  18.775  19.081   6.364
94068W        W98029  20.104  21.143   4.828
94069W        W98030  21.854  19.703   5.009
94070W        W98031  20.076  18.336   6.728
94071W        W98032  20.856  21.041   5.807
94072W        W98033  21.159  21.385   5.515
94073W        W98034  20.378  21.187   3.943
94074W        W98035  18.388  21.079   6.785
94075W        W98036  19.131  19.071   6.023
94076W        W98037  19.101  18.419   5.133
94077W        W98038  20.722  19.261   5.825
94078W        W98039  19.520  20.432   4.025
94079W        W98040  21.518  20.374   5.524
94080W        W98041  18.845  21.132   6.947
94081W        W98042  21.232  21.814   4.744
94082W        W98043  19.331  18.834   5.189
94083W        W98044  19.100  20.327   5.279
94084W        W98045  19.413  21.738   6.029
94085W        W98046  21.480  21.834   7.061
94086W        W98047  20.639  20.022   5.994
94087W        W98048  18.488  19.820   3.909
94088W        W98049  21.622  21.478   4.606
94089W        W98050  21.459  18.802   4.225
94090W        W98051  19.598  18.321   6.628
94091W        W98052  21.304  21.123   5.086
94092W        W98053  21.333  19.679   4.991
94093W        W98054  19.450  19.352   5.207
94094W        W98055  19.695  19.614   6.531
94095W        W98056  20.806  20.767   6.394
94096W        W98057  19.456  19.221   6.506
94097W        W98058  19.435  21.687   5.122
94098W        W98059  18.752  21.646   6.756
94099W        W98060  18.864  21.007   3.886
94100W        W98061  21.381  20.765   4.696
94101W        W98062  18.985  19.557   6.582
94102W        W98063  21.758  19.487   4.063
94103W        W98064  19.503  20.544   4.534
94104W        W98065  20.602  19.926   6.615
94105W        W98066  20.493  19.554   6.159
94106W        W98067  19.053  19.926   6.188
94107W        W98068  21.263  21.814   6.017
94108W        W98069  21.054  18.448   7.011
94109W        W98070  18.718  18.598   6.598
94110W        W98071  19.057  19.621   5.651
94111W        W98072  19.426  19.435   3.773
94112W        W98073  18.229  21.194   6.318
94113W        W98074  19.814  19.903   5.761
94114W        W98075  19.637  18.928   3.866
94115W        W98076  18.772  19.744   4.647
94116W        W98077  18.543  21.596   6.084
94117W        W98078  21.338  19.822   4.192
94118W        W98079  21.433  18.738   6.878
94119W        W98080  20.869  20.947   4.841
94120W        W98081  18.467  19.871   7.018
94121W        W98082  21.433  18.335   4.314
94122W        W98083  20.953  20.810   4.325
94123W        W98084  19.855  19.868   4.410
94124W        W98085  21.042  18.672   3.933
94125W        W98086  21.107  19.279   6.119
94126W        W98087  18.816  19.872   5.326
94127W        W98088  19.110  20.811   4.975
94128W        W98089  20.873  19.431   4.940
94129W        W98090  19.896  18.810   5.636
94130W        W98091  21.858  20.721   6.147
94131W        W98092  21.776  18.708   5.708
94132W        W98093  18.315  21.538   5.084
94133W        W98094  18.824  20.725   4.620
94134W        W98095  18.739  18.342   7.173
94135W        W98096  19.858  21.195   7.275
94136W        W98097  21.613  20.163   5.065
94137W        W98098  20.967  20.340   3.945
94138W        W98099  20.262  21.861   6.157
94139W        W98100  21.119  20.583   7.194
94140W        W98101  19.934  18.293   4.474
94141W        W98102  20.647  19.162   5.333
94142W        W98103  18.333  20.749   5.665
94143W        W98104  19.586  18.711   4.306
94144W        W98105  19.390  20.195   7.155
94145W        W98106  20.384  19.176   4.869
94146W        W98107  20.589  20.586   5.991
94147W        W98108  18.743  21.191   6.426
94148W        W98109  19.334  21.174   7.149
94149W        W98110  19.185  18.971   4.163
94150W        W98111  20.702  19.113   4.488
94151W        W98112  20.660  21.221   6.725
94152W        W98113  19.345  19.813   5.324
94153W        W98114  19.000  21.511   6.189
94154W        W98115  21.745  21.628   3.790
94155W        W98116  18.608  20.300   6.786
94156W        W98117  20.603  20.562   5.474
94157W        W98118  19.039  20.211   4.716
94158W        W98119  19.410  21.218   6.111
94159W        W98120  19.788  18.637   5.152
94160W        W98121  18.399  20.621   4.082
94161W        W98122  19.918  19.572   3.952
94162W        W98123  18.564  20.121   4.971
94163W        W98124  19.854  18.763   6.435
94164W        W98125  21.526  18.472   3.862
94165W        W98126  21.619  20.218   6.961
94166W        W98127  20.273  21.475   7.113
94167W        W98128  21.831  20.569   6.635
94168W        W98129  21.239  21.367   7.246
94169W        W98130  18.978  21.823   5.724
94170W        W98131  21.837  20.445   4.598
94171W        W98132  20.367  19.712   5.111
94172W        W98133  20.134  18.324   5.001
94173W        W98134  19.193  21.308   4.838
94174W        W98135  19.692  19.049   6.063
94175W        W98136  19.392  18.418   5.532
94176W        W98137  18.455  21.240   4.080
94177W        W98138  20.271  20.604   4.798
94178W        W98139  19.146  21.399   6.677
94179W        W98140  18.623  20.222   4.373
94180W        W98141  18.508  18.765   5.372
94181W        W98142  20.056  20.730   5.429
94182W        W98143  18.308  18.584   4.449
94183W        W98144  20.972  19.790   6.376
94184W        W98145  20.849  19.176   3.948
94185W        W98146  21.366  20.848   5.596
94186W        W98147  20.027  21.332   5.427
94187W        W98148  19.439  21.436   4.338
94188W        W98149  20.721  18.339   3.768
94189W        W98150  18.521  21.599   5.509
94190W        W98151  20.718  19.357   7.144
94191W        W98152  18.701  18.887   7.143
94192W        W98153  18.432  19.487   4.476
94193W        W98154  19.123  19.476   4.201
94194W        W98155  20.886  19.803   7.018
94195W        W98156  19.229  20.084   5.727
94196W        W98157  20.703  18.370   4.847
94197W        W98158  19.834  21.801   5.350
94198W        W98159  21.048  21.263   6.287
94199W        W98160  20.632  21.412   5.398
94200W        W98161  20.651  20.392   4.992
94201W        W98162  20.113  18.617   4.063
94202W        W98163  21.794  18.245   4.785
94203W        W98164  19.482  19.880   3.948
94204W        W98165  21.648  19.217   4.938
94205W        W98166  20.340  20.387   3.815
94206W        W98167  21.276  20.587   6.563
94207W        W98168  20.930  21.288   4.030
94208W        W98169  19.545  18.963   6.936
94209W        W98170  19.365  19.547   6.177
94210W        W98171  21.457  21.042   6.454
94211W        W98172  20.557  18.992   6.831
94212W        W98173  18.401  19.463   6.608
94213W        W98174  20.161  19.940   6.334
94214W        W98175  18.518  20.698   4.991
94215W        W98176  18.665  19.995   5.881
94216W        W98177  20.982  20.281   6.231
94217W        W98178  20.754  21.661   7.042
94218W        W98179  20.650  19.400   6.595
94219W        W98180  20.927  21.454   5.000
94220W        W98181  19.929  21.174   6.323
94221W        W98182  19.414  21.529   5.592
94222W        W98183  21.219  20.700   6.011
94223W        W98184  20.269  20.772   7.148
94224W        W98185  18.874  20.725   5.487
94225W        W98186  21.220  20.484   5.132
94226W        W98187  20.861  21.550   5.883
94227W        W98188  18.839  21.279   5.753
94228W        W98189  19.860  19.331   6.963
94229W        W98190  20.311  21.497   4.474
94230W        W98191  19.619  20.752   7.112
94231W        W98192  19.745  20.990   4.489
94232W        W98193  18.966  19.730   3.748
94233W        W98194  18.305  21.816  10.648
94234W        W98195  18.681  20.709  10.171
94235W        W98196  21.386  20.439   7.941
94236W        W98197  21.516  21.524   9.968
94237W        W98198  19.434  21.515   7.494
94238W        W98199  19.517  19.667   8.477
94239W        W98200  19.032  19.515   8.641
94240W        W98201  20.023  20.330   8.075
94241W        W98202  19.698  21.422  10.430
94242W        W98203  18.347  18.983  10.393
94243W        W98204  19.109  18.263  10.195
94244W        W98205  20.803  18.651   9.082
94245W        W98206  20.452  19.522   7.652
94246W        W98207  21.022  18.956  10.743
94247W        W98208  18.388  18.748   9.868
94248W        W98209  18.487  21.367  10.889
94249W        W98210  20.009  20.757   7.621
94250W        W98211  18.441  19.540   9.314
94251W        W98212  19.334  19.431  10.551
94252W        W98213  21.793  19.290   9.050
94253W        W98214  21.557  20.333   9.909
94254W        W98215  19.865  19.666   8.936
94255W        W98216  20.411  21.005   9.305
94256W        W98217  18.911  20.439   9.537
94257W        W98218  18.270  19.967   9.108
94258W        W98219  19.306  19.939  10.300
94259W        W98220  21.577  19.722  10.554
94260W        W98221  19.193  21.166   8.999
94261W        W98222  20.314  20.855  10.133
94262W        W98223  19.534  19.495   9.358
94263W        W98224  19.826  20.279   9.001
94264W        W98225  20.823  21.052  10.849
94265W        W98226  19.902  20.372  10.859
94266W        W98227  19.883  20.088  10.337
94267W        W98228  18.292  19.479  10.859
94268W        W98229  21.124  21.014  10.458
94269W        W98230  18.705  18.596   8.456
94270W        W98231  19.232  20.854   9.455
94271W        W98232  21.695  20.637   8.745
94272W        W98233  21.108  19.037   9.312
94273W        W98234  21.393  18.990   7.407
94274W        W98235  21.858  19.791   9.713
94275W        W98236  19.825  21.498   9.466
94276W        W98237  21.599  20.964   7.904
94277W        W98238  18.728  21.750   7.658
94278W        W98239  19.121  21.796   8.334
94279W        W98240  18.918  18.550   9.760
94280W        W98241  21.541  19.568  10.035
94281W        W98242  20.946  19.990   8.494
94282W        W98243  20.912  19.678   7.521
94283W        W98244  20.120  20.822   9.661
94284W        W98245  19.926  19.152   8.860
94285W        W98246  20.526  21.239   9.854
94286W        W98247  21.397  20.030   8.276
94287W        W98248  20.299  18.688   8.292
94288W        W98249  18.956  21.382   7.975
94289W        W98250  18.327  18.881   8.574
94290W        W98251  21.113  19.488   9.048
94291W        W98252  18.571  21.105   8.963
94292W        W98253  19.912  21.455   7.833
94293W        W98254  21.304  19.481   7.297
94294W        W98255  18.327  21.239   9.461
94295W        W98256  19.118  20.811   9.941
94296W        W98257  19.491  20.171   8.560
94297W        W98258  19.513  18.576   9.653
94298W        W98259  21.742  18.338   8.950
94299W        W98260  18.961  20.210   7.418
94300W        W98261  18.616  19.243   7.597
94301W        W98262  18.678  21.199   8.391
94302W        W98263  19.809  20.682   8.639
94303W        W98264  21.141  21.541  10.353
94304W        W98265  20.067  19.183   8.037
94305W        W98266  21.450  21.581   8.809
94306W        W98267  21.127  19.434  10.407
94307W        W98268  20.467  20.382  10.025
94308W        W98269  18.233  19.933   8.231
94309W        W98270  19.344  20.348   9.804
94310W        W98271  20.548  19.612   8.182
94311W        W98272  20.425  20.102   8.286
94312W        W98273  18.768  19.522   9.760
94313W        W98274  18.753  19.398  10.682
94314W        W98275  18.643  18.315   8.841
94315W        W98276  20.411  18.662   9.402
94316W        W98277  20.059  18.847  10.565
94317W        W98278  20.414  18.996   7.743
94318W        W98279  21.597  21.389  10.497
94319W        W98280  20.564  18.470  10.536
94320W        W98281  21.583  20.771  10.658
94321W        W98282  21.013  18.938  10.254
94322W        W98283  20.813  18.876   8.524
94323W        W98284  21.206  20.010  10.928
94324W        W98285  18.946  21.586   8.914
94325W        W98286  19.604  19.303   7.900
94326W        W98287  19.173  18.587  10.564
94327W        W98288  21.225  19.071   8.245
94328W        W98289  21.592  19.553   8.190
94329W        W98290  19.335  21.770  10.661
94330W        W98291  19.261  18.306   7.896
94331W        W98292  21.582  18.840   8.931
94332W        W98293  21.732  21.089   7.376
94333W        W98294  18.639  20.292   9.078
94334W        W98295  20.556  18.879   7.308
94335W        W98296  21.690  21.211   9.028
94336W        W98297  21.729  18.405   9.778
94337W        W98298  20.174  19.617  10.332
94338W        W98299  20.267  20.956   8.035
94339W        W98300  20.667  20.250  10.775
94340W        W98301  20.341  18.227   9.084
94341W        W98302  18.953  19.130   9.147
94342W        W98303  18.507  20.330   9.921
94343W        W98304  20.366  21.523   8.627
94344W        W98305  21.560  19.120   9.499
94345W        W98306  20.197  21.467  10.266
94346W        W98307  21.540  20.526   7.471
94347W        W98308  19.975  20.009   8.532
94348W        W98309  21.827  18.520  10.273
94349W        W98310  19.976  20.355   9.867
94350W        W98311  20.193  19.241   9.312
94351W        W98312  21.045  19.539   8.150
94352W        W98313  21.332  19.272   7.792
94353W        W98314  21.141  21.312   8.181
94354W        W98315  20.975  20.915   8.977
94355W        W98316  20.871  19.994   7.955
94356W        W98317  20.304  20.204   8.941
94357W        W98318  21.185  19.992   9.008
94358W        W98319  18.560  19.007   9.432
94359W        W98320  21.338  20.059  10.259
94360W        W98321  21.689  21.677   9.405
94361W        W98322  19.619  21.121   8.807
94362W        W98323  20.626  21.654  10.131
94363W        W98324  20.620  18.984   9.895
94364W        W98325  19.827  21.692   9.956
94365W        W98326  21.524  18.646   8.422
94366W        W98327  21.315  19.965   9.723
94367W        W98328  18.298  19.286   9.761
94368W        W98329  21.158  19.081   8.779
94369W        W98330  21.569  19.232  10.556
94370W        W98331  20.454  20.931   8.774
94371W        W98332  19.710  21.522   8.387
94372W        W98333  18.825  18.702   7.645
94373W        W98334  19.929  18.356   9.455
94374W        W98335  18.957  21.476   7.303
94375W        W98336  19.331  19.942   8.054
94376W        W98337  19.985  20.571  10.367
94377W        W98338  19.815  18.929   8.357
94378W        W98339  21.171  18.526   8.785
94379W        W98340  20.891  21.808   9.113
94380W        W98341  20.303  21.456   9.453
94381W        W98342  19.699  20.493   9.414
94382W        W98343  21.469  21.216   9.540
94383W        W98344  19.163  18.719   8.309
94384W        W98345  19.685  21.016   9.269
94385W        W98346  19.168  18.947   7.334
94386W        W98347  19.969  19.556   9.728
94387W        W98348  20.817  18.422   9.598
94388W        W98349  18.237  20.265   9.483
94389W        W98350  19.941  20.083   7.641
94390W        W98351  19.209  18.398   7.411
94391W        W98352  19.947  19.479   8.462
94392W        W98353  20.917  18.455  10.161
94393W        W98354  19.505  20.467  10.270
94394W        W98355  20.309  20.249  10.487
94395W        W98356  20.926  20.279  10.380
94396W        W98357  20.210  18.419  10.885
94397W        W98358  19.432  19.035   9.278
94398W        W98359  18.858  18.991   8.676
94399W        W98360  18.644  21.703   8.352
94400W        W98361  19.976  21.033  10.477
94401W        W98362  19.011  20.518   7.836
94402W        W98363  20.691  19.903   9.057
94403W        W98364  20.971  19.702   9.456
94404W        W98365  20.176  20.376   9.390
94405W        W98366  20.646  20.750   7.522
94406W        W98367  20.318  18.771   8.850
94407W        W98368  21.797  19.049   8.118
94408W        W98369  18.291  21.638  10.149
94409W        W98370  18.708  20.864   9.681
94410W        W98371  18.275  21.710   7.913
94411W        W98372  20.174  18.980   9.719
94412W        W98373  19.537  21.003   7.568
94413W        W98374  21.442  21.385   7.754
94414W        W98375  20.417  20.038   7.768
94415W        W98376  19.260  19.229   8.285
94416W        W98377  20.092  19.139   7.337
94417W        W98378  20.676  20.704  10.515
94418W        W98379  21.029  18.610   8.132
94419W        W98380  18.359  18.458   7.580
94420W        W98381  19.645  20.777   9.870
94421W        W98382  19.444  20.693   8.962
94422W        W98383  19.186  20.645   7.360
94423W        W98384  18.427  20.886   8.128
94424W        W98385  18.931  19.956  10.570
94425W        W98386  19.635  18.516  10.756
94426W        W98387  20.344  18.658  10.112
94427W        W98388  19.539  18.426   8.393
94428W        W98389  20.598  18.503   7.898
94429W        W98390  18.543  18.435   9.475
94430W        W98391  18.591  19.398   8.845
94431W        W98392  21.280  18.506   9.251
94432W        W98393  18.702  19.004   8.065
94433W        W98394  21.273  18.692   9.681
94434W        W98395  21.669  19.895   7.366
94435W        W98396  18.961  18.653   9.185
94436W        W98397  20.075  19.225  10.125
94437W        W98398  18.223  18.915   7.603
94438W        W98399  19.009  20.304  10.164
94439W        W98400  20.367  19.702   9.343
94440W        W98401  20.234  21.781   7.639
94441W        W98402  18.380  20.288   7.336
94442W        W98403  19.115  20.699  10.462
94443W        W98404  18.636  19.866  10.093
94444W        W98405  19.627  19.971   9.887
94445W        W98406  21.395  18.330  10.149
94446W        W98407  21.793  19.940  10.140
94447W        W98408  21.781  20.140   7.826
94448W        W98409  20.644  20.472   7.925
94449W        W98410  21.118  21.772   7.620
94450W        W98411  20.295  19.762  10.762
94451W        W98412  18.625  20.729  10.802
94452W        W98413  21.831  18.651  10.754
94453W        W98414  21.549  19.579   9.375
94454W        W98415  19.857  21.709  10.852
94455W        W98416  19.712  18.338   7.579
94456W        W98417  21.251  20.937   7.522
94457W        W98418  19.020  19.030  10.408
94458W        W98419  19.454  21.024  10.270
94459W        W98420  21.580  19.015  10.068
94460W        W98421  20.791  21.674   8.036
94461W        W98422  21.030  20.293   9.403
94462W        W98423  19.280  18.709  10.070
94463W        W98424  19.749  19.778  10.827
94464W        W98425  19.252  20.957   8.021
94465W        W98426  21.007  20.455   8.285
94466W        W98427  18.775  19.081  10.009
94467W        W98428  20.104  21.143   8.473
94468W        W98429  21.854  19.703   8.654
94469W        W98430  20.076  18.336  10.373
94470W        W98431  20.856  21.041   9.452
94471W        W98432  21.159  21.385   9.160
94472W        W98433  20.378  21.187   7.588
94473W        W98434  18.388  21.079  10.430
94474W        W98435  19.131  19.071   9.668
94475W        W98436  19.101  18.419   8.778
94476W        W98437  20.722  19.261   9.470
94477W        W98438  19.520  20.432   7.670
94478W        W98439  21.518  20.374   9.169
94479W        W98440  18.845  21.132  10.592
94480W        W98441  21.232  21.814   8.389
94481W        W98442  19.331  18.834   8.834
94482W        W98443  19.100  20.327   8.924
94483W        W98444  19.413  21.738   9.674
94484W        W98445  21.480  21.834  10.706
94485W        W98446  20.639  20.022   9.639
94486W        W98447  18.488  19.820   7.554
94487W        W98448  21.622  21.478   8.251
94488W        W98449  21.459  18.802   7.870
94489W        W98450  19.598  18.321  10.273
94490W        W98451  21.304  21.123   8.731
94491W        W98452  21.333  19.679   8.636
94492W        W98453  19.450  19.352   8.852
94493W        W98454  19.695  19.614  10.176
94494W        W98455  20.806  20.767  10.039
94495W        W98456  19.456  19.221  10.151
94496W        W98457  19.435  21.687   8.767
94497W        W98458  18.752  21.646  10.401
94498W        W98459  18.864  21.007   7.531
94499W        W98460  21.381  20.765   8.341
94500W        W98461  18.985  19.557  10.227
94501W        W98462  21.758  19.487   7.708
94502W        W98463  19.503  20.544   8.179
94503W        W98464  20.602  19.926  10.260
94504W        W98465  20.493  19.554   9.804
94505W        W98466  19.053  19.926   9.833
94506W        W98467  21.263  21.814   9.662
94507W        W98468  21.054  18.448  10.656
94508W        W98469  18.718  18.598  10.243
94509W        W98470  19.057  19.621   9.296
94510W        W98471  19.426  19.435   7.418
94511W        W98472  18.229  21.194   9.963
94512W        W98473  19.814  19.903   9.406
94513W        W98474  19.637  18.928   7.511
94514W        W98475  18.772  19.744   8.292
94515W        W98476  18.543  21.596   9.729
94516W        W98477  21.338  19.822   7.837
94517W        W98478  21.433  18.738  10.523
94518W        W98479  20.869  20.947   8.486
94519W        W98480  18.467  19.871  10.663
94520W        W98481  21.433  18.335   7.959
94521W        W98482  20.953  20.810   7.970
94522W        W98483  19.855  19.868   8.055
94523W        W98484  21.042  18.672   7.578
94524W        W98485  21.107  19.279   9.764
94525W        W98486  18.816  19.872   8.971
94526W        W98487  19.110  20.811   8.620
94527W        W98488  20.873  19.431   8.585
94528W        W98489  19.896  18.810   9.281
94529W        W98490  21.858  20.721   9.792
94530W        W98491  21.776  18.708   9.353
94531W        W98492  18.315  21.538   8.729
94532W        W98493  18.824  20.725   8.265
94533W        W98494  18.739  18.342  10.818
94534W        W98495  19.858  21.195  10.920
94535W        W98496  21.613  20.163   8.710
94536W        W98497  20.967  20.340   7.590
94537W        W98498  20.262  21.861   9.802
94538W        W98499  21.119  20.583  10.839
94539W        W98500  19.934  18.293   8.119
94540W        W98501  20.647  19.162   8.978
94541W        W98502  18.333  20.749   9.310
94542W        W98503  19.586  18.711   7.951
94543W        W98504  19.390  20.195  10.800
94544W        W98505  20.384  19.176   8.514
94545W        W98506  20.589  20.586   9.636
94546W        W98507  18.743  21.191  10.071
94547W        W98508  19.334  21.174  10.794
94548W        W98509  19.185  18.971   7.808
94549W        W98510  20.702  19.113   8.133
94550W        W98511  20.660  21.221  10.370
94551W        W98512  19.345  19.813   8.969
94552W        W98513  19.000  21.511   9.834
94553W        W98514  21.745  21.628   7.435
94554W        W98515  18.608  20.300  10.431
94555W        W98516  20.603  20.562   9.119
94556W        W98517  19.039  20.211   8.361
94557W        W98518  19.410  21.218   9.756
94558W        W98519  19.788  18.637   8.797
94559W        W98520  18.399  20.621   7.727
94560W        W98521  19.918  19.572   7.597
94561W        W98522  18.564  20.121   8.616
94562W        W98523  19.854  18.763  10.080
94563W        W98524  21.526  18.472   7.507
94564W        W98525  21.619  20.218  10.606
94565W        W98526  20.273  21.475  10.758
94566W        W98527  21.831  20.569  10.280
94567W        W98528  21.239  21.367  10.891
94568W        W98529  18.978  21.823   9.369
94569W        W98530  21.837  20.445   8.243
94570W        W98531  20.367  19.712   8.756
94571W        W98532  20.134  18.324   8.646
94572W        W98533  19.193  21.308   8.483
94573W        W98534  19.692  19.049   9.708
94574W        W98535  19.392  18.418   9.177
94575W        W98536  18.455  21.240   7.725
94576W        W98537  20.271  20.604   8.443
94577W        W98538  19.146  21.399  10.322
94578W        W98539  18.623  20.222   8.018
94579W        W98540  18.508  18.765   9.017
94580W        W98541  20.056  20.730   9.074
94581W        W98542  18.308  18.584   8.094
94582W        W98543  20.972  19.790  10.021
94583W        W98544  20.849  19.176   7.593
94584W        W98545  21.366  20.848   9.241
94585W        W98546  20.027  21.332   9.072
94586W        W98547  19.439  21.436   7.983
94587W        W98548  20.721  18.339   7.413
94588W        W98549  18.521  21.599   9.154
94589W        W98550  20.718  19.357  10.789
94590W        W98551  18.701  18.887  10.788
94591W        W98552  18.432  19.487   8.121
94592W        W98553  19.123  19.476   7.846
94593W        W98554  20.886  19.803  10.663
94594W        W98555  19.229  20.084   9.372
94595W        W98556  20.703  18.370   8.492
94596W        W98557  19.834  21.801   8.995
94597W        W98558  21.048  21.263   9.932
94598W        W98559  20.632  21.412   9.043
94599W        W98560  20.651  20.392   8.637
94600W        W98561  20.113  18.617   7.708
94601W        W98562  21.794  18.245   8.430
94602W        W98563  19.482  19.880   7.593
94603W        W98564  21.648  19.217   8.583
94604W        W98565  20.340  20.387   7.460
94605W        W98566  21.276  20.587  10.208
94606W        W98567  20.930  21.288   7.675
94607W        W98568  19.545  18.963  10.581
94608W        W98569  19.365  19.547   9.822
94609W        W98570  21.457  21.042  10.099
94610W        W98571  20.557  18.992  10.476
94611W        W98572  18.401  19.463  10.253
94612W        W98573  20.161  19.940   9.979
94613W        W98574  18.518  20.698   8.636
94614W        W98575  18.665  19.995   9.526
94615W        W98576  20.982  20.281   9.876
94616W        W98577  20.754  21.661  10.687
94617W        W98578  20.650  19.400  10.240
94618W        W98579  20.927  21.454   8.645
94619W        W98580  19.929  21.174   9.968
94620W        W98581  19.414  21.529   9.237
94621W        W98582  21.219  20.700   9.656
94622W        W98583  20.269  20.772  10.793
94623W        W98584  18.874  20.725   9.132
94624W        W98585  21.220  20.484   8.777
94625W        W98586  20.861  21.550   9.528
94626W        W98587  18.839  21.279   9.398
94627W        W98588  19.860  19.331  10.608
94628W        W98589  20.311  21.497   8.119
94629W        W98590  19.619  20.752  10.757
94630W        W98591  19.745  20.990   8.134
94631W        W98592  18.966  19.730   7.393
94632W        W98593  18.305  21.816  14.292
94633W        W98594  18.681  20.709  13.815
94634W        W98595  21.386  20.439  11.585
94635W        W98596  21.516  21.524  13.612
94636W        W98597  19.434  21.515  11.138
94637W        W98598  19.517  19.667  12.121
94638W        W98599  19.032  19.515  12.285
94639W        W98600  20.023  20.330  11.719
94640W        W98601  19.698  21.422  14.074
94641W        W98602  18.347  18.983  14.037
94642W        W98603  19.109  18.263  13.839
94643W        W98604  20.803  18.651  12.726
94644W        W98605  20.452  19.522  11.296
94645W        W98606  21.022  18.956  14.387
94646W        W98607  18.388  18.748  13.512
94647W        W98608  20.009  20.757  11.265
94648W        W98609  18.441  19.540  12.958
94649W        W98610  19.334  19.431  14.195
94650W        W98611  21.793  19.290  12.694
94651W        W98612  21.557  20.333  13.553
94652W        W98613  19.865  19.666  12.580
94653W        W98614  20.411  21.005  12.949
94654W        W98615  18.911  20.439  13.181
94655W        W98616  18.270  19.967  12.752
94656W        W98617  19.306  19.939  13.944
94657W        W98618  21.577  19.722  14.198
94658W        W98619  19.193  21.166  12.643
94659W        W98620  20.314  20.855  13.777
94660W        W98621  19.534  19.495  13.002
94661W        W98622  19.826  20.279  12.645
94662W        W98623  20.823  21.052  14.493
94663W        W98624  19.902  20.372  14.503
94664W        W98625  19.883  20.088  13.981
94665W        W98626  18.292  19.479  14.503
94666W        W98627  21.124  21.014  14.102
94667W        W98628  18.705  18.596  12.100
94668W        W98629  19.232  20.854  13.099
94669W        W98630  21.695  20.637  12.389
94670W        W98631  21.108  19.037  12.956
94671W        W98632  21.393  18.990  11.051
94672W        W98633  21.858  19.791  13.357
94673W        W98634  19.825  21.498  13.110
94674W        W98635  21.599  20.964  11.548
94675W        W98636  18.728  21.750  11.302
94676W        W98637  19.121  21.796  11.978
94677W        W98638  18.918  18.550  13.404
94678W        W98639  21.541  19.568  13.679
94679W        W98640  20.946  19.990  12.138
94680W        W98641  20.912  19.678  11.165
94681W        W98642  20.120  20.822  13.305
94682W        W98643  19.926  19.152  12.504
94683W        W98644  20.526  21.239  13.498
94684W        W98645  21.397  20.030  11.920
94685W        W98646  20.299  18.688  11.936
94686W        W98647  18.956  21.382  11.619
94687W        W98648  18.327  18.881  12.218
94688W        W98649  21.113  19.488  12.692
94689W        W98650  18.571  21.105  12.607
94690W        W98651  19.912  21.455  11.477
94691W        W98652  21.304  19.481  10.941
94692W        W98653  18.327  21.239  13.105
94693W        W98654  19.491  20.171  12.204
94694W        W98655  19.513  18.576  13.297
94695W        W98656  21.742  18.338  12.594
94696W        W98657  18.961  20.210  11.062
94697W        W98658  18.616  19.243  11.241
94698W        W98659  18.678  21.199  12.035
94699W        W98660  19.809  20.682  12.283
94700W        W98661  21.141  21.541  13.997
94701W        W98662  20.067  19.183  11.681
94702W        W98663  21.450  21.581  12.453
94703W        W98664  21.127  19.434  14.051
94704W        W98665  21.840  21.090  12.185
94705W        W98666  20.467  20.382  13.669
94706W        W98667  18.233  19.933  11.875
94707W        W98668  19.344  20.348  13.448
94708W        W98669  20.548  19.612  11.826
94709W        W98670  20.425  20.102  11.930
94710W        W98671  18.768  19.522  13.404
94711W        W98672  18.753  19.398  14.326
94712W        W98673  18.643  18.315  12.485
94713W        W98674  20.411  18.662  13.046
94714W        W98675  20.059  18.847  14.209
94715W        W98676  20.414  18.996  11.387
94716W        W98677  21.597  21.389  14.141
94717W        W98678  20.564  18.470  14.180
94718W        W98679  21.583  20.771  14.302
94719W        W98680  21.013  18.938  13.898
94720W        W98681  20.813  18.876  12.168
94721W        W98682  21.206  20.010  14.572
94722W        W98683  18.946  21.586  12.558
94723W        W98684  19.604  19.303  11.544
94724W        W98685  19.173  18.587  14.208
94725W        W98686  21.225  19.071  11.889
94726W        W98687  21.592  19.553  11.834
94727W        W98688  19.335  21.770  14.305
94728W        W98689  19.261  18.306  11.540
94729W        W98690  21.582  18.840  12.575
94730W        W98691  21.732  21.089  11.020
94731W        W98692  18.639  20.292  12.722
94732W        W98693  20.556  18.879  10.952
94733W        W98694  21.690  21.211  12.672
94734W        W98695  21.729  18.405  13.422
94735W        W98696  20.174  19.617  13.976
94736W        W98697  20.267  20.956  11.679
94737W        W98698  20.667  20.250  14.419
94738W        W98699  20.341  18.227  12.728
94739W        W98700  18.953  19.130  12.791
94740W        W98701  18.507  20.330  13.565
94741W        W98702  20.366  21.523  12.271
94742W        W98703  21.560  19.120  13.143
94743W        W98704  20.197  21.467  13.910
94744W        W98705  21.540  20.526  11.115
94745W        W98706  19.975  20.009  12.176
94746W        W98707  21.827  18.520  13.917
94747W        W98708  19.976  20.355  13.511
94748W        W98709  20.193  19.241  12.956
94749W        W98710  21.045  19.539  11.794
94750W        W98711  21.332  19.272  11.436
94751W        W98712  21.141  21.312  11.825
94752W        W98713  20.975  20.915  12.621
94753W        W98714  20.871  19.994  11.599
94754W        W98715  20.304  20.204  12.585
94755W        W98716  21.185  19.992  12.652
94756W        W98717  18.560  19.007  13.076
94757W        W98718  21.338  20.059  13.903
94758W        W98719  21.689  21.677  13.049
94759W        W98720  19.619  21.121  12.451
94760W        W98721  20.626  21.654  13.775
94761W        W98722  20.620  18.984  13.539
94762W        W98723  19.827  21.692  13.600
94763W        W98724  21.524  18.646  12.066
94764W        W98725  21.315  19.965  13.367
94765W        W98726  18.298  19.286  13.405
94766W        W98727  21.158  19.081  12.423
94767W        W98728  21.569  19.232  14.200
94768W        W98729  20.454  20.931  12.418
94769W        W98730  19.710  21.522  12.031
94770W        W98731  18.825  18.702  11.289
94771W        W98732  19.929  18.356  13.099
94772W        W98733  18.957  21.476  10.947
94773W        W98734  19.331  19.942  11.698
94774W        W98735  19.985  20.571  14.011
94775W        W98736  19.815  18.929  12.001
94776W        W98737  21.171  18.526  12.429
94777W        W98738  20.891  21.808  12.757
94778W        W98739  20.303  21.456  13.097
94779W        W98740  19.699  20.493  13.058
94780W        W98741  21.469  21.216  13.184
94781W        W98742  19.163  18.719  11.953
94782W        W98743  19.685  21.016  12.913
94783W        W98744  19.168  18.947  10.978
94784W        W98745  19.969  19.556  13.372
94785W        W98746  20.817  18.422  13.242
94786W        W98747  18.237  20.265  13.127
94787W        W98748  19.941  20.083  11.285
94788W        W98749  19.209  18.398  11.055
94789W        W98750  19.947  19.479  12.106
94790W        W98751  20.917  18.455  13.805
94791W        W98752  19.505  20.467  13.914
94792W        W98753  20.309  20.249  14.131
94793W        W98754  20.926  20.279  14.024
94794W        W98755  20.210  18.419  14.529
94795W        W98756  19.432  19.035  12.922
94796W        W98757  18.858  18.991  12.320
94797W        W98758  18.644  21.703  11.996
94798W        W98759  19.976  21.033  14.121
94799W        W98760  19.011  20.518  11.480
94800W        W98761  20.691  19.903  12.701
94801W        W98762  20.971  19.702  13.100
94802W        W98763  20.176  20.376  13.034
94803W        W98764  20.646  20.750  11.166
94804W        W98765  20.318  18.771  12.494
94805W        W98766  21.797  19.049  11.762
94806W        W98767  18.291  21.638  13.793
94807W        W98768  18.708  20.864  13.325
94808W        W98769  18.275  21.710  11.557
94809W        W98770  20.174  18.980  13.363
94810W        W98771  19.537  21.003  11.212
94811W        W98772  21.442  21.385  11.398
94812W        W98773  20.417  20.038  11.412
94813W        W98774  19.260  19.229  11.929
94814W        W98775  20.092  19.139  10.981
94815W        W98776  20.676  20.704  14.159
94816W        W98777  21.029  18.610  11.776
94817W        W98778  18.359  18.458  11.224
94818W        W98779  19.645  20.777  13.514
94819W        W98780  19.444  20.693  12.606
94820W        W98781  19.186  20.645  11.004
94821W        W98782  18.427  20.886  11.772
94822W        W98783  18.931  19.956  14.214
94823W        W98784  19.635  18.516  14.400
94824W        W98785  20.344  18.658  13.756
94825W        W98786  19.539  18.426  12.037
94826W        W98787  20.598  18.503  11.542
94827W        W98788  18.543  18.435  13.119
94828W        W98789  18.591  19.398  12.489
94829W        W98790  21.280  18.506  12.895
94830W        W98791  18.702  19.004  11.709
94831W        W98792  21.273  18.692  13.325
94832W        W98793  21.669  19.895  11.010
94833W        W98794  18.961  18.653  12.829
94834W        W98795  20.075  19.225  13.769
94835W        W98796  18.223  18.915  11.247
94836W        W98797  19.009  20.304  13.808
94837W        W98798  20.367  19.702  12.987
94838W        W98799  20.234  21.781  11.283
94839W        W98800  18.380  20.288  10.980
94840W        W98801  19.115  20.699  14.106
94841W        W98802  18.636  19.866  13.737
94842W        W98803  19.627  19.971  13.531
94843W        W98804  21.395  18.330  13.793
94844W        W98805  21.793  19.940  13.784
94845W        W98806  21.781  20.140  11.470
94846W        W98807  20.644  20.472  11.569
94847W        W98808  21.118  21.772  11.264
94848W        W98809  20.295  19.762  14.406
94849W        W98810  18.625  20.729  14.446
94850W        W98811  21.831  18.651  14.398
94851W        W98812  21.549  19.579  13.019
94852W        W98813  19.857  21.709  14.496
94853W        W98814  19.712  18.338  11.223
94854W        W98815  21.251  20.937  11.166
94855W        W98816  19.020  19.030  14.052
94856W        W98817  21.580  19.015  13.712
94857W        W98818  20.791  21.674  11.680
94858W        W98819  21.030  20.293  13.047
94859W        W98820  19.280  18.709  13.714
94860W        W98821  19.749  19.778  14.471
94861W        W98822  19.252  20.957  11.665
94862W        W98823  21.007  20.455  11.929
94863W        W98824  18.775  19.081  13.653
94864W        W98825  20.104  21.143  12.117
94865W        W98826  21.854  19.703  12.298
94866W        W98827  20.076  18.336  14.017
94867W        W98828  20.856  21.041  13.096
94868W        W98829  21.159  21.385  12.804
94869W        W98830  20.378  21.187  11.232
94870W        W98831  18.388  21.079  14.074
94871W        W98832  19.131  19.071  13.312
94872W        W98833  19.101  18.419  12.422
94873W        W98834  20.722  19.261  13.114
94874W        W98835  19.520  20.432  11.314
94875W        W98836  21.518  20.374  12.813
94876W        W98837  21.232  21.814  12.033
94877W        W98838  19.331  18.834  12.478
94878W        W98839  19.100  20.327  12.568
94879W        W98840  19.413  21.738  13.318
94880W        W98841  21.480  21.834  14.350
94881W        W98842  20.639  20.022  13.283
94882W        W98843  18.488  19.820  11.198
94883W        W98844  21.622  21.478  11.895
94884W        W98845  21.459  18.802  11.514
94885W        W98846  19.598  18.321  13.917
94886W        W98847  21.304  21.123  12.375
94887W        W98848  21.333  19.679  12.280
94888W        W98849  19.450  19.352  12.496
94889W        W98850  19.695  19.614  13.820
94890W        W98851  20.806  20.767  13.683
94891W        W98852  19.456  19.221  13.795
94892W        W98853  19.435  21.687  12.411
94893W        W98854  18.752  21.646  14.045
94894W        W98855  18.864  21.007  11.175
94895W        W98856  21.381  20.765  11.985
94896W        W98857  18.985  19.557  13.871
94897W        W98858  21.758  19.487  11.352
94898W        W98859  19.503  20.544  11.823
94899W        W98860  20.602  19.926  13.904
94900W        W98861  20.493  19.554  13.448
94901W        W98862  19.053  19.926  13.477
94902W        W98863  21.263  21.814  13.306
94903W        W98864  21.054  18.448  14.300
94904W        W98865  18.718  18.598  13.887
94905W        W98866  19.057  19.621  12.940
94906W        W98867  19.426  19.435  11.062
94907W        W98868  18.229  21.194  13.607
94908W        W98869  19.814  19.903  13.050
94909W        W98870  19.637  18.928  11.155
94910W        W98871  18.772  19.744  11.936
94911W        W98872  18.543  21.596  13.373
94912W        W98873  21.338  19.822  11.481
94913W        W98874  21.433  18.738  14.167
94914W        W98875  20.869  20.947  12.130
94915W        W98876  18.467  19.871  14.307
94916W        W98877  21.433  18.335  11.603
94917W        W98878  20.953  20.810  11.614
94918W        W98879  19.855  19.868  11.699
94919W        W98880  21.042  18.672  11.222
94920W        W98881  21.107  19.279  13.408
94921W        W98882  18.816  19.872  12.615
94922W        W98883  19.110  20.811  12.264
94923W        W98884  20.873  19.431  12.229
94924W        W98885  19.896  18.810  12.925
94925W        W98886  21.858  20.721  13.436
94926W        W98887  21.776  18.708  12.997
94927W        W98888  18.315  21.538  12.373
94928W        W98889  18.824  20.725  11.909
94929W        W98890  18.739  18.342  14.462
94930W        W98891  19.858  21.195  14.564
94931W        W98892  21.613  20.163  12.354
94932W        W98893  20.967  20.340  11.234
94933W        W98894  20.262  21.861  13.446
94934W        W98895  21.119  20.583  14.483
94935W        W98896  19.934  18.293  11.763
94936W        W98897  20.647  19.162  12.622
94937W        W98898  18.333  20.749  12.954
94938W        W98899  19.586  18.711  11.595
94939W        W98900  19.390  20.195  14.444
94940W        W98901  20.384  19.176  12.158
94941W        W98902  20.589  20.586  13.280
94942W        W98903  18.743  21.191  13.715
94943W        W98904  19.334  21.174  14.438
94944W        W98905  19.185  18.971  11.452
94945W        W98906  20.702  19.113  11.777
94946W        W98907  20.660  21.221  14.014
94947W        W98908  19.345  19.813  12.613
94948W        W98909  19.000  21.511  13.478
94949W        W98910  21.745  21.628  11.079
94950W        W98911  18.608  20.300  14.075
94951W        W98912  20.603  20.562  12.763
94952W        W98913  19.039  20.211  12.005
94953W        W98914  19.410  21.218  13.400
94954W        W98915  19.788  18.637  12.441
94955W        W98916  18.399  20.621  11.371
94956W        W98917  19.918  19.572  11.241
94957W        W98918  18.564  20.121  12.260
94958W        W98919  19.854  18.763  13.724
94959W        W98920  21.526  18.472  11.151
94960W        W98921  21.619  20.218  14.250
94961W        W98922  20.273  21.475  14.402
94962W        W98923  21.831  20.569  13.924
94963W        W98924  21.239  21.367  14.535
94964W        W98925  18.978  21.823  13.013
94965W        W98926  21.837  20.445  11.887
94966W        W98927  20.367  19.712  12.400
94967W        W98928  20.134  18.324  12.290
94968W        W98929  19.193  21.308  12.127
94969W        W98930  19.692  19.049  13.352
94970W        W98931  19.392  18.418  12.821
94971W        W98932  18.455  21.240  11.369
94972W        W98933  20.271  20.604  12.087
94973W        W98934  18.623  20.222  11.662
94974W        W98935  18.508  18.765  12.661
94975W        W98936  20.056  20.730  12.718
94976W        W98937  18.308  18.584  11.738
94977W        W98938  20.972  19.790  13.665
94978W        W98939  20.849  19.176  11.237
94979W        W98940  21.366  20.848  12.885
94980W        W98941  20.027  21.332  12.716
94981W        W98942  19.439  21.436  11.627
94982W        W98943  20.721  18.339  11.057
94983W        W98944  18.521  21.599  12.798
94984W        W98945  20.718  19.357  14.433
94985W        W98946  18.701  18.887  14.432
94986W        W98947  18.432  19.487  11.765
94987W        W98948  19.123  19.476  11.490
94988W        W98949  20.886  19.803  14.307
94989W        W98950  19.229  20.084  13.016
94990W        W98951  20.703  18.370  12.136
94991W        W98952  19.834  21.801  12.639
94992W        W98953  21.048  21.263  13.576
94993W        W98954  20.632  21.412  12.687
94994W        W98955  20.651  20.392  12.281
94995W        W98956  20.113  18.617  11.352
94996W        W98957  21.794  18.245  12.074
94997W        W98958  19.482  19.880  11.237
94998W        W98959  21.648  19.217  12.227
94999W        W98960  20.340  20.387  11.104
95000W        W98961  21.276  20.587  13.852
95001W        W98962  20.930  21.288  11.319
95002W        W98963  19.545  18.963  14.225
95003W        W98964  19.365  19.547  13.466
95004W        W98965  21.457  21.042  13.743
95005W        W98966  20.557  18.992  14.120
95006W        W98967  18.401  19.463  13.897
95007W        W98968  20.161  19.940  13.623
95008W        W98969  18.518  20.698  12.280
95009W        W98970  18.665  19.995  13.170
95010W        W98971  20.982  20.281  13.520
95011W        W98972  20.754  21.661  14.331
95012W        W98973  20.650  19.400  13.884
95013W        W98974  20.927  21.454  12.289
95014W        W98975  19.929  21.174  13.612
95015W        W98976  19.414  21.529  12.881
95016W        W98977  21.219  20.700  13.300
95017W        W98978  20.269  20.772  14.437
95018W        W98979  18.874  20.725  12.776
95019W        W98980  21.220  20.484  12.421
95020W        W98981  20.861  21.550  13.172
95021W        W98982  18.839  21.279  13.042
95022W        W98983  19.860  19.331  14.252
95023W        W98984  20.311  21.497  11.763
95024W        W98985  19.619  20.752  14.401
95025W        W98986  19.745  20.990  11.778
95026W        W98987  18.966  19.730  11.037
95027W        W98988  18.305  21.816  17.936
95028W        W98989  18.681  20.709  17.459
95029W        W98990  21.516  21.524  17.256
95030W        W98991  19.434  21.515  14.782
95031W        W98992  19.517  19.667  15.765
95032W        W98993  19.032  19.515  15.929
95033W        W98994  20.023  20.330  15.363
95034W        W98995  19.698  21.422  17.718
95035W        W98996  18.347  18.983  17.681
95036W        W98997  19.109  18.263  17.483
95037W        W98998  20.803  18.651  16.370
95038W        W98999  20.452  19.522  14.940
95039W        W99000  21.022  18.956  18.031
95040W        W99001  18.388  18.748  17.156
95041W        W99002  18.487  21.367  18.177
95042W        W99003  20.009  20.757  14.909
95043W        W99004  18.441  19.540  16.602
95044W        W99005  19.334  19.431  17.839
95045W        W99006  21.793  19.290  16.338
95046W        W99007  21.557  20.333  17.197
95047W        W99008  19.865  19.666  16.224
95048W        W99009  20.411  21.005  16.593
95049W        W99010  18.911  20.439  16.825
95050W        W99011  18.270  19.967  16.396
95051W        W99012  19.306  19.939  17.588
95052W        W99013  21.577  19.722  17.842
95053W        W99014  19.193  21.166  16.287
95054W        W99015  20.314  20.855  17.421
95055W        W99016  19.534  19.495  16.646
95056W        W99017  19.826  20.279  16.289
95057W        W99018  20.823  21.052  18.137
95058W        W99019  19.902  20.372  18.147
95059W        W99020  19.883  20.088  17.625
95060W        W99021  18.292  19.479  18.147
95061W        W99022  21.124  21.014  17.746
95062W        W99023  18.705  18.596  15.744
95063W        W99024  19.232  20.854  16.743
95064W        W99025  21.108  19.037  16.600
95065W        W99026  21.393  18.990  14.695
95066W        W99027  21.858  19.791  17.001
95067W        W99028  19.825  21.498  16.754
95068W        W99029  21.599  20.964  15.192
95069W        W99030  18.728  21.750  14.946
95070W        W99031  19.121  21.796  15.622
95071W        W99032  18.918  18.550  17.048
95072W        W99033  21.541  19.568  17.323
95073W        W99034  20.946  19.990  15.782
95074W        W99035  20.912  19.678  14.809
95075W        W99036  20.120  20.822  16.949
95076W        W99037  19.926  19.152  16.148
95077W        W99038  20.526  21.239  17.142
95078W        W99039  21.397  20.030  15.564
95079W        W99040  20.299  18.688  15.580
95080W        W99041  18.956  21.382  15.263
95081W        W99042  18.327  18.881  15.862
95082W        W99043  21.113  19.488  16.336
95083W        W99044  18.571  21.105  16.251
95084W        W99045  19.912  21.455  15.121
95085W        W99046  21.304  19.481  14.585
95086W        W99047  18.327  21.239  16.749
95087W        W99048  19.118  20.811  17.229
95088W        W99049  19.491  20.171  15.848
95089W        W99050  19.513  18.576  16.941
95090W        W99051  21.742  18.338  16.238
95091W        W99052  18.961  20.210  14.706
95092W        W99053  18.616  19.243  14.885
95093W        W99054  18.678  21.199  15.679
95094W        W99055  19.809  20.682  15.927
95095W        W99056  21.141  21.541  17.641
95096W        W99057  20.067  19.183  15.325
95097W        W99058  21.450  21.581  16.097
95098W        W99059  21.127  19.434  17.695
95099W        W99060  21.840  21.090  15.829
95100W        W99061  20.467  20.382  17.313
95101W        W99062  18.233  19.933  15.519
95102W        W99063  19.344  20.348  17.092
95103W        W99064  20.548  19.612  15.470
95104W        W99065  20.425  20.102  15.574
95105W        W99066  18.768  19.522  17.048
95106W        W99067  18.753  19.398  17.970
95107W        W99068  18.643  18.315  16.129
95108W        W99069  20.411  18.662  16.690
95109W        W99070  20.059  18.847  17.853
95110W        W99071  20.414  18.996  15.031
95111W        W99072  21.597  21.389  17.785
95112W        W99073  20.564  18.470  17.824
95113W        W99074  21.583  20.771  17.946
95114W        W99075  21.013  18.938  17.542
95115W        W99076  20.813  18.876  15.812
95116W        W99077  21.206  20.010  18.216
95117W        W99078  18.946  21.586  16.202
95118W        W99079  19.604  19.303  15.188
95119W        W99080  19.173  18.587  17.852
95120W        W99081  21.225  19.071  15.533
95121W        W99082  21.592  19.553  15.478
95122W        W99083  19.335  21.770  17.949
95123W        W99084  19.261  18.306  15.184
95124W        W99085  21.582  18.840  16.219
95125W        W99086  21.732  21.089  14.664
95126W        W99087  18.639  20.292  16.366
95127W        W99088  20.556  18.879  14.596
95128W        W99089  21.690  21.211  16.316
95129W        W99090  21.729  18.405  17.066
95130W        W99091  20.174  19.617  17.620
95131W        W99092  20.267  20.956  15.323
95132W        W99093  20.667  20.250  18.063
95133W        W99094  20.341  18.227  16.372
95134W        W99095  18.953  19.130  16.435
95135W        W99096  18.507  20.330  17.209
95136W        W99097  20.366  21.523  15.915
95137W        W99098  21.560  19.120  16.787
95138W        W99099  20.197  21.467  17.554
95139W        W99100  19.975  20.009  15.820
95140W        W99101  21.827  18.520  17.561
95141W        W99102  19.976  20.355  17.155
95142W        W99103  20.193  19.241  16.600
95143W        W99104  21.045  19.539  15.438
95144W        W99105  21.332  19.272  15.080
95145W        W99106  21.141  21.312  15.469
95146W        W99107  20.975  20.915  16.265
95147W        W99108  20.871  19.994  15.243
95148W        W99109  20.304  20.204  16.229
95149W        W99110  21.185  19.992  16.296
95150W        W99111  18.560  19.007  16.720
95151W        W99112  21.338  20.059  17.547
95152W        W99113  21.689  21.677  16.693
95153W        W99114  19.619  21.121  16.095
95154W        W99115  20.626  21.654  17.419
95155W        W99116  20.620  18.984  17.183
95156W        W99117  19.827  21.692  17.244
95157W        W99118  21.524  18.646  15.710
95158W        W99119  21.315  19.965  17.011
95159W        W99120  18.298  19.286  17.049
95160W        W99121  21.158  19.081  16.067
95161W        W99122  21.569  19.232  17.844
95162W        W99123  20.454  20.931  16.062
95163W        W99124  19.710  21.522  15.675
95164W        W99125  18.825  18.702  14.933
95165W        W99126  19.929  18.356  16.743
95166W        W99127  18.957  21.476  14.591
95167W        W99128  19.331  19.942  15.342
95168W        W99129  19.985  20.571  17.655
95169W        W99130  19.815  18.929  15.645
95170W        W99131  21.171  18.526  16.073
95171W        W99132  20.891  21.808  16.401
95172W        W99133  20.303  21.456  16.741
95173W        W99134  19.699  20.493  16.702
95174W        W99135  21.469  21.216  16.828
95175W        W99136  19.163  18.719  15.597
95176W        W99137  19.685  21.016  16.557
95177W        W99138  19.168  18.947  14.622
95178W        W99139  19.969  19.556  17.016
95179W        W99140  20.817  18.422  16.886
95180W        W99141  18.237  20.265  16.771
95181W        W99142  19.941  20.083  14.929
95182W        W99143  19.209  18.398  14.699
95183W        W99144  19.947  19.479  15.750
95184W        W99145  20.917  18.455  17.449
95185W        W99146  19.505  20.467  17.558
95186W        W99147  20.309  20.249  17.775
95187W        W99148  20.926  20.279  17.668
95188W        W99149  20.210  18.419  18.173
95189W        W99150  19.432  19.035  16.566
95190W        W99151  18.858  18.991  15.964
95191W        W99152  18.644  21.703  15.640
95192W        W99153  19.976  21.033  17.765
95193W        W99154  19.011  20.518  15.124
95194W        W99155  20.691  19.903  16.345
95195W        W99156  20.971  19.702  16.744
95196W        W99157  20.176  20.376  16.678
95197W        W99158  20.646  20.750  14.810
95198W        W99159  20.318  18.771  16.138
95199W        W99160  21.797  19.049  15.406
95200W        W99161  18.291  21.638  17.437
95201W        W99162  18.708  20.864  16.969
95202W        W99163  18.275  21.710  15.201
95203W        W99164  20.174  18.980  17.007
95204W        W99165  19.537  21.003  14.856
95205W        W99166  21.442  21.385  15.042
95206W        W99167  20.417  20.038  15.056
95207W        W99168  19.260  19.229  15.573
95208W        W99169  20.092  19.139  14.625
95209W        W99170  20.676  20.704  17.803
95210W        W99171  21.029  18.610  15.420
95211W        W99172  18.359  18.458  14.868
95212W        W99173  19.645  20.777  17.158
95213W        W99174  19.444  20.693  16.250
95214W        W99175  19.186  20.645  14.648
95215W        W99176  18.427  20.886  15.416
95216W        W99177  18.931  19.956  17.858
95217W        W99178  19.635  18.516  18.044
95218W        W99179  20.344  18.658  17.400
95219W        W99180  19.539  18.426  15.681
95220W        W99181  20.598  18.503  15.186
95221W        W99182  18.543  18.435  16.763
95222W        W99183  18.591  19.398  16.133
95223W        W99184  21.280  18.506  16.539
95224W        W99185  18.702  19.004  15.353
95225W        W99186  21.273  18.692  16.969
95226W        W99187  21.669  19.895  14.654
95227W        W99188  18.961  18.653  16.473
95228W        W99189  20.075  19.225  17.413
95229W        W99190  18.223  18.915  14.891
95230W        W99191  19.009  20.304  17.452
95231W        W99192  20.367  19.702  16.631
95232W        W99193  20.234  21.781  14.927
95233W        W99194  18.380  20.288  14.624
95234W        W99195  19.115  20.699  17.750
95235W        W99196  18.636  19.866  17.381
95236W        W99197  19.627  19.971  17.175
95237W        W99198  21.395  18.330  17.437
95238W        W99199  21.793  19.940  17.428
95239W        W99200  21.781  20.140  15.114
95240W        W99201  20.644  20.472  15.213
95241W        W99202  21.118  21.772  14.908
95242W        W99203  20.295  19.762  18.050
95243W        W99204  18.625  20.729  18.090
95244W        W99205  21.831  18.651  18.042
95245W        W99206  21.549  19.579  16.663
95246W        W99207  19.857  21.709  18.140
95247W        W99208  19.712  18.338  14.867
95248W        W99209  21.251  20.937  14.810
95249W        W99210  19.020  19.030  17.696
95250W        W99211  19.454  21.024  17.558
95251W        W99212  21.580  19.015  17.356
95252W        W99213  20.791  21.674  15.324
95253W        W99214  21.030  20.293  16.691
95254W        W99215  19.280  18.709  17.358
95255W        W99216  19.749  19.778  18.115
95256W        W99217  19.252  20.957  15.309
95257W        W99218  18.775  19.081  17.297
95258W        W99219  20.104  21.143  15.761
95259W        W99220  21.854  19.703  15.942
95260W        W99221  20.076  18.336  17.661
95261W        W99222  20.856  21.041  16.740
95262W        W99223  21.159  21.385  16.448
95263W        W99224  20.378  21.187  14.876
95264W        W99225  18.388  21.079  17.718
95265W        W99226  19.131  19.071  16.956
95266W        W99227  19.101  18.419  16.066
95267W        W99228  20.722  19.261  16.758
95268W        W99229  19.520  20.432  14.958
95269W        W99230  21.518  20.374  16.457
95270W        W99231  18.845  21.132  17.880
95271W        W99232  21.232  21.814  15.677
95272W        W99233  19.331  18.834  16.122
95273W        W99234  19.100  20.327  16.212
95274W        W99235  19.413  21.738  16.962
95275W        W99236  21.480  21.834  17.994
95276W        W99237  20.639  20.022  16.927
95277W        W99238  18.488  19.820  14.842
95278W        W99239  21.622  21.478  15.539
95279W        W99240  21.459  18.802  15.158
95280W        W99241  19.598  18.321  17.561
95281W        W99242  21.304  21.123  16.019
95282W        W99243  21.333  19.679  15.924
95283W        W99244  19.450  19.352  16.140
95284W        W99245  19.695  19.614  17.464
95285W        W99246  20.806  20.767  17.327
95286W        W99247  19.456  19.221  17.439
95287W        W99248  19.435  21.687  16.055
95288W        W99249  18.752  21.646  17.689
95289W        W99250  18.864  21.007  14.819
95290W        W99251  18.985  19.557  17.515
95291W        W99252  21.758  19.487  14.996
95292W        W99253  19.503  20.544  15.467
95293W        W99254  20.602  19.926  17.548
95294W        W99255  20.493  19.554  17.092
95295W        W99256  19.053  19.926  17.121
95296W        W99257  21.263  21.814  16.950
95297W        W99258  21.054  18.448  17.944
95298W        W99259  18.718  18.598  17.531
95299W        W99260  19.057  19.621  16.584
95300W        W99261  19.426  19.435  14.706
95301W        W99262  18.229  21.194  17.251
95302W        W99263  19.814  19.903  16.694
95303W        W99264  19.637  18.928  14.799
95304W        W99265  18.772  19.744  15.580
95305W        W99266  18.543  21.596  17.017
95306W        W99267  21.338  19.822  15.125
95307W        W99268  21.433  18.738  17.811
95308W        W99269  20.869  20.947  15.774
95309W        W99270  18.467  19.871  17.951
95310W        W99271  21.433  18.335  15.247
95311W        W99272  20.953  20.810  15.258
95312W        W99273  19.855  19.868  15.343
95313W        W99274  21.042  18.672  14.866
95314W        W99275  21.107  19.279  17.052
95315W        W99276  18.816  19.872  16.259
95316W        W99277  19.110  20.811  15.908
95317W        W99278  20.873  19.431  15.873
95318W        W99279  19.896  18.810  16.569
95319W        W99280  21.858  20.721  17.080
95320W        W99281  21.776  18.708  16.641
95321W        W99282  18.315  21.538  16.017
95322W        W99283  18.824  20.725  15.553
95323W        W99284  18.739  18.342  18.106
95324W        W99285  19.858  21.195  18.208
95325W        W99286  20.967  20.340  14.878
95326W        W99287  20.262  21.861  17.090
95327W        W99288  21.119  20.583  18.127
95328W        W99289  19.934  18.293  15.407
95329W        W99290  20.647  19.162  16.266
95330W        W99291  18.333  20.749  16.598
95331W        W99292  19.586  18.711  15.239
95332W        W99293  19.390  20.195  18.088
95333W        W99294  20.384  19.176  15.802
95334W        W99295  20.589  20.586  16.924
95335W        W99296  18.743  21.191  17.359
95336W        W99297  19.334  21.174  18.082
95337W        W99298  19.185  18.971  15.096
95338W        W99299  20.702  19.113  15.421
95339W        W99300  20.660  21.221  17.658
95340W        W99301  19.345  19.813  16.257
95341W        W99302  19.000  21.511  17.122
95342W        W99303  21.745  21.628  14.723
95343W        W99304  18.608  20.300  17.719
95344W        W99305  20.603  20.562  16.407
95345W        W99306  19.039  20.211  15.649
95346W        W99307  19.410  21.218  17.044
95347W        W99308  19.788  18.637  16.085
95348W        W99309  18.399  20.621  15.015
95349W        W99310  19.918  19.572  14.885
95350W        W99311  18.564  20.121  15.904
95351W        W99312  19.854  18.763  17.368
95352W        W99313  21.526  18.472  14.795
95353W        W99314  21.619  20.218  17.894
95354W        W99315  20.273  21.475  18.046
95355W        W99316  21.831  20.569  17.568
95356W        W99317  21.239  21.367  18.179
95357W        W99318  18.978  21.823  16.657
95358W        W99319  21.837  20.445  15.531
95359W        W99320  20.367  19.712  16.044
95360W        W99321  20.134  18.324  15.934
95361W        W99322  19.193  21.308  15.771
95362W        W99323  19.692  19.049  16.996
95363W        W99324  19.392  18.418  16.465
95364W        W99325  18.455  21.240  15.013
95365W        W99326  20.271  20.604  15.731
95366W        W99327  19.146  21.399  17.610
95367W        W99328  18.623  20.222  15.306
95368W        W99329  18.508  18.765  16.305
95369W        W99330  20.056  20.730  16.362
95370W        W99331  18.308  18.584  15.382
95371W        W99332  20.972  19.790  17.309
95372W        W99333  20.849  19.176  14.881
95373W        W99334  21.366  20.848  16.529
95374W        W99335  20.027  21.332  16.360
95375W        W99336  19.439  21.436  15.271
95376W        W99337  20.721  18.339  14.701
95377W        W99338  18.521  21.599  16.442
95378W        W99339  20.718  19.357  18.077
95379W        W99340  18.701  18.887  18.076
95380W        W99341  18.432  19.487  15.409
95381W        W99342  19.123  19.476  15.134
95382W        W99343  20.886  19.803  17.951
95383W        W99344  19.229  20.084  16.660
95384W        W99345  20.703  18.370  15.780
95385W        W99346  19.834  21.801  16.283
95386W        W99347  21.048  21.263  17.220
95387W        W99348  20.632  21.412  16.331
95388W        W99349  20.651  20.392  15.925
95389W        W99350  20.113  18.617  14.996
95390W        W99351  21.794  18.245  15.718
95391W        W99352  19.482  19.880  14.881
95392W        W99353  21.648  19.217  15.871
95393W        W99354  20.340  20.387  14.748
95394W        W99355  21.276  20.587  17.496
95395W        W99356  20.930  21.288  14.963
95396W        W99357  19.545  18.963  17.869
95397W        W99358  19.365  19.547  17.110
95398W        W99359  21.457  21.042  17.387
95399W        W99360  20.557  18.992  17.764
95400W        W99361  18.401  19.463  17.541
95401W        W99362  20.161  19.940  17.267
95402W        W99363  18.518  20.698  15.924
95403W        W99364  18.665  19.995  16.814
95404W        W99365  20.982  20.281  17.164
95405W        W99366  20.754  21.661  17.975
95406W        W99367  20.650  19.400  17.528
95407W        W99368  20.927  21.454  15.933
95408W        W99369  19.929  21.174  17.256
95409W        W99370  19.414  21.529  16.525
95410W        W99371  21.219  20.700  16.944
95411W        W99372  20.269  20.772  18.081
95412W        W99373  18.874  20.725  16.420
95413W        W99374  21.220  20.484  16.065
95414W        W99375  20.861  21.550  16.816
95415W        W99376  18.839  21.279  16.686
95416W        W99377  19.860  19.331  17.896
95417W        W99378  20.311  21.497  15.407
95418W        W99379  19.619  20.752  18.045
95419W        W99380  19.745  20.990  15.422
95420W        W99381  18.966  19.730  14.681
95421W        W99382  18.305  21.816  21.580
95422W        W99383  18.681  20.709  21.103
95423W        W99384  21.386  20.439  18.873
95424W        W99385  21.516  21.524  20.900
95425W        W99386  19.434  21.515  18.426
95426W        W99387  19.517  19.667  19.409
95427W        W99388  19.032  19.515  19.573
95428W        W99389  20.023  20.330  19.007
95429W        W99390  19.698  21.422  21.362
95430W        W99391  18.347  18.983  21.325
95431W        W99392  19.109  18.263  21.127
95432W        W99393  20.803  18.651  20.014
95433W        W99394  20.452  19.522  18.584
95434W        W99395  21.022  18.956  21.675
95435W        W99396  18.388  18.748  20.800
95436W        W99397  18.487  21.367  21.821
95437W        W99398  20.009  20.757  18.553
95438W        W99399  18.441  19.540  20.246
95439W        W99400  19.334  19.431  21.483
95440W        W99401  21.793  19.290  19.982
95441W        W99402  21.557  20.333  20.841
95442W        W99403  19.865  19.666  19.868
95443W        W99404  20.411  21.005  20.237
95444W        W99405  18.911  20.439  20.469
95445W        W99406  18.270  19.967  20.040
95446W        W99407  19.306  19.939  21.232
95447W        W99408  21.577  19.722  21.486
95448W        W99409  19.193  21.166  19.931
95449W        W99410  20.314  20.855  21.065
95450W        W99411  19.534  19.495  20.290
95451W        W99412  19.826  20.279  19.933
95452W        W99413  20.823  21.052  21.781
95453W        W99414  19.902  20.372  21.791
95454W        W99415  19.883  20.088  21.269
95455W        W99416  18.292  19.479  21.791
95456W        W99417  21.124  21.014  21.390
95457W        W99418  18.705  18.596  19.388
95458W        W99419  19.232  20.854  20.387
95459W        W99420  21.695  20.637  19.677
95460W        W99421  21.108  19.037  20.244
95461W        W99422  21.393  18.990  18.339
95462W        W99423  21.858  19.791  20.645
95463W        W99424  19.825  21.498  20.398
95464W        W99425  21.599  20.964  18.836
95465W        W99426  18.728  21.750  18.590
95466W        W99427  19.121  21.796  19.266
95467W        W99428  18.918  18.550  20.692
95468W        W99429  21.541  19.568  20.967
95469W        W99430  20.946  19.990  19.426
95470W        W99431  20.912  19.678  18.453
95471W        W99432  20.120  20.822  20.593
95472W        W99433  19.926  19.152  19.792
95473W        W99434  20.526  21.239  20.786
95474W        W99435  21.397  20.030  19.208
95475W        W99436  20.299  18.688  19.224
95476W        W99437  18.956  21.382  18.907
95477W        W99438  18.327  18.881  19.506
95478W        W99439  21.113  19.488  19.980
95479W        W99440  18.571  21.105  19.895
95480W        W99441  19.912  21.455  18.765
95481W        W99442  21.304  19.481  18.229
95482W        W99443  18.327  21.239  20.393
95483W        W99444  19.118  20.811  20.873
95484W        W99445  19.491  20.171  19.492
95485W        W99446  19.513  18.576  20.585
95486W        W99447  21.742  18.338  19.882
95487W        W99448  18.961  20.210  18.350
95488W        W99449  18.616  19.243  18.529
95489W        W99450  18.678  21.199  19.323
95490W        W99451  19.809  20.682  19.571
95491W        W99452  21.141  21.541  21.285
95492W        W99453  20.067  19.183  18.969
95493W        W99454  21.450  21.581  19.741
95494W        W99455  21.127  19.434  21.339
95495W        W99456  21.840  21.090  19.473
95496W        W99457  20.467  20.382  20.957
95497W        W99458  18.233  19.933  19.163
95498W        W99459  19.344  20.348  20.736
95499W        W99460  20.548  19.612  19.114
95500W        W99461  20.425  20.102  19.218
95501W        W99462  18.768  19.522  20.692
95502W        W99463  18.753  19.398  21.614
95503W        W99464  18.643  18.315  19.773
95504W        W99465  20.411  18.662  20.334
95505W        W99466  20.059  18.847  21.497
95506W        W99467  20.414  18.996  18.675
95507W        W99468  21.597  21.389  21.429
95508W        W99469  20.564  18.470  21.468
95509W        W99470  21.583  20.771  21.590
95510W        W99471  21.013  18.938  21.186
95511W        W99472  20.813  18.876  19.456
95512W        W99473  21.206  20.010  21.860
95513W        W99474  18.946  21.586  19.846
95514W        W99475  19.604  19.303  18.832
95515W        W99476  19.173  18.587  21.496
95516W        W99477  21.225  19.071  19.177
95517W        W99478  21.592  19.553  19.122
95518W        W99479  19.335  21.770  21.593
95519W        W99480  19.261  18.306  18.828
95520W        W99481  21.582  18.840  19.863
95521W        W99482  21.732  21.089  18.308
95522W        W99483  18.639  20.292  20.010
95523W        W99484  20.556  18.879  18.240
95524W        W99485  21.690  21.211  19.960
95525W        W99486  21.729  18.405  20.710
95526W        W99487  20.174  19.617  21.264
95527W        W99488  20.267  20.956  18.967
95528W        W99489  20.667  20.250  21.707
95529W        W99490  20.341  18.227  20.016
95530W        W99491  18.953  19.130  20.079
95531W        W99492  18.507  20.330  20.853
95532W        W99493  20.366  21.523  19.559
95533W        W99494  21.560  19.120  20.431
95534W        W99495  20.197  21.467  21.198
95535W        W99496  21.540  20.526  18.403
95536W        W99497  19.975  20.009  19.464
95537W        W99498  21.827  18.520  21.205
95538W        W99499  19.976  20.355  20.799
95539W        W99500  20.193  19.241  20.244
95540W        W99501  21.045  19.539  19.082
95541W        W99502  21.332  19.272  18.724
95542W        W99503  21.141  21.312  19.113
95543W        W99504  20.975  20.915  19.909
95544W        W99505  20.871  19.994  18.887
95545W        W99506  20.304  20.204  19.873
95546W        W99507  21.185  19.992  19.940
95547W        W99508  18.560  19.007  20.364
95548W        W99509  21.338  20.059  21.191
95549W        W99510  21.689  21.677  20.337
95550W        W99511  19.619  21.121  19.739
95551W        W99512  20.626  21.654  21.063
95552W        W99513  20.620  18.984  20.827
95553W        W99514  19.827  21.692  20.888
95554W        W99515  21.524  18.646  19.354
95555W        W99516  21.315  19.965  20.655
95556W        W99517  18.298  19.286  20.693
95557W        W99518  21.158  19.081  19.711
95558W        W99519  21.569  19.232  21.488
95559W        W99520  20.454  20.931  19.706
95560W        W99521  19.710  21.522  19.319
95561W        W99522  18.825  18.702  18.577
95562W        W99523  19.929  18.356  20.387
95563W        W99524  18.957  21.476  18.235
95564W        W99525  19.331  19.942  18.986
95565W        W99526  19.985  20.571  21.299
95566W        W99527  19.815  18.929  19.289
95567W        W99528  21.171  18.526  19.717
95568W        W99529  20.891  21.808  20.045
95569W        W99530  20.303  21.456  20.385
95570W        W99531  19.699  20.493  20.346
95571W        W99532  21.469  21.216  20.472
95572W        W99533  19.163  18.719  19.241
95573W        W99534  19.685  21.016  20.201
95574W        W99535  19.168  18.947  18.266
95575W        W99536  19.969  19.556  20.660
95576W        W99537  20.817  18.422  20.530
95577W        W99538  18.237  20.265  20.415
95578W        W99539  19.941  20.083  18.573
95579W        W99540  19.209  18.398  18.343
95580W        W99541  19.947  19.479  19.394
95581W        W99542  20.917  18.455  21.093
95582W        W99543  19.505  20.467  21.202
95583W        W99544  20.309  20.249  21.419
95584W        W99545  20.926  20.279  21.312
95585W        W99546  20.210  18.419  21.817
95586W        W99547  19.432  19.035  20.210
95587W        W99548  18.858  18.991  19.608
95588W        W99549  18.644  21.703  19.284
95589W        W99550  19.976  21.033  21.409
95590W        W99551  19.011  20.518  18.768
95591W        W99552  20.691  19.903  19.989
95592W        W99553  20.971  19.702  20.388
95593W        W99554  20.176  20.376  20.322
95594W        W99555  20.646  20.750  18.454
95595W        W99556  20.318  18.771  19.782
95596W        W99557  21.797  19.049  19.050
95597W        W99558  18.291  21.638  21.081
95598W        W99559  18.708  20.864  20.613
95599W        W99560  18.275  21.710  18.845
95600W        W99561  20.174  18.980  20.651
95601W        W99562  19.537  21.003  18.500
95602W        W99563  21.442  21.385  18.686
95603W        W99564  20.417  20.038  18.700
95604W        W99565  19.260  19.229  19.217
95605W        W99566  20.092  19.139  18.269
95606W        W99567  20.676  20.704  21.447
95607W        W99568  21.029  18.610  19.064
95608W        W99569  18.359  18.458  18.512
95609W        W99570  19.645  20.777  20.802
95610W        W99571  19.444  20.693  19.894
95611W        W99572  19.186  20.645  18.292
95612W        W99573  18.427  20.886  19.060
95613W        W99574  18.931  19.956  21.502
95614W        W99575  19.635  18.516  21.688
95615W        W99576  20.344  18.658  21.044
95616W        W99577  19.539  18.426  19.325
95617W        W99578  20.598  18.503  18.830
95618W        W99579  18.543  18.435  20.407
95619W        W99580  18.591  19.398  19.777
95620W        W99581  21.280  18.506  20.183
95621W        W99582  18.702  19.004  18.997
95622W        W99583  21.273  18.692  20.613
95623W        W99584  21.669  19.895  18.298
95624W        W99585  18.961  18.653  20.117
95625W        W99586  20.075  19.225  21.057
95626W        W99587  18.223  18.915  18.535
95627W        W99588  19.009  20.304  21.096
95628W        W99589  20.367  19.702  20.275
95629W        W99590  20.234  21.781  18.571
95630W        W99591  18.380  20.288  18.268
95631W        W99592  19.115  20.699  21.394
95632W        W99593  18.636  19.866  21.025
95633W        W99594  19.627  19.971  20.819
95634W        W99595  21.395  18.330  21.081
95635W        W99596  21.793  19.940  21.072
95636W        W99597  21.781  20.140  18.758
95637W        W99598  20.644  20.472  18.857
95638W        W99599  21.118  21.772  18.552
95639W        W99600  20.295  19.762  21.694
95640W        W99601  18.625  20.729  21.734
95641W        W99602  21.831  18.651  21.686
95642W        W99603  21.549  19.579  20.307
95643W        W99604  19.857  21.709  21.784
95644W        W99605  19.712  18.338  18.511
95645W        W99606  21.251  20.937  18.454
95646W        W99607  19.020  19.030  21.340
95647W        W99608  19.454  21.024  21.202
95648W        W99609  21.580  19.015  21.000
95649W        W99610  20.791  21.674  18.968
95650W        W99611  21.030  20.293  20.335
95651W        W99612  19.280  18.709  21.002
95652W        W99613  19.749  19.778  21.759
95653W        W99614  19.252  20.957  18.953
95654W        W99615  21.007  20.455  19.217
95655W        W99616  18.775  19.081  20.941
95656W        W99617  20.104  21.143  19.405
95657W        W99618  21.854  19.703  19.586
95658W        W99619  20.076  18.336  21.305
95659W        W99620  20.856  21.041  20.384
95660W        W99621  21.159  21.385  20.092
95661W        W99622  20.378  21.187  18.520
95662W        W99623  18.388  21.079  21.362
95663W        W99624  19.131  19.071  20.600
95664W        W99625  19.101  18.419  19.710
95665W        W99626  20.722  19.261  20.402
95666W        W99627  19.520  20.432  18.602
95667W        W99628  21.518  20.374  20.101
95668W        W99629  18.845  21.132  21.524
95669W        W99630  21.232  21.814  19.321
95670W        W99631  19.331  18.834  19.766
95671W        W99632  19.100  20.327  19.856
95672W        W99633  19.413  21.738  20.606
95673W        W99634  21.480  21.834  21.638
95674W        W99635  20.639  20.022  20.571
95675W        W99636  18.488  19.820  18.486
95676W        W99637  21.622  21.478  19.183
95677W        W99638  21.459  18.802  18.802
95678W        W99639  19.598  18.321  21.205
95679W        W99640  21.304  21.123  19.663
95680W        W99641  21.333  19.679  19.568
95681W        W99642  19.450  19.352  19.784
95682W        W99643  19.695  19.614  21.108
95683W        W99644  20.806  20.767  20.971
95684W        W99645  19.456  19.221  21.083
95685W        W99646  19.435  21.687  19.699
95686W        W99647  18.752  21.646  21.333
95687W        W99648  18.864  21.007  18.463
95688W        W99649  21.381  20.765  19.273
95689W        W99650  18.985  19.557  21.159
95690W        W99651  21.758  19.487  18.640
95691W        W99652  19.503  20.544  19.111
95692W        W99653  20.602  19.926  21.192
95693W        W99654  20.493  19.554  20.736
95694W        W99655  19.053  19.926  20.765
95695W        W99656  21.263  21.814  20.594
95696W        W99657  21.054  18.448  21.588
95697W        W99658  18.718  18.598  21.175
95698W        W99659  19.057  19.621  20.228
95699W        W99660  19.426  19.435  18.350
95700W        W99661  18.229  21.194  20.895
95701W        W99662  19.814  19.903  20.338
95702W        W99663  19.637  18.928  18.443
95703W        W99664  18.772  19.744  19.224
95704W        W99665  18.543  21.596  20.661
95705W        W99666  21.338  19.822  18.769
95706W        W99667  21.433  18.738  21.455
95707W        W99668  20.869  20.947  19.418
95708W        W99669  18.467  19.871  21.595
95709W        W99670  21.433  18.335  18.891
95710W        W99671  20.953  20.810  18.902
95711W        W99672  19.855  19.868  18.987
95712W        W99673  21.042  18.672  18.510
95713W        W99674  21.107  19.279  20.696
95714W        W99675  18.816  19.872  19.903
95715W        W99676  19.110  20.811  19.552
95716W        W99677  20.873  19.431  19.517
95717W        W99678  19.896  18.810  20.213
95718W        W99679  21.858  20.721  20.724
95719W        W99680  21.776  18.708  20.285
95720W        W99681  18.315  21.538  19.661
95721W        W99682  18.824  20.725  19.197
95722W        W99683  19.858  21.195  21.852
95723W        W99684  21.613  20.163  19.642
95724W        W99685  20.967  20.340  18.522
95725W        W99686  20.262  21.861  20.734
95726W        W99687  21.119  20.583  21.771
95727W        W99688  19.934  18.293  19.051
95728W        W99689  20.647  19.162  19.910
95729W        W99690  18.333  20.749  20.242
95730W        W99691  19.586  18.711  18.883
95731W        W99692  19.390  20.195  21.732
95732W        W99693  20.384  19.176  19.446
95733W        W99694  20.589  20.586  20.568
95734W        W99695  18.743  21.191  21.003
95735W        W99696  19.334  21.174  21.726
95736W        W99697  19.185  18.971  18.740
95737W        W99698  20.702  19.113  19.065
95738W        W99699  20.660  21.221  21.302
95739W        W99700  19.345  19.813  19.901
95740W        W99701  19.000  21.511  20.766
95741W        W99702  21.745  21.628  18.367
95742W        W99703  18.608  20.300  21.363
95743W        W99704  20.603  20.562  20.051
95744W        W99705  19.039  20.211  19.293
95745W        W99706  19.410  21.218  20.688
95746W        W99707  19.788  18.637  19.729
95747W        W99708  18.399  20.621  18.659
95748W        W99709  19.918  19.572  18.529
95749W        W99710  18.564  20.121  19.548
95750W        W99711  19.854  18.763  21.012
95751W        W99712  21.526  18.472  18.439
95752W        W99713  21.619  20.218  21.538
95753W        W99714  20.273  21.475  21.690
95754W        W99715  21.831  20.569  21.212
95755W        W99716  21.239  21.367  21.823
95756W        W99717  18.978  21.823  20.301
95757W        W99718  21.837  20.445  19.175
95758W        W99719  20.367  19.712  19.688
95759W        W99720  20.134  18.324  19.578
95760W        W99721  19.193  21.308  19.415
95761W        W99722  19.692  19.049  20.640
95762W        W99723  19.392  18.418  20.109
95763W        W99724  18.455  21.240  18.657
95764W        W99725  20.271  20.604  19.375
95765W        W99726  19.146  21.399  21.254
95766W        W99727  18.623  20.222  18.950
95767W        W99728  18.508  18.765  19.949
95768W        W99729  20.056  20.730  20.006
95769W        W99730  18.308  18.584  19.026
95770W        W99731  20.972  19.790  20.953
95771W        W99732  20.849  19.176  18.525
95772W        W99733  21.366  20.848  20.173
95773W        W99734  20.027  21.332  20.004
95774W        W99735  19.439  21.436  18.915
95775W        W99736  20.721  18.339  18.345
95776W        W99737  18.521  21.599  20.086
95777W        W99738  20.718  19.357  21.721
95778W        W99739  18.432  19.487  19.053
95779W        W99740  19.123  19.476  18.778
95780W        W99741  20.886  19.803  21.595
95781W        W99742  19.229  20.084  20.304
95782W        W99743  20.703  18.370  19.424
95783W        W99744  19.834  21.801  19.927
95784W        W99745  21.048  21.263  20.864
95785W        W99746  20.632  21.412  19.975
95786W        W99747  20.651  20.392  19.569
95787W        W99748  20.113  18.617  18.640
95788W        W99749  21.794  18.245  19.362
95789W        W99750  19.482  19.880  18.525
95790W        W99751  21.648  19.217  19.515
95791W        W99752  20.340  20.387  18.392
95792W        W99753  21.276  20.587  21.140
95793W        W99754  20.930  21.288  18.607
95794W        W99755  19.545  18.963  21.513
95795W        W99756  19.365  19.547  20.754
95796W        W99757  21.457  21.042  21.031
95797W        W99758  20.557  18.992  21.408
95798W        W99759  18.401  19.463  21.185
95799W        W99760  20.161  19.940  20.911
95800W        W99761  18.518  20.698  19.568
95801W        W99762  18.665  19.995  20.458
95802W        W99763  20.982  20.281  20.808
95803W        W99764  20.754  21.661  21.619
95804W        W99765  20.650  19.400  21.172
95805W        W99766  20.927  21.454  19.577
95806W        W99767  19.929  21.174  20.900
95807W        W99768  19.414  21.529  20.169
95808W        W99769  21.219  20.700  20.588
95809W        W99770  20.269  20.772  21.725
95810W        W99771  18.874  20.725  20.064
95811W        W99772  21.220  20.484  19.709
95812W        W99773  20.861  21.550  20.460
95813W        W99774  18.839  21.279  20.330
95814W        W99775  19.860  19.331  21.540
95815W        W99776  20.311  21.497  19.051
95816W        W99777  19.619  20.752  21.689
95817W        W99778  19.745  20.990  19.066
95818W        W99779  18.966  19.730  18.325
95819W        W99780  21.386  20.439  22.518
95820W        W99781  19.434  21.515  22.071
95821W        W99782  19.517  19.667  23.054
95822W        W99783  19.032  19.515  23.218
95823W        W99784  20.023  20.330  22.652
95824W        W99785  20.452  19.522  22.229
95825W        W99786  20.009  20.757  22.198
95826W        W99787  18.705  18.596  23.033
95827W        W99788  21.393  18.990  21.984
95828W        W99789  21.599  20.964  22.481
95829W        W99790  18.728  21.750  22.235
95830W        W99791  19.121  21.796  22.911
95831W        W99792  20.946  19.990  23.071
95832W        W99793  20.912  19.678  22.098
95833W        W99794  21.397  20.030  22.853
95834W        W99795  20.299  18.688  22.869
95835W        W99796  18.956  21.382  22.552
95836W        W99797  19.912  21.455  22.410
95837W        W99798  21.304  19.481  21.874
95838W        W99799  19.491  20.171  23.137
95839W        W99800  18.961  20.210  21.995
95840W        W99801  18.616  19.243  22.174
95841W        W99802  18.678  21.199  22.968
95842W        W99803  19.809  20.682  23.216
95843W        W99804  20.067  19.183  22.614
95844W        W99805  18.233  19.933  22.808
95845W        W99806  20.548  19.612  22.759
95846W        W99807  20.425  20.102  22.863
95847W        W99808  20.414  18.996  22.320
95848W        W99809  20.813  18.876  23.101
95849W        W99810  19.604  19.303  22.477
95850W        W99811  21.225  19.071  22.822
95851W        W99812  21.592  19.553  22.767
95852W        W99813  19.261  18.306  22.473
95853W        W99814  21.732  21.089  21.953
95854W        W99815  20.556  18.879  21.885
95855W        W99816  20.267  20.956  22.612
95856W        W99817  20.366  21.523  23.204
95857W        W99818  21.540  20.526  22.048
95858W        W99819  19.975  20.009  23.109
95859W        W99820  21.045  19.539  22.727
95860W        W99821  21.332  19.272  22.369
95861W        W99822  21.141  21.312  22.758
95862W        W99823  20.871  19.994  22.532
95863W        W99824  21.524  18.646  22.999
95864W        W99825  19.710  21.522  22.964
95865W        W99826  18.825  18.702  22.222
95866W        W99827  18.957  21.476  21.880
95867W        W99828  19.331  19.942  22.631
95868W        W99829  19.815  18.929  22.934
95869W        W99830  19.163  18.719  22.886
95870W        W99831  19.168  18.947  21.911
95871W        W99832  19.941  20.083  22.218
95872W        W99833  19.209  18.398  21.988
95873W        W99834  19.947  19.479  23.039
95874W        W99835  18.858  18.991  23.253
95875W        W99836  18.644  21.703  22.929
95876W        W99837  19.011  20.518  22.413
95877W        W99838  20.646  20.750  22.099
95878W        W99839  21.797  19.049  22.695
95879W        W99840  18.275  21.710  22.490
95880W        W99841  19.537  21.003  22.145
95881W        W99842  21.442  21.385  22.331
95882W        W99843  20.417  20.038  22.345
95883W        W99844  19.260  19.229  22.862
95884W        W99845  20.092  19.139  21.914
95885W        W99846  21.029  18.610  22.709
95886W        W99847  18.359  18.458  22.157
95887W        W99848  19.186  20.645  21.937
95888W        W99849  18.427  20.886  22.705
95889W        W99850  19.539  18.426  22.970
95890W        W99851  20.598  18.503  22.475
95891W        W99852  18.702  19.004  22.642
95892W        W99853  21.669  19.895  21.943
95893W        W99854  18.223  18.915  22.180
95894W        W99855  20.234  21.781  22.216
95895W        W99856  18.380  20.288  21.913
95896W        W99857  21.781  20.140  22.403
95897W        W99858  20.644  20.472  22.502
95898W        W99859  21.118  21.772  22.197
95899W        W99860  19.712  18.338  22.156
95900W        W99861  21.251  20.937  22.099
95901W        W99862  20.791  21.674  22.613
95902W        W99863  19.252  20.957  22.598
95903W        W99864  21.007  20.455  22.862
95904W        W99865  20.104  21.143  23.050
95905W        W99866  21.854  19.703  23.231
95906W        W99867  20.378  21.187  22.165
95907W        W99868  19.520  20.432  22.247
95908W        W99869  21.232  21.814  22.966
95909W        W99870  18.488  19.820  22.131
95910W        W99871  21.622  21.478  22.828
95911W        W99872  21.459  18.802  22.447
95912W        W99873  21.333  19.679  23.213
95913W        W99874  18.864  21.007  22.108
95914W        W99875  21.381  20.765  22.918
95915W        W99876  21.758  19.487  22.285
95916W        W99877  19.503  20.544  22.756
95917W        W99878  19.426  19.435  21.995
95918W        W99879  19.637  18.928  22.088
95919W        W99880  18.772  19.744  22.869
95920W        W99881  21.338  19.822  22.414
95921W        W99882  20.869  20.947  23.063
95922W        W99883  21.433  18.335  22.536
95923W        W99884  20.953  20.810  22.547
95924W        W99885  19.855  19.868  22.632
95925W        W99886  21.042  18.672  22.155
95926W        W99887  19.110  20.811  23.197
95927W        W99888  20.873  19.431  23.162
95928W        W99889  18.315  21.538  23.306
95929W        W99890  18.824  20.725  22.842
95930W        W99891  21.613  20.163  23.287
95931W        W99892  20.967  20.340  22.167
95932W        W99893  19.934  18.293  22.696
95933W        W99894  19.586  18.711  22.528
95934W        W99895  20.384  19.176  23.091
95935W        W99896  19.185  18.971  22.385
95936W        W99897  20.702  19.113  22.710
95937W        W99898  21.745  21.628  22.012
95938W        W99899  18.399  20.621  22.304
95939W        W99900  19.918  19.572  22.174
95940W        W99901  18.564  20.121  23.193
95941W        W99902  21.526  18.472  22.084
95942W        W99903  21.837  20.445  22.820
95943W        W99904  20.134  18.324  23.223
95944W        W99905  19.193  21.308  23.060
95945W        W99906  18.455  21.240  22.302
95946W        W99907  20.271  20.604  23.020
95947W        W99908  18.623  20.222  22.595
95948W        W99909  18.308  18.584  22.671
95949W        W99910  20.849  19.176  22.170
95950W        W99911  19.439  21.436  22.560
95951W        W99912  20.721  18.339  21.990
95952W        W99913  18.432  19.487  22.698
95953W        W99914  19.123  19.476  22.423
95954W        W99915  20.651  20.392  23.214
95955W        W99916  20.113  18.617  22.285
95956W        W99917  21.794  18.245  23.007
95957W        W99918  19.482  19.880  22.170
95958W        W99919  21.648  19.217  23.160
95959W        W99920  20.340  20.387  22.037
95960W        W99921  20.930  21.288  22.252
95961W        W99922  18.518  20.698  23.213
95962W        W99923  20.927  21.454  23.222
95963W        W99924  20.311  21.497  22.696
95964W        W99925  19.745  20.990  22.711
95965W        W99926  18.966  19.730  21.970
95966W        W99927  18.347  22.628   3.104
95967W        W99928  19.109  21.908   2.906
95968W        W99929  20.803  22.296   1.793
95969W        W99930  20.452  23.167   0.363
95970W        W99931  21.022  22.601   3.454
95971W        W99932  18.388  22.393   2.579
95972W        W99933  19.334  23.076   3.262
95973W        W99934  21.793  22.935   1.761
95974W        W99935  19.534  23.140   2.069
95975W        W99936  18.292  23.124   3.570
95976W        W99937  18.705  22.241   1.167
95977W        W99938  21.108  22.682   2.023
95978W        W99939  21.393  22.635   0.118
95979W        W99940  18.918  22.195   2.471
95980W        W99941  21.541  23.213   2.746
95981W        W99942  19.926  22.797   1.571
95982W        W99943  20.299  22.333   1.003
95983W        W99944  18.327  22.526   1.285
95984W        W99945  21.113  23.133   1.759
95985W        W99946  21.304  23.126   0.008
95986W        W99947  19.513  22.221   2.364
95987W        W99948  21.742  21.983   1.661
95988W        W99949  18.616  22.888   0.308
95989W        W99950  20.067  22.828   0.748
95990W        W99951  21.127  23.079   3.118
95991W        W99952  20.548  23.257   0.893
95992W        W99953  18.768  23.167   2.471
95993W        W99954  18.643  21.960   1.552
95994W        W99955  20.411  22.307   2.113
95995W        W99956  20.059  22.492   3.276
95996W        W99957  20.414  22.641   0.454
95997W        W99958  20.564  22.115   3.247
95998W        W99959  21.013  22.583   2.965
95999W        W99960  20.813  22.521   1.235
96000W        W99961  19.604  22.948   0.611
96001W        W99962  19.173  22.232   3.275
96002W        W99963  21.225  22.716   0.956
96003W        W99964  21.592  23.198   0.901
96004W        W99965  19.261  21.951   0.607
96005W        W99966  21.582  22.485   1.642
96006W        W99967  20.556  22.524   0.019
96007W        W99968  21.729  22.050   2.489
96008W        W99969  20.341  21.872   1.795
96009W        W99970  18.953  22.775   1.858
96010W        W99971  21.560  22.765   2.210
96011W        W99972  21.827  22.165   2.984
96012W        W99973  20.193  22.886   2.023
96013W        W99974  21.332  22.917   0.503
96014W        W99975  18.560  22.652   2.143
96015W        W99976  20.620  22.629   2.606
96016W        W99977  21.524  22.291   1.133
96017W        W99978  18.298  22.931   2.472
96018W        W99979  21.158  22.726   1.490
96019W        W99980  21.569  22.877   3.267
96020W        W99981  18.825  22.347   0.356
96021W        W99982  19.929  22.001   2.166
96022W        W99983  19.815  22.574   1.068
96023W        W99984  21.171  22.171   1.496
96024W        W99985  19.163  22.364   1.020
96025W        W99986  19.168  22.592   0.045
96026W        W99987  19.969  23.201   2.439
96027W        W99988  20.817  22.067   2.309
96028W        W99989  19.209  22.043   0.122
96029W        W99990  19.947  23.124   1.173
96030W        W99991  20.917  22.100   2.872
96031W        W99992  20.210  22.064   3.596
96032W        W99993  19.432  22.680   1.989
96033W        W99994  18.858  22.636   1.387
96034W        W99995  20.318  22.416   1.561
96035W        W99996  21.797  22.694   0.829
96036W        W99997  20.174  22.625   2.430
96037W        W99998  19.260  22.874   0.996
96038W        W99999  20.092  22.784   0.048
96039W        W    0  21.029  22.255   0.843
96040W        W    1  18.359  22.103   0.291
96041W        W    2  19.635  22.161   3.467
96042W        W    3  20.344  22.303   2.823
96043W        W    4  19.539  22.071   1.104
96044W        W    5  20.598  22.148   0.609
96045W        W    6  18.543  22.080   2.186
96046W        W    7  21.280  22.151   1.962
96047W        W    8  18.702  22.649   0.776
96048W        W    9  21.273  22.337   2.392
96049W        W   10  18.961  22.298   1.896
96050W        W   11  20.075  22.870   2.836
96051W        W   12  18.223  22.560   0.314
96052W        W   13  21.395  21.975   2.860
96053W        W   14  21.831  22.296   3.465
96054W        W   15  21.549  23.224   2.086
96055W        W   16  19.712  21.983   0.290
96056W        W   17  19.020  22.675   3.119
96057W        W   18  21.580  22.660   2.779
96058W        W   19  19.280  22.354   2.781
96059W        W   20  18.775  22.726   2.720
96060W        W   21  20.076  21.981   3.084
96061W        W   22  19.131  22.716   2.379
96062W        W   23  19.101  22.064   1.489
96063W        W   24  20.722  22.906   2.181
96064W        W   25  19.331  22.479   1.545
96065W        W   26  21.459  22.447   0.581
96066W        W   27  19.598  21.966   2.984
96067W        W   28  19.450  22.997   1.563
96068W        W   29  19.456  22.866   2.862
96069W        W   30  21.758  23.132   0.419
96070W        W   31  20.493  23.199   2.515
96071W        W   32  21.054  22.093   3.367
96072W        W   33  18.718  22.243   2.954
96073W        W   34  19.057  23.266   2.007
96074W        W   35  19.426  23.080   0.129
96075W        W   36  19.637  22.573   0.222
96076W        W   37  21.433  22.383   3.234
96077W        W   38  21.433  21.980   0.670
96078W        W   39  21.042  22.317   0.289
96079W        W   40  21.107  22.924   2.475
96080W        W   41  19.896  22.455   1.992
96081W        W   42  21.776  22.353   2.064
96082W        W   43  18.739  21.987   3.529
96083W        W   44  19.934  21.938   0.830
96084W        W   45  20.647  22.807   1.689
96085W        W   46  19.586  22.356   0.662
96086W        W   47  20.384  22.821   1.225
96087W        W   48  19.185  22.616   0.519
96088W        W   49  20.702  22.758   0.844
96089W        W   50  19.788  22.282   1.508
96090W        W   51  19.918  23.217   0.308
96091W        W   52  19.854  22.408   2.791
96092W        W   53  21.526  22.117   0.218
96093W        W   54  20.134  21.969   1.357
96094W        W   55  19.692  22.694   2.419
96095W        W   56  19.392  22.063   1.888
96096W        W   57  18.508  22.410   1.728
96097W        W   58  18.308  22.229   0.805
96098W        W   59  20.849  22.821   0.304
96099W        W   60  20.721  21.984   0.124
96100W        W   61  20.718  23.002   3.500
96101W        W   62  18.701  22.532   3.499
96102W        W   63  18.432  23.132   0.832
96103W        W   64  20.703  22.015   1.203
96104W        W   65  20.113  22.262   0.419
96105W        W   66  21.794  21.890   1.141
96106W        W   67  21.648  22.862   1.294
96107W        W   68  19.545  22.608   3.292
96108W        W   69  19.365  23.192   2.533
96109W        W   70  20.557  22.637   3.187
96110W        W   71  18.401  23.108   2.964
96111W        W   72  20.650  23.045   2.951
96112W        W   73  19.860  22.976   3.319
96113W        W   74  18.347  22.628   6.748
96114W        W   75  19.109  21.908   6.550
96115W        W   76  20.803  22.296   5.437
96116W        W   77  20.452  23.167   4.007
96117W        W   78  21.022  22.601   7.098
96118W        W   79  18.388  22.393   6.223
96119W        W   80  19.334  23.076   6.906
96120W        W   81  21.793  22.935   5.405
96121W        W   82  19.534  23.140   5.713
96122W        W   83  18.292  23.124   7.214
96123W        W   84  18.705  22.241   4.811
96124W        W   85  21.108  22.682   5.667
96125W        W   86  21.393  22.635   3.762
96126W        W   87  18.918  22.195   6.115
96127W        W   88  21.541  23.213   6.390
96128W        W   89  19.926  22.797   5.215
96129W        W   90  20.299  22.333   4.647
96130W        W   91  18.327  22.526   4.929
96131W        W   92  21.113  23.133   5.403
96132W        W   93  21.304  23.126   3.652
96133W        W   94  19.513  22.221   6.008
96134W        W   95  21.742  21.983   5.305
96135W        W   96  18.616  22.888   3.952
96136W        W   97  20.067  22.828   4.392
96137W        W   98  21.127  23.079   6.762
96138W        W   99  20.548  23.257   4.537
96139W        W  100  18.768  23.167   6.115
96140W        W  101  18.643  21.960   5.196
96141W        W  102  20.411  22.307   5.757
96142W        W  103  20.059  22.492   6.920
96143W        W  104  20.414  22.641   4.098
96144W        W  105  20.564  22.115   6.891
96145W        W  106  21.013  22.583   6.609
96146W        W  107  20.813  22.521   4.879
96147W        W  108  19.604  22.948   4.255
96148W        W  109  19.173  22.232   6.919
96149W        W  110  21.225  22.716   4.600
96150W        W  111  21.592  23.198   4.545
96151W        W  112  19.261  21.951   4.251
96152W        W  113  21.582  22.485   5.286
96153W        W  114  20.556  22.524   3.663
96154W        W  115  21.729  22.050   6.133
96155W        W  116  20.341  21.872   5.439
96156W        W  117  18.953  22.775   5.502
96157W        W  118  21.560  22.765   5.854
96158W        W  119  21.827  22.165   6.628
96159W        W  120  20.193  22.886   5.667
96160W        W  121  21.332  22.917   4.147
96161W        W  122  18.560  22.652   5.787
96162W        W  123  20.620  22.629   6.250
96163W        W  124  21.524  22.291   4.777
96164W        W  125  18.298  22.931   6.116
96165W        W  126  21.158  22.726   5.134
96166W        W  127  21.569  22.877   6.911
96167W        W  128  18.825  22.347   4.000
96168W        W  129  19.929  22.001   5.810
96169W        W  130  19.815  22.574   4.712
96170W        W  131  21.171  22.171   5.140
96171W        W  132  19.163  22.364   4.664
96172W        W  133  19.168  22.592   3.689
96173W        W  134  19.969  23.201   6.083
96174W        W  135  20.817  22.067   5.953
96175W        W  136  19.209  22.043   3.766
96176W        W  137  19.947  23.124   4.817
96177W        W  138  20.917  22.100   6.516
96178W        W  139  20.210  22.064   7.240
96179W        W  140  19.432  22.680   5.633
96180W        W  141  18.858  22.636   5.031
96181W        W  142  20.318  22.416   5.205
96182W        W  143  21.797  22.694   4.473
96183W        W  144  20.174  22.625   6.074
96184W        W  145  19.260  22.874   4.640
96185W        W  146  20.092  22.784   3.692
96186W        W  147  21.029  22.255   4.487
96187W        W  148  18.359  22.103   3.935
96188W        W  149  19.635  22.161   7.111
96189W        W  150  20.344  22.303   6.467
96190W        W  151  19.539  22.071   4.748
96191W        W  152  20.598  22.148   4.253
96192W        W  153  18.543  22.080   5.830
96193W        W  154  21.280  22.151   5.606
96194W        W  155  18.702  22.649   4.420
96195W        W  156  21.273  22.337   6.036
96196W        W  157  18.961  22.298   5.540
96197W        W  158  20.075  22.870   6.480
96198W        W  159  18.223  22.560   3.958
96199W        W  160  21.395  21.975   6.504
96200W        W  161  21.831  22.296   7.109
96201W        W  162  21.549  23.224   5.730
96202W        W  163  19.712  21.983   3.934
96203W        W  164  19.020  22.675   6.763
96204W        W  165  21.580  22.660   6.423
96205W        W  166  19.280  22.354   6.425
96206W        W  167  18.775  22.726   6.364
96207W        W  168  20.076  21.981   6.728
96208W        W  169  19.131  22.716   6.023
96209W        W  170  19.101  22.064   5.133
96210W        W  171  20.722  22.906   5.825
96211W        W  172  19.331  22.479   5.189
96212W        W  173  21.459  22.447   4.225
96213W        W  174  19.598  21.966   6.628
96214W        W  175  19.450  22.997   5.207
96215W        W  176  19.456  22.866   6.506
96216W        W  177  21.758  23.132   4.063
96217W        W  178  20.493  23.199   6.159
96218W        W  179  21.054  22.093   7.011
96219W        W  180  18.718  22.243   6.598
96220W        W  181  19.057  23.266   5.651
96221W        W  182  19.426  23.080   3.773
96222W        W  183  19.637  22.573   3.866
96223W        W  184  21.433  22.383   6.878
96224W        W  185  21.433  21.980   4.314
96225W        W  186  21.042  22.317   3.933
96226W        W  187  21.107  22.924   6.119
96227W        W  188  19.896  22.455   5.636
96228W        W  189  21.776  22.353   5.708
96229W        W  190  18.739  21.987   7.173
96230W        W  191  19.934  21.938   4.474
96231W        W  192  20.647  22.807   5.333
96232W        W  193  19.586  22.356   4.306
96233W        W  194  20.384  22.821   4.869
96234W        W  195  19.185  22.616   4.163
96235W        W  196  20.702  22.758   4.488
96236W        W  197  19.788  22.282   5.152
96237W        W  198  19.918  23.217   3.952
96238W        W  199  19.854  22.408   6.435
96239W        W  200  21.526  22.117   3.862
96240W        W  201  20.134  21.969   5.001
96241W        W  202  19.692  22.694   6.063
96242W        W  203  19.392  22.063   5.532
96243W        W  204  18.508  22.410   5.372
96244W        W  205  18.308  22.229   4.449
96245W        W  206  20.849  22.821   3.948
96246W        W  207  20.721  21.984   3.768
96247W        W  208  20.718  23.002   7.144
96248W        W  209  18.701  22.532   7.143
96249W        W  210  18.432  23.132   4.476
96250W        W  211  20.703  22.015   4.847
96251W        W  212  20.113  22.262   4.063
96252W        W  213  21.794  21.890   4.785
96253W        W  214  21.648  22.862   4.938
96254W        W  215  19.545  22.608   6.936
96255W        W  216  19.365  23.192   6.177
96256W        W  217  20.557  22.637   6.831
96257W        W  218  18.401  23.108   6.608
96258W        W  219  20.650  23.045   6.595
96259W        W  220  19.860  22.976   6.963
96260W        W  221  18.347  22.628  10.393
96261W        W  222  19.109  21.908  10.195
96262W        W  223  20.803  22.296   9.082
96263W        W  224  20.452  23.167   7.652
96264W        W  225  21.022  22.601  10.743
96265W        W  226  18.388  22.393   9.868
96266W        W  227  19.334  23.076  10.551
96267W        W  228  21.793  22.935   9.050
96268W        W  229  19.534  23.140   9.358
96269W        W  230  18.292  23.124  10.859
96270W        W  231  18.705  22.241   8.456
96271W        W  232  21.108  22.682   9.312
96272W        W  233  21.393  22.635   7.407
96273W        W  234  18.918  22.195   9.760
96274W        W  235  21.541  23.213  10.035
96275W        W  236  19.926  22.797   8.860
96276W        W  237  20.299  22.333   8.292
96277W        W  238  18.327  22.526   8.574
96278W        W  239  21.113  23.133   9.048
96279W        W  240  21.304  23.126   7.297
96280W        W  241  19.513  22.221   9.653
96281W        W  242  21.742  21.983   8.950
96282W        W  243  18.616  22.888   7.597
96283W        W  244  20.067  22.828   8.037
96284W        W  245  21.127  23.079  10.407
96285W        W  246  20.548  23.257   8.182
96286W        W  247  18.768  23.167   9.760
96287W        W  248  18.643  21.960   8.841
96288W        W  249  20.411  22.307   9.402
96289W        W  250  20.059  22.492  10.565
96290W        W  251  20.414  22.641   7.743
96291W        W  252  20.564  22.115  10.536
96292W        W  253  21.013  22.583  10.254
96293W        W  254  20.813  22.521   8.524
96294W        W  255  19.604  22.948   7.900
96295W        W  256  19.173  22.232  10.564
96296W        W  257  21.225  22.716   8.245
96297W        W  258  21.592  23.198   8.190
96298W        W  259  19.261  21.951   7.896
96299W        W  260  21.582  22.485   8.931
96300W        W  261  20.556  22.524   7.308
96301W        W  262  21.729  22.050   9.778
96302W        W  263  20.341  21.872   9.084
96303W        W  264  18.953  22.775   9.147
96304W        W  265  21.560  22.765   9.499
96305W        W  266  21.827  22.165  10.273
96306W        W  267  20.193  22.886   9.312
96307W        W  268  21.332  22.917   7.792
96308W        W  269  18.560  22.652   9.432
96309W        W  270  20.620  22.629   9.895
96310W        W  271  21.524  22.291   8.422
96311W        W  272  18.298  22.931   9.761
96312W        W  273  21.158  22.726   8.779
96313W        W  274  21.569  22.877  10.556
96314W        W  275  18.825  22.347   7.645
96315W        W  276  19.929  22.001   9.455
96316W        W  277  19.815  22.574   8.357
96317W        W  278  21.171  22.171   8.785
96318W        W  279  19.163  22.364   8.309
96319W        W  280  19.168  22.592   7.334
96320W        W  281  19.969  23.201   9.728
96321W        W  282  20.817  22.067   9.598
96322W        W  283  19.209  22.043   7.411
96323W        W  284  19.947  23.124   8.462
96324W        W  285  20.917  22.100  10.161
96325W        W  286  20.210  22.064  10.885
96326W        W  287  19.432  22.680   9.278
96327W        W  288  18.858  22.636   8.676
96328W        W  289  20.318  22.416   8.850
96329W        W  290  21.797  22.694   8.118
96330W        W  291  20.174  22.625   9.719
96331W        W  292  19.260  22.874   8.285
96332W        W  293  20.092  22.784   7.337
96333W        W  294  21.029  22.255   8.132
96334W        W  295  18.359  22.103   7.580
96335W        W  296  19.635  22.161  10.756
96336W        W  297  20.344  22.303  10.112
96337W        W  298  19.539  22.071   8.393
96338W        W  299  20.598  22.148   7.898
96339W        W  300  18.543  22.080   9.475
96340W        W  301  21.280  22.151   9.251
96341W        W  302  18.702  22.649   8.065
96342W        W  303  21.273  22.337   9.681
96343W        W  304  18.961  22.298   9.185
96344W        W  305  20.075  22.870  10.125
96345W        W  306  18.223  22.560   7.603
96346W        W  307  21.395  21.975  10.149
96347W        W  308  21.831  22.296  10.754
96348W        W  309  21.549  23.224   9.375
96349W        W  310  19.712  21.983   7.579
96350W        W  311  19.020  22.675  10.408
96351W        W  312  21.580  22.660  10.068
96352W        W  313  19.280  22.354  10.070
96353W        W  314  18.775  22.726  10.009
96354W        W  315  20.076  21.981  10.373
96355W        W  316  19.131  22.716   9.668
96356W        W  317  19.101  22.064   8.778
96357W        W  318  20.722  22.906   9.470
96358W        W  319  19.331  22.479   8.834
96359W        W  320  21.459  22.447   7.870
96360W        W  321  19.598  21.966  10.273
96361W        W  322  19.450  22.997   8.852
96362W        W  323  19.456  22.866  10.151
96363W        W  324  21.758  23.132   7.708
96364W        W  325  20.493  23.199   9.804
96365W        W  326  21.054  22.093  10.656
96366W        W  327  18.718  22.243  10.243
96367W        W  328  19.057  23.266   9.296
96368W        W  329  19.426  23.080   7.418
96369W        W  330  19.637  22.573   7.511
96370W        W  331  21.433  22.383  10.523
96371W        W  332  21.433  21.980   7.959
96372W        W  333  21.042  22.317   7.578
96373W        W  334  21.107  22.924   9.764
96374W        W  335  19.896  22.455   9.281
96375W        W  336  21.776  22.353   9.353
96376W        W  337  18.739  21.987  10.818
96377W        W  338  19.934  21.938   8.119
96378W        W  339  20.647  22.807   8.978
96379W        W  340  19.586  22.356   7.951
96380W        W  341  20.384  22.821   8.514
96381W        W  342  19.185  22.616   7.808
96382W        W  343  20.702  22.758   8.133
96383W        W  344  19.788  22.282   8.797
96384W        W  345  19.918  23.217   7.597
96385W        W  346  19.854  22.408  10.080
96386W        W  347  21.526  22.117   7.507
96387W        W  348  20.134  21.969   8.646
96388W        W  349  19.692  22.694   9.708
96389W        W  350  19.392  22.063   9.177
96390W        W  351  18.508  22.410   9.017
96391W        W  352  18.308  22.229   8.094
96392W        W  353  20.849  22.821   7.593
96393W        W  354  20.721  21.984   7.413
96394W        W  355  20.718  23.002  10.789
96395W        W  356  18.701  22.532  10.788
96396W        W  357  18.432  23.132   8.121
96397W        W  358  20.703  22.015   8.492
96398W        W  359  20.113  22.262   7.708
96399W        W  360  21.794  21.890   8.430
96400W        W  361  21.648  22.862   8.583
96401W        W  362  19.545  22.608  10.581
96402W        W  363  19.365  23.192   9.822
96403W        W  364  20.557  22.637  10.476
96404W        W  365  18.401  23.108  10.253
96405W        W  366  20.650  23.045  10.240
96406W        W  367  19.860  22.976  10.608
96407W        W  368  18.347  22.628  14.037
96408W        W  369  19.109  21.908  13.839
96409W        W  370  20.803  22.296  12.726
96410W        W  371  20.452  23.167  11.296
96411W        W  372  21.022  22.601  14.387
96412W        W  373  18.388  22.393  13.512
96413W        W  374  19.334  23.076  14.195
96414W        W  375  21.793  22.935  12.694
96415W        W  376  19.534  23.140  13.002
96416W        W  377  18.292  23.124  14.503
96417W        W  378  18.705  22.241  12.100
96418W        W  379  21.108  22.682  12.956
96419W        W  380  21.393  22.635  11.051
96420W        W  381  18.918  22.195  13.404
96421W        W  382  21.541  23.213  13.679
96422W        W  383  19.926  22.797  12.504
96423W        W  384  20.299  22.333  11.936
96424W        W  385  18.327  22.526  12.218
96425W        W  386  21.113  23.133  12.692
96426W        W  387  21.304  23.126  10.941
96427W        W  388  19.513  22.221  13.297
96428W        W  389  21.742  21.983  12.594
96429W        W  390  18.616  22.888  11.241
96430W        W  391  20.067  22.828  11.681
96431W        W  392  21.127  23.079  14.051
96432W        W  393  20.548  23.257  11.826
96433W        W  394  18.768  23.167  13.404
96434W        W  395  18.643  21.960  12.485
96435W        W  396  20.411  22.307  13.046
96436W        W  397  20.059  22.492  14.209
96437W        W  398  20.414  22.641  11.387
96438W        W  399  20.564  22.115  14.180
96439W        W  400  21.013  22.583  13.898
96440W        W  401  20.813  22.521  12.168
96441W        W  402  19.604  22.948  11.544
96442W        W  403  19.173  22.232  14.208
96443W        W  404  21.225  22.716  11.889
96444W        W  405  21.592  23.198  11.834
96445W        W  406  19.261  21.951  11.540
96446W        W  407  21.582  22.485  12.575
96447W        W  408  20.556  22.524  10.952
96448W        W  409  21.729  22.050  13.422
96449W        W  410  20.341  21.872  12.728
96450W        W  411  18.953  22.775  12.791
96451W        W  412  21.560  22.765  13.143
96452W        W  413  21.827  22.165  13.917
96453W        W  414  20.193  22.886  12.956
96454W        W  415  21.332  22.917  11.436
96455W        W  416  18.560  22.652  13.076
96456W        W  417  20.620  22.629  13.539
96457W        W  418  21.524  22.291  12.066
96458W        W  419  18.298  22.931  13.405
96459W        W  420  21.158  22.726  12.423
96460W        W  421  21.569  22.877  14.200
96461W        W  422  18.825  22.347  11.289
96462W        W  423  19.929  22.001  13.099
96463W        W  424  19.815  22.574  12.001
96464W        W  425  21.171  22.171  12.429
96465W        W  426  19.163  22.364  11.953
96466W        W  427  19.168  22.592  10.978
96467W        W  428  19.969  23.201  13.372
96468W        W  429  20.817  22.067  13.242
96469W        W  430  19.209  22.043  11.055
96470W        W  431  19.947  23.124  12.106
96471W        W  432  20.917  22.100  13.805
96472W        W  433  20.210  22.064  14.529
96473W        W  434  19.432  22.680  12.922
96474W        W  435  18.858  22.636  12.320
96475W        W  436  20.318  22.416  12.494
96476W        W  437  21.797  22.694  11.762
96477W        W  438  20.174  22.625  13.363
96478W        W  439  19.260  22.874  11.929
96479W        W  440  20.092  22.784  10.981
96480W        W  441  21.029  22.255  11.776
96481W        W  442  18.359  22.103  11.224
96482W        W  443  19.635  22.161  14.400
96483W        W  444  20.344  22.303  13.756
96484W        W  445  19.539  22.071  12.037
96485W        W  446  20.598  22.148  11.542
96486W        W  447  18.543  22.080  13.119
96487W        W  448  21.280  22.151  12.895
96488W        W  449  18.702  22.649  11.709
96489W        W  450  21.273  22.337  13.325
96490W        W  451  18.961  22.298  12.829
96491W        W  452  20.075  22.870  13.769
96492W        W  453  18.223  22.560  11.247
96493W        W  454  21.395  21.975  13.793
96494W        W  455  21.831  22.296  14.398
96495W        W  456  21.549  23.224  13.019
96496W        W  457  19.712  21.983  11.223
96497W        W  458  19.020  22.675  14.052
96498W        W  459  21.580  22.660  13.712
96499W        W  460  19.280  22.354  13.714
96500W        W  461  18.775  22.726  13.653
96501W        W  462  20.076  21.981  14.017
96502W        W  463  19.131  22.716  13.312
96503W        W  464  19.101  22.064  12.422
96504W        W  465  20.722  22.906  13.114
96505W        W  466  19.331  22.479  12.478
96506W        W  467  21.459  22.447  11.514
96507W        W  468  19.598  21.966  13.917
96508W        W  469  19.450  22.997  12.496
96509W        W  470  19.456  22.866  13.795
96510W        W  471  21.758  23.132  11.352
96511W        W  472  20.493  23.199  13.448
96512W        W  473  21.054  22.093  14.300
96513W        W  474  18.718  22.243  13.887
96514W        W  475  19.057  23.266  12.940
96515W        W  476  19.426  23.080  11.062
96516W        W  477  19.637  22.573  11.155
96517W        W  478  21.433  22.383  14.167
96518W        W  479  21.433  21.980  11.603
96519W        W  480  21.042  22.317  11.222
96520W        W  481  21.107  22.924  13.408
96521W        W  482  19.896  22.455  12.925
96522W        W  483  21.776  22.353  12.997
96523W        W  484  18.739  21.987  14.462
96524W        W  485  19.934  21.938  11.763
96525W        W  486  20.647  22.807  12.622
96526W        W  487  19.586  22.356  11.595
96527W        W  488  20.384  22.821  12.158
96528W        W  489  19.185  22.616  11.452
96529W        W  490  20.702  22.758  11.777
96530W        W  491  19.788  22.282  12.441
96531W        W  492  19.918  23.217  11.241
96532W        W  493  19.854  22.408  13.724
96533W        W  494  21.526  22.117  11.151
96534W        W  495  20.134  21.969  12.290
96535W        W  496  19.692  22.694  13.352
96536W        W  497  19.392  22.063  12.821
96537W        W  498  18.508  22.410  12.661
96538W        W  499  18.308  22.229  11.738
96539W        W  500  20.849  22.821  11.237
96540W        W  501  20.721  21.984  11.057
96541W        W  502  20.718  23.002  14.433
96542W        W  503  18.701  22.532  14.432
96543W        W  504  18.432  23.132  11.765
96544W        W  505  20.703  22.015  12.136
96545W        W  506  20.113  22.262  11.352
96546W        W  507  21.794  21.890  12.074
96547W        W  508  21.648  22.862  12.227
96548W        W  509  19.545  22.608  14.225
96549W        W  510  19.365  23.192  13.466
96550W        W  511  20.557  22.637  14.120
96551W        W  512  18.401  23.108  13.897
96552W        W  513  20.650  23.045  13.884
96553W        W  514  19.860  22.976  14.252
96554W        W  515  18.347  22.628  17.681
96555W        W  516  19.109  21.908  17.483
96556W        W  517  20.803  22.296  16.370
96557W        W  518  20.452  23.167  14.940
96558W        W  519  21.022  22.601  18.031
96559W        W  520  18.388  22.393  17.156
96560W        W  521  19.334  23.076  17.839
96561W        W  522  21.793  22.935  16.338
96562W        W  523  19.534  23.140  16.646
96563W        W  524  18.292  23.124  18.147
96564W        W  525  18.705  22.241  15.744
96565W        W  526  21.108  22.682  16.600
96566W        W  527  21.393  22.635  14.695
96567W        W  528  18.918  22.195  17.048
96568W        W  529  21.541  23.213  17.323
96569W        W  530  19.926  22.797  16.148
96570W        W  531  20.299  22.333  15.580
96571W        W  532  18.327  22.526  15.862
96572W        W  533  21.113  23.133  16.336
96573W        W  534  21.304  23.126  14.585
96574W        W  535  19.513  22.221  16.941
96575W        W  536  21.742  21.983  16.238
96576W        W  537  18.616  22.888  14.885
96577W        W  538  20.067  22.828  15.325
96578W        W  539  21.127  23.079  17.695
96579W        W  540  20.548  23.257  15.470
96580W        W  541  18.768  23.167  17.048
96581W        W  542  18.643  21.960  16.129
96582W        W  543  20.411  22.307  16.690
96583W        W  544  20.059  22.492  17.853
96584W        W  545  20.414  22.641  15.031
96585W        W  546  20.564  22.115  17.824
96586W        W  547  21.013  22.583  17.542
96587W        W  548  20.813  22.521  15.812
96588W        W  549  19.604  22.948  15.188
96589W        W  550  19.173  22.232  17.852
96590W        W  551  21.225  22.716  15.533
96591W        W  552  21.592  23.198  15.478
96592W        W  553  19.261  21.951  15.184
96593W        W  554  21.582  22.485  16.219
96594W        W  555  20.556  22.524  14.596
96595W        W  556  21.729  22.050  17.066
96596W        W  557  20.341  21.872  16.372
96597W        W  558  18.953  22.775  16.435
96598W        W  559  21.560  22.765  16.787
96599W        W  560  21.827  22.165  17.561
96600W        W  561  20.193  22.886  16.600
96601W        W  562  21.332  22.917  15.080
96602W        W  563  18.560  22.652  16.720
96603W        W  564  20.620  22.629  17.183
96604W        W  565  21.524  22.291  15.710
96605W        W  566  18.298  22.931  17.049
96606W        W  567  21.158  22.726  16.067
96607W        W  568  21.569  22.877  17.844
96608W        W  569  18.825  22.347  14.933
96609W        W  570  19.929  22.001  16.743
96610W        W  571  19.815  22.574  15.645
96611W        W  572  21.171  22.171  16.073
96612W        W  573  19.163  22.364  15.597
96613W        W  574  19.168  22.592  14.622
96614W        W  575  19.969  23.201  17.016
96615W        W  576  20.817  22.067  16.886
96616W        W  577  19.209  22.043  14.699
96617W        W  578  19.947  23.124  15.750
96618W        W  579  20.917  22.100  17.449
96619W        W  580  20.210  22.064  18.173
96620W        W  581  19.432  22.680  16.566
96621W        W  582  18.858  22.636  15.964
96622W        W  583  20.318  22.416  16.138
96623W        W  584  21.797  22.694  15.406
96624W        W  585  20.174  22.625  17.007
96625W        W  586  19.260  22.874  15.573
96626W        W  587  20.092  22.784  14.625
96627W        W  588  21.029  22.255  15.420
96628W        W  589  18.359  22.103  14.868
96629W        W  590  19.635  22.161  18.044
96630W        W  591  20.344  22.303  17.400
96631W        W  592  19.539  22.071  15.681
96632W        W  593  20.598  22.148  15.186
96633W        W  594  18.543  22.080  16.763
96634W        W  595  21.280  22.151  16.539
96635W        W  596  18.702  22.649  15.353
96636W        W  597  21.273  22.337  16.969
96637W        W  598  18.961  22.298  16.473
96638W        W  599  20.075  22.870  17.413
96639W        W  600  18.223  22.560  14.891
96640W        W  601  21.395  21.975  17.437
96641W        W  602  21.831  22.296  18.042
96642W        W  603  21.549  23.224  16.663
96643W        W  604  19.712  21.983  14.867
96644W        W  605  19.020  22.675  17.696
96645W        W  606  21.580  22.660  17.356
96646W        W  607  19.280  22.354  17.358
96647W        W  608  18.775  22.726  17.297
96648W        W  609  20.076  21.981  17.661
96649W        W  610  19.131  22.716  16.956
96650W        W  611  19.101  22.064  16.066
96651W        W  612  20.722  22.906  16.758
96652W        W  613  19.331  22.479  16.122
96653W        W  614  21.459  22.447  15.158
96654W        W  615  19.598  21.966  17.561
96655W        W  616  19.450  22.997  16.140
96656W        W  617  19.456  22.866  17.439
96657W        W  618  21.758  23.132  14.996
96658W        W  619  20.493  23.199  17.092
96659W        W  620  21.054  22.093  17.944
96660W        W  621  18.718  22.243  17.531
96661W        W  622  19.057  23.266  16.584
96662W        W  623  19.426  23.080  14.706
96663W        W  624  19.637  22.573  14.799
96664W        W  625  21.433  22.383  17.811
96665W        W  626  21.433  21.980  15.247
96666W        W  627  21.042  22.317  14.866
96667W        W  628  21.107  22.924  17.052
96668W        W  629  19.896  22.455  16.569
96669W        W  630  21.776  22.353  16.641
96670W        W  631  18.739  21.987  18.106
96671W        W  632  19.934  21.938  15.407
96672W        W  633  20.647  22.807  16.266
96673W        W  634  19.586  22.356  15.239
96674W        W  635  20.384  22.821  15.802
96675W        W  636  19.185  22.616  15.096
96676W        W  637  20.702  22.758  15.421
96677W        W  638  19.788  22.282  16.085
96678W        W  639  19.918  23.217  14.885
96679W        W  640  19.854  22.408  17.368
96680W        W  641  21.526  22.117  14.795
96681W        W  642  20.134  21.969  15.934
96682W        W  643  19.692  22.694  16.996
96683W        W  644  19.392  22.063  16.465
96684W        W  645  18.508  22.410  16.305
96685W        W  646  18.308  22.229  15.382
96686W        W  647  20.849  22.821  14.881
96687W        W  648  20.721  21.984  14.701
96688W        W  649  20.718  23.002  18.077
96689W        W  650  18.701  22.532  18.076
96690W        W  651  18.432  23.132  15.409
96691W        W  652  20.703  22.015  15.780
96692W        W  653  20.113  22.262  14.996
96693W        W  654  21.794  21.890  15.718
96694W        W  655  21.648  22.862  15.871
96695W        W  656  19.545  22.608  17.869
96696W        W  657  19.365  23.192  17.110
96697W        W  658  20.557  22.637  17.764
96698W        W  659  18.401  23.108  17.541
96699W        W  660  20.650  23.045  17.528
96700W        W  661  19.860  22.976  17.896
96701W        W  662  18.347  22.628  21.325
96702W        W  663  19.109  21.908  21.127
96703W        W  664  20.803  22.296  20.014
96704W        W  665  20.452  23.167  18.584
96705W        W  666  21.022  22.601  21.675
96706W        W  667  18.388  22.393  20.800
96707W        W  668  19.334  23.076  21.483
96708W        W  669  21.793  22.935  19.982
96709W        W  670  19.534  23.140  20.290
96710W        W  671  18.292  23.124  21.791
96711W        W  672  18.705  22.241  19.388
96712W        W  673  21.108  22.682  20.244
96713W        W  674  21.393  22.635  18.339
96714W        W  675  18.918  22.195  20.692
96715W        W  676  21.541  23.213  20.967
96716W        W  677  19.926  22.797  19.792
96717W        W  678  20.299  22.333  19.224
96718W        W  679  18.327  22.526  19.506
96719W        W  680  21.113  23.133  19.980
96720W        W  681  21.304  23.126  18.229
96721W        W  682  19.513  22.221  20.585
96722W        W  683  21.742  21.983  19.882
96723W        W  684  18.616  22.888  18.529
96724W        W  685  20.067  22.828  18.969
96725W        W  686  21.127  23.079  21.339
96726W        W  687  20.548  23.257  19.114
96727W        W  688  18.768  23.167  20.692
96728W        W  689  18.643  21.960  19.773
96729W        W  690  20.411  22.307  20.334
96730W        W  691  20.059  22.492  21.497
96731W        W  692  20.414  22.641  18.675
96732W        W  693  20.564  22.115  21.468
96733W        W  694  21.013  22.583  21.186
96734W        W  695  20.813  22.521  19.456
96735W        W  696  19.604  22.948  18.832
96736W        W  697  19.173  22.232  21.496
96737W        W  698  21.225  22.716  19.177
96738W        W  699  21.592  23.198  19.122
96739W        W  700  19.261  21.951  18.828
96740W        W  701  21.582  22.485  19.863
96741W        W  702  20.556  22.524  18.240
96742W        W  703  21.729  22.050  20.710
96743W        W  704  20.341  21.872  20.016
96744W        W  705  18.953  22.775  20.079
96745W        W  706  21.560  22.765  20.431
96746W        W  707  21.827  22.165  21.205
96747W        W  708  20.193  22.886  20.244
96748W        W  709  21.332  22.917  18.724
96749W        W  710  18.560  22.652  20.364
96750W        W  711  20.620  22.629  20.827
96751W        W  712  21.524  22.291  19.354
96752W        W  713  18.298  22.931  20.693
96753W        W  714  21.158  22.726  19.711
96754W        W  715  21.569  22.877  21.488
96755W        W  716  18.825  22.347  18.577
96756W        W  717  19.929  22.001  20.387
96757W        W  718  19.815  22.574  19.289
96758W        W  719  21.171  22.171  19.717
96759W        W  720  19.163  22.364  19.241
96760W        W  721  19.168  22.592  18.266
96761W        W  722  19.969  23.201  20.660
96762W        W  723  20.817  22.067  20.530
96763W        W  724  19.209  22.043  18.343
96764W        W  725  19.947  23.124  19.394
96765W        W  726  20.917  22.100  21.093
96766W        W  727  20.210  22.064  21.817
96767W        W  728  19.432  22.680  20.210
96768W        W  729  18.858  22.636  19.608
96769W        W  730  20.318  22.416  19.782
96770W        W  731  21.797  22.694  19.050
96771W        W  732  20.174  22.625  20.651
96772W        W  733  19.260  22.874  19.217
96773W        W  734  20.092  22.784  18.269
96774W        W  735  21.029  22.255  19.064
96775W        W  736  18.359  22.103  18.512
96776W        W  737  19.635  22.161  21.688
96777W        W  738  20.344  22.303  21.044
96778W        W  739  19.539  22.071  19.325
96779W        W  740  20.598  22.148  18.830
96780W        W  741  18.543  22.080  20.407
96781W        W  742  21.280  22.151  20.183
96782W        W  743  18.702  22.649  18.997
96783W        W  744  21.273  22.337  20.613
96784W        W  745  18.961  22.298  20.117
96785W        W  746  20.075  22.870  21.057
96786W        W  747  18.223  22.560  18.535
96787W        W  748  21.395  21.975  21.081
96788W        W  749  21.831  22.296  21.686
96789W        W  750  21.549  23.224  20.307
96790W        W  751  19.712  21.983  18.511
96791W        W  752  19.020  22.675  21.340
96792W        W  753  21.580  22.660  21.000
96793W        W  754  19.280  22.354  21.002
96794W        W  755  18.775  22.726  20.941
96795W        W  756  20.076  21.981  21.305
96796W        W  757  19.131  22.716  20.600
96797W        W  758  19.101  22.064  19.710
96798W        W  759  20.722  22.906  20.402
96799W        W  760  19.331  22.479  19.766
96800W        W  761  21.459  22.447  18.802
96801W        W  762  19.598  21.966  21.205
96802W        W  763  19.450  22.997  19.784
96803W        W  764  19.456  22.866  21.083
96804W        W  765  21.758  23.132  18.640
96805W        W  766  20.493  23.199  20.736
96806W        W  767  21.054  22.093  21.588
96807W        W  768  18.718  22.243  21.175
96808W        W  769  19.057  23.266  20.228
96809W        W  770  19.426  23.080  18.350
96810W        W  771  19.637  22.573  18.443
96811W        W  772  21.433  22.383  21.455
96812W        W  773  21.433  21.980  18.891
96813W        W  774  21.042  22.317  18.510
96814W        W  775  21.107  22.924  20.696
96815W        W  776  19.896  22.455  20.213
96816W        W  777  21.776  22.353  20.285
96817W        W  778  18.739  21.987  21.750
96818W        W  779  19.934  21.938  19.051
96819W        W  780  20.647  22.807  19.910
96820W        W  781  19.586  22.356  18.883
96821W        W  782  20.384  22.821  19.446
96822W        W  783  19.185  22.616  18.740
96823W        W  784  20.702  22.758  19.065
96824W        W  785  19.788  22.282  19.729
96825W        W  786  19.918  23.217  18.529
96826W        W  787  19.854  22.408  21.012
96827W        W  788  21.526  22.117  18.439
96828W        W  789  20.134  21.969  19.578
96829W        W  790  19.692  22.694  20.640
96830W        W  791  19.392  22.063  20.109
96831W        W  792  18.508  22.410  19.949
96832W        W  793  18.308  22.229  19.026
96833W        W  794  20.849  22.821  18.525
96834W        W  795  20.721  21.984  18.345
96835W        W  796  20.718  23.002  21.721
96836W        W  797  18.701  22.532  21.720
96837W        W  798  18.432  23.132  19.053
96838W        W  799  20.703  22.015  19.424
96839W        W  800  20.113  22.262  18.640
96840W        W  801  21.794  21.890  19.362
96841W        W  802  21.648  22.862  19.515
96842W        W  803  19.545  22.608  21.513
96843W        W  804  19.365  23.192  20.754
96844W        W  805  20.557  22.637  21.408
96845W        W  806  18.401  23.108  21.185
96846W        W  807  20.650  23.045  21.172
96847W        W  808  19.860  22.976  21.540
96848W        W  809  20.452  23.167  22.229
96849W        W  810  18.705  22.241  23.033
96850W        W  811  21.393  22.635  21.984
96851W        W  812  20.299  22.333  22.869
96852W        W  813  21.304  23.126  21.874
96853W        W  814  18.616  22.888  22.174
96854W        W  815  20.067  22.828  22.614
96855W        W  816  20.548  23.257  22.759
96856W        W  817  20.414  22.641  22.320
96857W        W  818  20.813  22.521  23.101
96858W        W  819  19.604  22.948  22.477
96859W        W  820  21.225  22.716  22.822
96860W        W  821  21.592  23.198  22.767
96861W        W  822  19.261  21.951  22.473
96862W        W  823  20.556  22.524  21.885
96863W        W  824  21.332  22.917  22.369
96864W        W  825  21.524  22.291  22.999
96865W        W  826  18.825  22.347  22.222
96866W        W  827  19.815  22.574  22.934
96867W        W  828  19.163  22.364  22.886
96868W        W  829  19.168  22.592  21.911
96869W        W  830  19.209  22.043  21.988
96870W        W  831  19.947  23.124  23.039
96871W        W  832  18.858  22.636  23.253
96872W        W  833  21.797  22.694  22.695
96873W        W  834  19.260  22.874  22.862
96874W        W  835  20.092  22.784  21.914
96875W        W  836  21.029  22.255  22.709
96876W        W  837  18.359  22.103  22.157
96877W        W  838  19.539  22.071  22.970
96878W        W  839  20.598  22.148  22.475
96879W        W  840  18.702  22.649  22.642
96880W        W  841  18.223  22.560  22.180
96881W        W  842  19.712  21.983  22.156
96882W        W  843  21.459  22.447  22.447
96883W        W  844  21.758  23.132  22.285
96884W        W  845  19.426  23.080  21.995
96885W        W  846  19.637  22.573  22.088
96886W        W  847  21.433  21.980  22.536
96887W        W  848  21.042  22.317  22.155
96888W        W  849  19.934  21.938  22.696
96889W        W  850  19.586  22.356  22.528
96890W        W  851  20.384  22.821  23.091
96891W        W  852  19.185  22.616  22.385
96892W        W  853  20.702  22.758  22.710
96893W        W  854  19.918  23.217  22.174
96894W        W  855  21.526  22.117  22.084
96895W        W  856  20.134  21.969  23.223
96896W        W  857  18.308  22.229  22.671
96897W        W  858  20.849  22.821  22.170
96898W        W  859  20.721  21.984  21.990
96899W        W  860  18.432  23.132  22.698
96900W        W  861  20.113  22.262  22.285
96901W        W  862  21.794  21.890  23.007
96902W        W  863  21.648  22.862  23.160
96903W        W  864  21.950   3.595   3.359
96904W        W  865  22.326   2.488   2.882
96905W        W  866  23.162   1.446   1.188
96906W        W  867  22.677   1.294   1.352
96907W        W  868  21.992   0.762   3.104
96908W        W  869  22.754   0.042   2.906
96909W        W  870  22.033   0.527   2.579
96910W        W  871  22.132   3.146   3.600
96911W        W  872  22.086   1.319   2.025
96912W        W  873  22.979   1.210   3.262
96913W        W  874  22.556   2.218   2.248
96914W        W  875  21.915   1.746   1.819
96915W        W  876  22.951   1.718   3.011
96916W        W  877  22.838   2.945   1.710
96917W        W  878  21.937   1.258   3.570
96918W        W  879  22.350   0.375   1.167
96919W        W  880  22.877   2.633   2.166
96920W        W  881  22.373   3.529   0.369
96921W        W  882  22.766   3.575   1.045
96922W        W  883  22.563   0.329   2.471
96923W        W  884  22.601   3.161   0.686
96924W        W  885  21.972   0.660   1.285
96925W        W  886  22.216   2.884   1.674
96926W        W  887  21.972   3.018   2.172
96927W        W  888  22.763   2.590   2.652
96928W        W  889  23.136   1.950   1.271
96929W        W  890  23.158   0.355   2.364
96930W        W  891  22.606   1.989   0.129
96931W        W  892  22.261   1.022   0.308
96932W        W  893  22.323   2.978   1.102
96933W        W  894  21.878   1.712   0.942
96934W        W  895  22.989   2.127   2.515
96935W        W  896  22.413   1.301   2.471
96936W        W  897  22.398   1.177   3.393
96937W        W  898  22.288   0.094   1.552
96938W        W  899  22.591   3.365   1.625
96939W        W  900  23.249   1.082   0.611
96940W        W  901  22.818   0.366   3.275
96941W        W  902  22.906   0.085   0.607
96942W        W  903  22.284   2.071   1.789
96943W        W  904  22.598   0.909   1.858
96944W        W  905  22.152   2.109   2.632
96945W        W  906  22.205   0.786   2.143
96946W        W  907  21.943   1.065   2.472
96947W        W  908  22.470   0.481   0.356
96948W        W  909  22.602   3.255   0.014
96949W        W  910  22.808   0.498   1.020
96950W        W  911  22.813   0.726   0.045
96951W        W  912  21.882   2.044   2.194
96952W        W  913  22.854   0.177   0.122
96953W        W  914  23.150   2.246   2.981
96954W        W  915  23.077   0.814   1.989
96955W        W  916  22.503   0.770   1.387
96956W        W  917  22.289   3.482   1.063
96957W        W  918  22.656   2.297   0.547
96958W        W  919  21.936   3.417   2.860
96959W        W  920  22.353   2.643   2.392
96960W        W  921  21.920   3.489   0.624
96961W        W  922  23.182   2.782   0.279
96962W        W  923  22.905   1.008   0.996
96963W        W  924  22.004   0.237   0.291
96964W        W  925  23.290   2.556   2.581
96965W        W  926  23.089   2.472   1.673
96966W        W  927  22.831   2.424   0.071
96967W        W  928  22.072   2.665   0.839
96968W        W  929  22.576   1.735   3.281
96969W        W  930  23.280   0.295   3.467
96970W        W  931  23.184   0.205   1.104
96971W        W  932  22.188   0.214   2.186
96972W        W  933  22.236   1.177   1.556
96973W        W  934  22.347   0.783   0.776
96974W        W  935  22.606   0.432   1.896
96975W        W  936  21.868   0.694   0.314
96976W        W  937  22.654   2.083   2.875
96977W        W  938  22.025   2.067   0.047
96978W        W  939  22.760   2.478   3.173
96979W        W  940  22.281   1.645   2.804
96980W        W  941  23.272   1.750   2.598
96981W        W  942  22.270   2.508   3.513
96982W        W  943  22.665   0.809   3.119
96983W        W  944  22.925   0.488   2.781
96984W        W  945  22.897   2.736   0.732
96985W        W  946  22.420   0.860   2.720
96986W        W  947  22.033   2.858   3.141
96987W        W  948  22.776   0.850   2.379
96988W        W  949  22.746   0.198   1.489
96989W        W  950  22.490   2.911   3.303
96990W        W  951  22.976   0.613   1.545
96991W        W  952  22.745   2.106   1.635
96992W        W  953  23.058   3.517   2.385
96993W        W  954  22.133   1.599   0.265
96994W        W  955  23.095   1.131   1.563
96995W        W  956  23.101   1.000   2.862
96996W        W  957  22.397   3.425   3.112
96997W        W  958  22.509   2.786   0.242
96998W        W  959  22.630   1.336   2.938
96999W        W  960  23.148   2.323   0.890
97000W        W  961  22.698   1.705   2.544
97001W        W  962  22.363   0.377   2.954
97002W        W  963  22.702   1.400   2.007
97003W        W  964  23.071   1.214   0.129
97004W        W  965  21.874   2.973   2.674
97005W        W  966  23.282   0.707   0.222
97006W        W  967  22.417   1.523   1.003
97007W        W  968  22.188   3.375   2.440
97008W        W  969  22.112   1.650   3.374
97009W        W  970  22.461   1.651   1.682
97010W        W  971  22.755   2.590   1.331
97011W        W  972  21.960   3.317   1.440
97012W        W  973  22.469   2.504   0.976
97013W        W  974  22.384   0.121   3.529
97014W        W  975  21.978   2.528   2.021
97015W        W  976  23.231   0.490   0.662
97016W        W  977  23.035   1.974   3.511
97017W        W  978  22.388   2.970   2.782
97018W        W  979  22.979   2.953   3.505
97019W        W  980  22.830   0.750   0.519
97020W        W  981  22.990   1.592   1.680
97021W        W  982  22.645   3.290   2.545
97022W        W  983  22.253   2.079   3.142
97023W        W  984  22.684   1.990   1.072
97024W        W  985  23.055   2.997   2.467
97025W        W  986  22.044   2.400   0.438
97026W        W  987  22.209   1.900   1.327
97027W        W  988  22.623   3.602   2.080
97028W        W  989  22.838   3.087   1.194
97029W        W  990  23.037   0.197   1.888
97030W        W  991  22.100   3.019   0.436
97031W        W  992  22.791   3.178   3.033
97032W        W  993  22.268   2.001   0.729
97033W        W  994  22.153   0.544   1.728
97034W        W  995  21.953   0.363   0.805
97035W        W  996  23.084   3.215   0.694
97036W        W  997  22.166   3.378   1.865
97037W        W  998  22.346   0.666   3.499
97038W        W  999  22.077   1.266   0.832
97039W        W 1000  22.768   1.255   0.557
97040W        W 1001  22.874   1.863   2.083
97041W        W 1002  23.010   1.326   2.533
97042W        W 1003  22.046   1.242   2.964
97043W        W 1004  22.163   2.477   1.347
97044W        W 1005  22.310   1.774   2.237
97045W        W 1006  23.059   3.308   1.948
97046W        W 1007  22.519   2.504   1.843
97047W        W 1008  22.484   3.058   2.109
97048W        W 1009  22.611   1.509   0.104
97049W        W 1010  21.950   3.595   7.003
97050W        W 1011  22.326   2.488   6.526
97051W        W 1012  23.079   3.294   3.849
97052W        W 1013  23.162   1.446   4.832
97053W        W 1014  22.677   1.294   4.996
97054W        W 1015  21.992   0.762   6.748
97055W        W 1016  22.754   0.042   6.550
97056W        W 1017  22.033   0.527   6.223
97057W        W 1018  22.132   3.146   7.244
97058W        W 1019  22.086   1.319   5.669
97059W        W 1020  22.979   1.210   6.906
97060W        W 1021  22.556   2.218   5.892
97061W        W 1022  21.915   1.746   5.463
97062W        W 1023  22.951   1.718   6.655
97063W        W 1024  22.838   2.945   5.354
97064W        W 1025  21.937   1.258   7.214
97065W        W 1026  22.350   0.375   4.811
97066W        W 1027  22.877   2.633   5.810
97067W        W 1028  22.373   3.529   4.013
97068W        W 1029  22.766   3.575   4.689
97069W        W 1030  22.563   0.329   6.115
97070W        W 1031  22.601   3.161   4.330
97071W        W 1032  21.972   0.660   4.929
97072W        W 1033  22.216   2.884   5.318
97073W        W 1034  21.972   3.018   5.816
97074W        W 1035  22.763   2.590   6.296
97075W        W 1036  23.136   1.950   4.915
97076W        W 1037  22.606   1.989   3.773
97077W        W 1038  22.261   1.022   3.952
97078W        W 1039  22.323   2.978   4.746
97079W        W 1040  21.878   1.712   4.586
97080W        W 1041  22.989   2.127   6.159
97081W        W 1042  22.413   1.301   6.115
97082W        W 1043  22.398   1.177   7.037
97083W        W 1044  22.288   0.094   5.196
97084W        W 1045  22.591   3.365   5.269
97085W        W 1046  23.249   1.082   4.255
97086W        W 1047  22.818   0.366   6.919
97087W        W 1048  22.906   0.085   4.251
97088W        W 1049  22.284   2.071   5.433
97089W        W 1050  22.598   0.909   5.502
97090W        W 1051  22.152   2.109   6.276
97091W        W 1052  22.205   0.786   5.787
97092W        W 1053  21.943   1.065   6.116
97093W        W 1054  22.470   0.481   4.000
97094W        W 1055  22.602   3.255   3.658
97095W        W 1056  22.808   0.498   4.664
97096W        W 1057  22.813   0.726   3.689
97097W        W 1058  21.882   2.044   5.838
97098W        W 1059  22.854   0.177   3.766
97099W        W 1060  23.150   2.246   6.625
97100W        W 1061  23.077   0.814   5.633
97101W        W 1062  22.503   0.770   5.031
97102W        W 1063  22.289   3.482   4.707
97103W        W 1064  22.656   2.297   4.191
97104W        W 1065  21.936   3.417   6.504
97105W        W 1066  22.353   2.643   6.036
97106W        W 1067  21.920   3.489   4.268
97107W        W 1068  23.182   2.782   3.923
97108W        W 1069  22.905   1.008   4.640
97109W        W 1070  22.004   0.237   3.935
97110W        W 1071  23.290   2.556   6.225
97111W        W 1072  23.089   2.472   5.317
97112W        W 1073  22.831   2.424   3.715
97113W        W 1074  22.072   2.665   4.483
97114W        W 1075  22.576   1.735   6.925
97115W        W 1076  23.280   0.295   7.111
97116W        W 1077  23.184   0.205   4.748
97117W        W 1078  22.188   0.214   5.830
97118W        W 1079  22.236   1.177   5.200
97119W        W 1080  22.347   0.783   4.420
97120W        W 1081  22.606   0.432   5.540
97121W        W 1082  21.868   0.694   3.958
97122W        W 1083  22.654   2.083   6.519
97123W        W 1084  22.025   2.067   3.691
97124W        W 1085  22.760   2.478   6.817
97125W        W 1086  22.281   1.645   6.448
97126W        W 1087  23.272   1.750   6.242
97127W        W 1088  22.270   2.508   7.157
97128W        W 1089  22.665   0.809   6.763
97129W        W 1090  22.897   2.736   4.376
97130W        W 1091  22.420   0.860   6.364
97131W        W 1092  22.033   2.858   6.785
97132W        W 1093  22.746   0.198   5.133
97133W        W 1094  22.490   2.911   6.947
97134W        W 1095  22.976   0.613   5.189
97135W        W 1096  22.745   2.106   5.279
97136W        W 1097  23.058   3.517   6.029
97137W        W 1098  22.133   1.599   3.909
97138W        W 1099  23.095   1.131   5.207
97139W        W 1100  23.101   1.000   6.506
97140W        W 1101  22.397   3.425   6.756
97141W        W 1102  22.509   2.786   3.886
97142W        W 1103  22.630   1.336   6.582
97143W        W 1104  23.148   2.323   4.534
97144W        W 1105  22.698   1.705   6.188
97145W        W 1106  22.363   0.377   6.598
97146W        W 1107  22.702   1.400   5.651
97147W        W 1108  21.874   2.973   6.318
97148W        W 1109  23.282   0.707   3.866
97149W        W 1110  22.417   1.523   4.647
97150W        W 1111  22.188   3.375   6.084
97151W        W 1112  22.112   1.650   7.018
97152W        W 1113  22.461   1.651   5.326
97153W        W 1114  22.755   2.590   4.975
97154W        W 1115  21.960   3.317   5.084
97155W        W 1116  22.469   2.504   4.620
97156W        W 1117  22.384   0.121   7.173
97157W        W 1118  21.978   2.528   5.665
97158W        W 1119  23.231   0.490   4.306
97159W        W 1120  23.035   1.974   7.155
97160W        W 1121  22.388   2.970   6.426
97161W        W 1122  22.979   2.953   7.149
97162W        W 1123  22.830   0.750   4.163
97163W        W 1124  22.990   1.592   5.324
97164W        W 1125  22.645   3.290   6.189
97165W        W 1126  22.253   2.079   6.786
97166W        W 1127  22.684   1.990   4.716
97167W        W 1128  23.055   2.997   6.111
97168W        W 1129  22.044   2.400   4.082
97169W        W 1130  22.209   1.900   4.971
97170W        W 1131  22.623   3.602   5.724
97171W        W 1132  22.838   3.087   4.838
97172W        W 1133  23.037   0.197   5.532
97173W        W 1134  22.100   3.019   4.080
97174W        W 1135  22.791   3.178   6.677
97175W        W 1136  22.268   2.001   4.373
97176W        W 1137  22.153   0.544   5.372
97177W        W 1138  21.953   0.363   4.449
97178W        W 1139  23.084   3.215   4.338
97179W        W 1140  22.166   3.378   5.509
97180W        W 1141  22.346   0.666   7.143
97181W        W 1142  22.077   1.266   4.476
97182W        W 1143  22.768   1.255   4.201
97183W        W 1144  22.874   1.863   5.727
97184W        W 1145  23.010   1.326   6.177
97185W        W 1146  22.046   1.242   6.608
97186W        W 1147  22.163   2.477   4.991
97187W        W 1148  22.310   1.774   5.881
97188W        W 1149  23.059   3.308   5.592
97189W        W 1150  22.519   2.504   5.487
97190W        W 1151  22.484   3.058   5.753
97191W        W 1152  22.611   1.509   3.748
97192W        W 1153  21.950   3.595  10.648
97193W        W 1154  22.326   2.488  10.171
97194W        W 1155  23.079   3.294   7.494
97195W        W 1156  23.162   1.446   8.477
97196W        W 1157  22.677   1.294   8.641
97197W        W 1158  21.992   0.762  10.393
97198W        W 1159  22.754   0.042  10.195
97199W        W 1160  22.033   0.527   9.868
97200W        W 1161  22.132   3.146  10.889
97201W        W 1162  22.086   1.319   9.314
97202W        W 1163  22.979   1.210  10.551
97203W        W 1164  22.556   2.218   9.537
97204W        W 1165  21.915   1.746   9.108
97205W        W 1166  22.951   1.718  10.300
97206W        W 1167  22.838   2.945   8.999
97207W        W 1168  21.937   1.258  10.859
97208W        W 1169  22.350   0.375   8.456
97209W        W 1170  22.877   2.633   9.455
97210W        W 1171  22.373   3.529   7.658
97211W        W 1172  22.766   3.575   8.334
97212W        W 1173  22.563   0.329   9.760
97213W        W 1174  22.601   3.161   7.975
97214W        W 1175  21.972   0.660   8.574
97215W        W 1176  22.216   2.884   8.963
97216W        W 1177  21.972   3.018   9.461
97217W        W 1178  22.763   2.590   9.941
97218W        W 1179  23.136   1.950   8.560
97219W        W 1180  23.158   0.355   9.653
97220W        W 1181  22.606   1.989   7.418
97221W        W 1182  22.261   1.022   7.597
97222W        W 1183  22.323   2.978   8.391
97223W        W 1184  21.878   1.712   8.231
97224W        W 1185  22.989   2.127   9.804
97225W        W 1186  22.413   1.301   9.760
97226W        W 1187  22.398   1.177  10.682
97227W        W 1188  22.288   0.094   8.841
97228W        W 1189  22.591   3.365   8.914
97229W        W 1190  23.249   1.082   7.900
97230W        W 1191  22.818   0.366  10.564
97231W        W 1192  22.906   0.085   7.896
97232W        W 1193  22.284   2.071   9.078
97233W        W 1194  22.598   0.909   9.147
97234W        W 1195  22.152   2.109   9.921
97235W        W 1196  22.205   0.786   9.432
97236W        W 1197  21.943   1.065   9.761
97237W        W 1198  22.470   0.481   7.645
97238W        W 1199  22.602   3.255   7.303
97239W        W 1200  22.808   0.498   8.309
97240W        W 1201  22.813   0.726   7.334
97241W        W 1202  21.882   2.044   9.483
97242W        W 1203  22.854   0.177   7.411
97243W        W 1204  23.150   2.246  10.270
97244W        W 1205  23.077   0.814   9.278
97245W        W 1206  22.503   0.770   8.676
97246W        W 1207  22.289   3.482   8.352
97247W        W 1208  22.656   2.297   7.836
97248W        W 1209  21.936   3.417  10.149
97249W        W 1210  22.353   2.643   9.681
97250W        W 1211  21.920   3.489   7.913
97251W        W 1212  23.182   2.782   7.568
97252W        W 1213  22.905   1.008   8.285
97253W        W 1214  22.004   0.237   7.580
97254W        W 1215  23.290   2.556   9.870
97255W        W 1216  23.089   2.472   8.962
97256W        W 1217  22.831   2.424   7.360
97257W        W 1218  22.072   2.665   8.128
97258W        W 1219  22.576   1.735  10.570
97259W        W 1220  23.280   0.295  10.756
97260W        W 1221  23.184   0.205   8.393
97261W        W 1222  22.188   0.214   9.475
97262W        W 1223  22.236   1.177   8.845
97263W        W 1224  22.347   0.783   8.065
97264W        W 1225  22.606   0.432   9.185
97265W        W 1226  21.868   0.694   7.603
97266W        W 1227  22.654   2.083  10.164
97267W        W 1228  22.025   2.067   7.336
97268W        W 1229  22.760   2.478  10.462
97269W        W 1230  22.281   1.645  10.093
97270W        W 1231  23.272   1.750   9.887
97271W        W 1232  22.270   2.508  10.802
97272W        W 1233  22.665   0.809  10.408
97273W        W 1234  22.925   0.488  10.070
97274W        W 1235  22.897   2.736   8.021
97275W        W 1236  22.420   0.860  10.009
97276W        W 1237  22.033   2.858  10.430
97277W        W 1238  22.776   0.850   9.668
97278W        W 1239  22.746   0.198   8.778
97279W        W 1240  22.490   2.911  10.592
97280W        W 1241  22.976   0.613   8.834
97281W        W 1242  22.745   2.106   8.924
97282W        W 1243  23.058   3.517   9.674
97283W        W 1244  22.133   1.599   7.554
97284W        W 1245  23.095   1.131   8.852
97285W        W 1246  23.101   1.000  10.151
97286W        W 1247  22.397   3.425  10.401
97287W        W 1248  22.509   2.786   7.531
97288W        W 1249  22.630   1.336  10.227
97289W        W 1250  23.148   2.323   8.179
97290W        W 1251  22.698   1.705   9.833
97291W        W 1252  22.363   0.377  10.243
97292W        W 1253  22.702   1.400   9.296
97293W        W 1254  21.874   2.973   9.963
97294W        W 1255  23.282   0.707   7.511
97295W        W 1256  22.417   1.523   8.292
97296W        W 1257  22.188   3.375   9.729
97297W        W 1258  22.112   1.650  10.663
97298W        W 1259  22.461   1.651   8.971
97299W        W 1260  22.755   2.590   8.620
97300W        W 1261  21.960   3.317   8.729
97301W        W 1262  22.469   2.504   8.265
97302W        W 1263  22.384   0.121  10.818
97303W        W 1264  21.978   2.528   9.310
97304W        W 1265  23.231   0.490   7.951
97305W        W 1266  23.035   1.974  10.800
97306W        W 1267  22.388   2.970  10.071
97307W        W 1268  22.979   2.953  10.794
97308W        W 1269  22.830   0.750   7.808
97309W        W 1270  22.990   1.592   8.969
97310W        W 1271  22.645   3.290   9.834
97311W        W 1272  22.253   2.079  10.431
97312W        W 1273  22.684   1.990   8.361
97313W        W 1274  23.055   2.997   9.756
97314W        W 1275  22.044   2.400   7.727
97315W        W 1276  22.209   1.900   8.616
97316W        W 1277  22.623   3.602   9.369
97317W        W 1278  22.838   3.087   8.483
97318W        W 1279  23.037   0.197   9.177
97319W        W 1280  22.100   3.019   7.725
97320W        W 1281  22.791   3.178  10.322
97321W        W 1282  22.268   2.001   8.018
97322W        W 1283  22.153   0.544   9.017
97323W        W 1284  21.953   0.363   8.094
97324W        W 1285  23.084   3.215   7.983
97325W        W 1286  22.166   3.378   9.154
97326W        W 1287  22.346   0.666  10.788
97327W        W 1288  22.077   1.266   8.121
97328W        W 1289  22.768   1.255   7.846
97329W        W 1290  22.874   1.863   9.372
97330W        W 1291  23.010   1.326   9.822
97331W        W 1292  22.046   1.242  10.253
97332W        W 1293  22.163   2.477   8.636
97333W        W 1294  22.310   1.774   9.526
97334W        W 1295  23.059   3.308   9.237
97335W        W 1296  22.519   2.504   9.132
97336W        W 1297  22.484   3.058   9.398
97337W        W 1298  22.611   1.509   7.393
97338W        W 1299  21.950   3.595  14.292
97339W        W 1300  22.326   2.488  13.815
97340W        W 1301  23.079   3.294  11.138
97341W        W 1302  22.677   1.294  12.285
97342W        W 1303  21.992   0.762  14.037
97343W        W 1304  22.754   0.042  13.839
97344W        W 1305  22.033   0.527  13.512
97345W        W 1306  22.132   3.146  14.533
97346W        W 1307  22.086   1.319  12.958
97347W        W 1308  22.979   1.210  14.195
97348W        W 1309  22.556   2.218  13.181
97349W        W 1310  21.915   1.746  12.752
97350W        W 1311  22.951   1.718  13.944
97351W        W 1312  22.838   2.945  12.643
97352W        W 1313  21.937   1.258  14.503
97353W        W 1314  22.350   0.375  12.100
97354W        W 1315  22.877   2.633  13.099
97355W        W 1316  22.373   3.529  11.302
97356W        W 1317  22.766   3.575  11.978
97357W        W 1318  22.563   0.329  13.404
97358W        W 1319  22.601   3.161  11.619
97359W        W 1320  21.972   0.660  12.218
97360W        W 1321  22.216   2.884  12.607
97361W        W 1322  21.972   3.018  13.105
97362W        W 1323  22.763   2.590  13.585
97363W        W 1324  23.136   1.950  12.204
97364W        W 1325  23.158   0.355  13.297
97365W        W 1326  22.606   1.989  11.062
97366W        W 1327  22.261   1.022  11.241
97367W        W 1328  22.323   2.978  12.035
97368W        W 1329  21.878   1.712  11.875
97369W        W 1330  22.989   2.127  13.448
97370W        W 1331  22.413   1.301  13.404
97371W        W 1332  22.398   1.177  14.326
97372W        W 1333  22.288   0.094  12.485
97373W        W 1334  22.591   3.365  12.558
97374W        W 1335  23.249   1.082  11.544
97375W        W 1336  22.818   0.366  14.208
97376W        W 1337  22.906   0.085  11.540
97377W        W 1338  22.284   2.071  12.722
97378W        W 1339  22.598   0.909  12.791
97379W        W 1340  22.152   2.109  13.565
97380W        W 1341  22.205   0.786  13.076
97381W        W 1342  21.943   1.065  13.405
97382W        W 1343  22.470   0.481  11.289
97383W        W 1344  22.602   3.255  10.947
97384W        W 1345  22.808   0.498  11.953
97385W        W 1346  22.813   0.726  10.978
97386W        W 1347  21.882   2.044  13.127
97387W        W 1348  22.854   0.177  11.055
97388W        W 1349  23.150   2.246  13.914
97389W        W 1350  23.077   0.814  12.922
97390W        W 1351  22.503   0.770  12.320
97391W        W 1352  22.289   3.482  11.996
97392W        W 1353  22.656   2.297  11.480
97393W        W 1354  21.936   3.417  13.793
97394W        W 1355  22.353   2.643  13.325
97395W        W 1356  21.920   3.489  11.557
97396W        W 1357  23.182   2.782  11.212
97397W        W 1358  22.905   1.008  11.929
97398W        W 1359  22.004   0.237  11.224
97399W        W 1360  23.290   2.556  13.514
97400W        W 1361  23.089   2.472  12.606
97401W        W 1362  22.831   2.424  11.004
97402W        W 1363  22.072   2.665  11.772
97403W        W 1364  22.576   1.735  14.214
97404W        W 1365  23.280   0.295  14.400
97405W        W 1366  23.184   0.205  12.037
97406W        W 1367  22.188   0.214  13.119
97407W        W 1368  22.236   1.177  12.489
97408W        W 1369  22.347   0.783  11.709
97409W        W 1370  22.606   0.432  12.829
97410W        W 1371  21.868   0.694  11.247
97411W        W 1372  22.654   2.083  13.808
97412W        W 1373  22.025   2.067  10.980
97413W        W 1374  22.760   2.478  14.106
97414W        W 1375  22.281   1.645  13.737
97415W        W 1376  23.272   1.750  13.531
97416W        W 1377  22.270   2.508  14.446
97417W        W 1378  22.665   0.809  14.052
97418W        W 1379  22.925   0.488  13.714
97419W        W 1380  22.897   2.736  11.665
97420W        W 1381  22.420   0.860  13.653
97421W        W 1382  22.033   2.858  14.074
97422W        W 1383  22.776   0.850  13.312
97423W        W 1384  22.746   0.198  12.422
97424W        W 1385  22.490   2.911  14.236
97425W        W 1386  22.976   0.613  12.478
97426W        W 1387  22.745   2.106  12.568
97427W        W 1388  23.058   3.517  13.318
97428W        W 1389  22.133   1.599  11.198
97429W        W 1390  23.095   1.131  12.496
97430W        W 1391  23.101   1.000  13.795
97431W        W 1392  22.397   3.425  14.045
97432W        W 1393  22.509   2.786  11.175
97433W        W 1394  22.630   1.336  13.871
97434W        W 1395  23.148   2.323  11.823
97435W        W 1396  22.698   1.705  13.477
97436W        W 1397  22.363   0.377  13.887
97437W        W 1398  22.702   1.400  12.940
97438W        W 1399  21.874   2.973  13.607
97439W        W 1400  23.282   0.707  11.155
97440W        W 1401  22.417   1.523  11.936
97441W        W 1402  22.188   3.375  13.373
97442W        W 1403  22.112   1.650  14.307
97443W        W 1404  22.461   1.651  12.615
97444W        W 1405  22.755   2.590  12.264
97445W        W 1406  21.960   3.317  12.373
97446W        W 1407  22.469   2.504  11.909
97447W        W 1408  22.384   0.121  14.462
97448W        W 1409  21.978   2.528  12.954
97449W        W 1410  23.231   0.490  11.595
97450W        W 1411  23.035   1.974  14.444
97451W        W 1412  22.388   2.970  13.715
97452W        W 1413  22.979   2.953  14.438
97453W        W 1414  22.830   0.750  11.452
97454W        W 1415  22.990   1.592  12.613
97455W        W 1416  22.645   3.290  13.478
97456W        W 1417  22.253   2.079  14.075
97457W        W 1418  22.684   1.990  12.005
97458W        W 1419  23.055   2.997  13.400
97459W        W 1420  22.044   2.400  11.371
97460W        W 1421  22.209   1.900  12.260
97461W        W 1422  22.623   3.602  13.013
97462W        W 1423  22.838   3.087  12.127
97463W        W 1424  23.037   0.197  12.821
97464W        W 1425  22.100   3.019  11.369
97465W        W 1426  22.791   3.178  13.966
97466W        W 1427  22.268   2.001  11.662
97467W        W 1428  22.153   0.544  12.661
97468W        W 1429  21.953   0.363  11.738
97469W        W 1430  23.084   3.215  11.627
97470W        W 1431  22.166   3.378  12.798
97471W        W 1432  22.346   0.666  14.432
97472W        W 1433  22.077   1.266  11.765
97473W        W 1434  22.768   1.255  11.490
97474W        W 1435  22.874   1.863  13.016
97475W        W 1436  23.010   1.326  13.466
97476W        W 1437  22.046   1.242  13.897
97477W        W 1438  22.163   2.477  12.280
97478W        W 1439  22.310   1.774  13.170
97479W        W 1440  23.059   3.308  12.881
97480W        W 1441  22.519   2.504  12.776
97481W        W 1442  22.484   3.058  13.042
97482W        W 1443  22.611   1.509  11.037
97483W        W 1444  21.950   3.595  17.936
97484W        W 1445  22.326   2.488  17.459
97485W        W 1446  23.079   3.294  14.782
97486W        W 1447  23.162   1.446  15.765
97487W        W 1448  22.677   1.294  15.929
97488W        W 1449  21.992   0.762  17.681
97489W        W 1450  22.754   0.042  17.483
97490W        W 1451  22.033   0.527  17.156
97491W        W 1452  22.132   3.146  18.177
97492W        W 1453  22.086   1.319  16.602
97493W        W 1454  22.979   1.210  17.839
97494W        W 1455  22.556   2.218  16.825
97495W        W 1456  21.915   1.746  16.396
97496W        W 1457  22.951   1.718  17.588
97497W        W 1458  22.838   2.945  16.287
97498W        W 1459  21.937   1.258  18.147
97499W        W 1460  22.350   0.375  15.744
97500W        W 1461  22.877   2.633  16.743
97501W        W 1462  22.373   3.529  14.946
97502W        W 1463  22.766   3.575  15.622
97503W        W 1464  22.563   0.329  17.048
97504W        W 1465  22.601   3.161  15.263
97505W        W 1466  21.972   0.660  15.862
97506W        W 1467  22.216   2.884  16.251
97507W        W 1468  21.972   3.018  16.749
97508W        W 1469  22.763   2.590  17.229
97509W        W 1470  23.136   1.950  15.848
97510W        W 1471  23.158   0.355  16.941
97511W        W 1472  22.606   1.989  14.706
97512W        W 1473  22.261   1.022  14.885
97513W        W 1474  22.323   2.978  15.679
97514W        W 1475  21.878   1.712  15.519
97515W        W 1476  22.989   2.127  17.092
97516W        W 1477  22.413   1.301  17.048
97517W        W 1478  22.398   1.177  17.970
97518W        W 1479  22.288   0.094  16.129
97519W        W 1480  22.591   3.365  16.202
97520W        W 1481  23.249   1.082  15.188
97521W        W 1482  22.818   0.366  17.852
97522W        W 1483  22.906   0.085  15.184
97523W        W 1484  22.284   2.071  16.366
97524W        W 1485  22.598   0.909  16.435
97525W        W 1486  22.152   2.109  17.209
97526W        W 1487  22.205   0.786  16.720
97527W        W 1488  21.943   1.065  17.049
97528W        W 1489  22.470   0.481  14.933
97529W        W 1490  22.602   3.255  14.591
97530W        W 1491  22.808   0.498  15.597
97531W        W 1492  22.813   0.726  14.622
97532W        W 1493  21.882   2.044  16.771
97533W        W 1494  22.854   0.177  14.699
97534W        W 1495  23.150   2.246  17.558
97535W        W 1496  23.077   0.814  16.566
97536W        W 1497  22.503   0.770  15.964
97537W        W 1498  22.289   3.482  15.640
97538W        W 1499  22.656   2.297  15.124
97539W        W 1500  21.936   3.417  17.437
97540W        W 1501  22.353   2.643  16.969
97541W        W 1502  21.920   3.489  15.201
97542W        W 1503  23.182   2.782  14.856
97543W        W 1504  22.905   1.008  15.573
97544W        W 1505  22.004   0.237  14.868
97545W        W 1506  23.290   2.556  17.158
97546W        W 1507  23.089   2.472  16.250
97547W        W 1508  22.831   2.424  14.648
97548W        W 1509  22.072   2.665  15.416
97549W        W 1510  22.576   1.735  17.858
97550W        W 1511  23.280   0.295  18.044
97551W        W 1512  23.184   0.205  15.681
97552W        W 1513  22.188   0.214  16.763
97553W        W 1514  22.236   1.177  16.133
97554W        W 1515  22.347   0.783  15.353
97555W        W 1516  22.606   0.432  16.473
97556W        W 1517  21.868   0.694  14.891
97557W        W 1518  22.654   2.083  17.452
97558W        W 1519  22.025   2.067  14.624
97559W        W 1520  22.760   2.478  17.750
97560W        W 1521  22.281   1.645  17.381
97561W        W 1522  23.272   1.750  17.175
97562W        W 1523  22.270   2.508  18.090
97563W        W 1524  22.665   0.809  17.696
97564W        W 1525  22.925   0.488  17.358
97565W        W 1526  22.897   2.736  15.309
97566W        W 1527  22.420   0.860  17.297
97567W        W 1528  22.033   2.858  17.718
97568W        W 1529  22.776   0.850  16.956
97569W        W 1530  22.746   0.198  16.066
97570W        W 1531  22.490   2.911  17.880
97571W        W 1532  22.976   0.613  16.122
97572W        W 1533  22.745   2.106  16.212
97573W        W 1534  23.058   3.517  16.962
97574W        W 1535  22.133   1.599  14.842
97575W        W 1536  23.095   1.131  16.140
97576W        W 1537  23.101   1.000  17.439
97577W        W 1538  22.397   3.425  17.689
97578W        W 1539  22.509   2.786  14.819
97579W        W 1540  22.630   1.336  17.515
97580W        W 1541  23.148   2.323  15.467
97581W        W 1542  22.698   1.705  17.121
97582W        W 1543  22.363   0.377  17.531
97583W        W 1544  22.702   1.400  16.584
97584W        W 1545  21.874   2.973  17.251
97585W        W 1546  23.282   0.707  14.799
97586W        W 1547  22.417   1.523  15.580
97587W        W 1548  22.188   3.375  17.017
97588W        W 1549  22.112   1.650  17.951
97589W        W 1550  22.461   1.651  16.259
97590W        W 1551  22.755   2.590  15.908
97591W        W 1552  21.960   3.317  16.017
97592W        W 1553  22.469   2.504  15.553
97593W        W 1554  22.384   0.121  18.106
97594W        W 1555  21.978   2.528  16.598
97595W        W 1556  23.231   0.490  15.239
97596W        W 1557  23.035   1.974  18.088
97597W        W 1558  22.388   2.970  17.359
97598W        W 1559  22.979   2.953  18.082
97599W        W 1560  22.830   0.750  15.096
97600W        W 1561  22.990   1.592  16.257
97601W        W 1562  22.645   3.290  17.122
97602W        W 1563  22.253   2.079  17.719
97603W        W 1564  22.684   1.990  15.649
97604W        W 1565  23.055   2.997  17.044
97605W        W 1566  22.044   2.400  15.015
97606W        W 1567  22.209   1.900  15.904
97607W        W 1568  22.623   3.602  16.657
97608W        W 1569  22.838   3.087  15.771
97609W        W 1570  23.037   0.197  16.465
97610W        W 1571  22.100   3.019  15.013
97611W        W 1572  22.791   3.178  17.610
97612W        W 1573  22.268   2.001  15.306
97613W        W 1574  22.153   0.544  16.305
97614W        W 1575  21.953   0.363  15.382
97615W        W 1576  23.084   3.215  15.271
97616W        W 1577  22.166   3.378  16.442
97617W        W 1578  22.346   0.666  18.076
97618W        W 1579  22.077   1.266  15.409
97619W        W 1580  22.768   1.255  15.134
97620W        W 1581  22.874   1.863  16.660
97621W        W 1582  23.010   1.326  17.110
97622W        W 1583  22.046   1.242  17.541
97623W        W 1584  22.163   2.477  15.924
97624W        W 1585  22.310   1.774  16.814
97625W        W 1586  23.059   3.308  16.525
97626W        W 1587  22.519   2.504  16.420
97627W        W 1588  22.484   3.058  16.686
97628W        W 1589  22.611   1.509  14.681
97629W        W 1590  21.950   3.595  21.580
97630W        W 1591  22.326   2.488  21.103
97631W        W 1592  23.079   3.294  18.426
97632W        W 1593  23.162   1.446  19.409
97633W        W 1594  22.677   1.294  19.573
97634W        W 1595  21.992   0.762  21.325
97635W        W 1596  22.754   0.042  21.127
97636W        W 1597  22.033   0.527  20.800
97637W        W 1598  22.132   3.146  21.821
97638W        W 1599  22.086   1.319  20.246
97639W        W 1600  22.979   1.210  21.483
97640W        W 1601  22.556   2.218  20.469
97641W        W 1602  21.915   1.746  20.040
97642W        W 1603  22.951   1.718  21.232
97643W        W 1604  22.838   2.945  19.931
97644W        W 1605  21.937   1.258  21.791
97645W        W 1606  22.350   0.375  19.388
97646W        W 1607  22.877   2.633  20.387
97647W        W 1608  22.373   3.529  18.590
97648W        W 1609  22.766   3.575  19.266
97649W        W 1610  22.563   0.329  20.692
97650W        W 1611  22.601   3.161  18.907
97651W        W 1612  21.972   0.660  19.506
97652W        W 1613  22.216   2.884  19.895
97653W        W 1614  21.972   3.018  20.393
97654W        W 1615  22.763   2.590  20.873
97655W        W 1616  23.136   1.950  19.492
97656W        W 1617  23.158   0.355  20.585
97657W        W 1618  22.606   1.989  18.350
97658W        W 1619  22.261   1.022  18.529
97659W        W 1620  22.323   2.978  19.323
97660W        W 1621  21.878   1.712  19.163
97661W        W 1622  22.989   2.127  20.736
97662W        W 1623  22.413   1.301  20.692
97663W        W 1624  22.398   1.177  21.614
97664W        W 1625  22.288   0.094  19.773
97665W        W 1626  22.591   3.365  19.846
97666W        W 1627  23.249   1.082  18.832
97667W        W 1628  22.818   0.366  21.496
97668W        W 1629  22.906   0.085  18.828
97669W        W 1630  22.284   2.071  20.010
97670W        W 1631  22.598   0.909  20.079
97671W        W 1632  22.152   2.109  20.853
97672W        W 1633  22.205   0.786  20.364
97673W        W 1634  21.943   1.065  20.693
97674W        W 1635  22.470   0.481  18.577
97675W        W 1636  22.602   3.255  18.235
97676W        W 1637  22.808   0.498  19.241
97677W        W 1638  22.813   0.726  18.266
97678W        W 1639  21.882   2.044  20.415
97679W        W 1640  22.854   0.177  18.343
97680W        W 1641  23.150   2.246  21.202
97681W        W 1642  23.077   0.814  20.210
97682W        W 1643  22.503   0.770  19.608
97683W        W 1644  22.289   3.482  19.284
97684W        W 1645  22.656   2.297  18.768
97685W        W 1646  21.936   3.417  21.081
97686W        W 1647  22.353   2.643  20.613
97687W        W 1648  21.920   3.489  18.845
97688W        W 1649  23.182   2.782  18.500
97689W        W 1650  22.905   1.008  19.217
97690W        W 1651  22.004   0.237  18.512
97691W        W 1652  23.290   2.556  20.802
97692W        W 1653  23.089   2.472  19.894
97693W        W 1654  22.831   2.424  18.292
97694W        W 1655  22.072   2.665  19.060
97695W        W 1656  22.576   1.735  21.502
97696W        W 1657  23.280   0.295  21.688
97697W        W 1658  23.184   0.205  19.325
97698W        W 1659  22.188   0.214  20.407
97699W        W 1660  22.236   1.177  19.777
97700W        W 1661  22.347   0.783  18.997
97701W        W 1662  22.606   0.432  20.117
97702W        W 1663  21.868   0.694  18.535
97703W        W 1664  22.654   2.083  21.096
97704W        W 1665  22.025   2.067  18.268
97705W        W 1666  22.760   2.478  21.394
97706W        W 1667  22.281   1.645  21.025
97707W        W 1668  23.272   1.750  20.819
97708W        W 1669  22.270   2.508  21.734
97709W        W 1670  22.665   0.809  21.340
97710W        W 1671  22.925   0.488  21.002
97711W        W 1672  22.897   2.736  18.953
97712W        W 1673  22.420   0.860  20.941
97713W        W 1674  22.033   2.858  21.362
97714W        W 1675  22.776   0.850  20.600
97715W        W 1676  22.746   0.198  19.710
97716W        W 1677  22.490   2.911  21.524
97717W        W 1678  22.976   0.613  19.766
97718W        W 1679  22.745   2.106  19.856
97719W        W 1680  23.058   3.517  20.606
97720W        W 1681  22.133   1.599  18.486
97721W        W 1682  23.095   1.131  19.784
97722W        W 1683  23.101   1.000  21.083
97723W        W 1684  22.397   3.425  21.333
97724W        W 1685  22.509   2.786  18.463
97725W        W 1686  22.630   1.336  21.159
97726W        W 1687  23.148   2.323  19.111
97727W        W 1688  22.698   1.705  20.765
97728W        W 1689  22.363   0.377  21.175
97729W        W 1690  22.702   1.400  20.228
97730W        W 1691  21.874   2.973  20.895
97731W        W 1692  23.282   0.707  18.443
97732W        W 1693  22.417   1.523  19.224
97733W        W 1694  22.188   3.375  20.661
97734W        W 1695  22.112   1.650  21.595
97735W        W 1696  22.461   1.651  19.903
97736W        W 1697  22.755   2.590  19.552
97737W        W 1698  21.960   3.317  19.661
97738W        W 1699  22.469   2.504  19.197
97739W        W 1700  22.384   0.121  21.750
97740W        W 1701  21.978   2.528  20.242
97741W        W 1702  23.231   0.490  18.883
97742W        W 1703  23.035   1.974  21.732
97743W        W 1704  22.388   2.970  21.003
97744W        W 1705  22.979   2.953  21.726
97745W        W 1706  22.830   0.750  18.740
97746W        W 1707  22.990   1.592  19.901
97747W        W 1708  22.645   3.290  20.766
97748W        W 1709  22.253   2.079  21.363
97749W        W 1710  22.684   1.990  19.293
97750W        W 1711  23.055   2.997  20.688
97751W        W 1712  22.044   2.400  18.659
97752W        W 1713  22.209   1.900  19.548
97753W        W 1714  22.623   3.602  20.301
97754W        W 1715  22.838   3.087  19.415
97755W        W 1716  23.037   0.197  20.109
97756W        W 1717  22.100   3.019  18.657
97757W        W 1718  22.791   3.178  21.254
97758W        W 1719  22.268   2.001  18.950
97759W        W 1720  22.153   0.544  19.949
97760W        W 1721  21.953   0.363  19.026
97761W        W 1722  23.084   3.215  18.915
97762W        W 1723  22.166   3.378  20.086
97763W        W 1724  22.346   0.666  21.720
97764W        W 1725  22.077   1.266  19.053
97765W        W 1726  22.768   1.255  18.778
97766W        W 1727  22.874   1.863  20.304
97767W        W 1728  23.010   1.326  20.754
97768W        W 1729  22.046   1.242  21.185
97769W        W 1730  22.163   2.477  19.568
97770W        W 1731  22.310   1.774  20.458
97771W        W 1732  23.059   3.308  20.169
97772W        W 1733  22.519   2.504  20.064
97773W        W 1734  22.484   3.058  20.330
97774W        W 1735  22.611   1.509  18.325
97775W        W 1736  23.079   3.294  22.071
97776W        W 1737  23.162   1.446  23.054
97777W        W 1738  22.677   1.294  23.218
97778W        W 1739  22.350   0.375  23.033
97779W        W 1740  22.373   3.529  22.235
97780W        W 1741  22.766   3.575  22.911
97781W        W 1742  22.601   3.161  22.552
97782W        W 1743  22.606   1.989  21.995
97783W        W 1744  22.261   1.022  22.174
97784W        W 1745  22.323   2.978  22.968
97785W        W 1746  21.878   1.712  22.808
97786W        W 1747  23.249   1.082  22.477
97787W        W 1748  22.906   0.085  22.473
97788W        W 1749  22.470   0.481  22.222
97789W        W 1750  22.602   3.255  21.880
97790W        W 1751  22.808   0.498  22.886
97791W        W 1752  22.813   0.726  21.911
97792W        W 1753  22.854   0.177  21.988
97793W        W 1754  22.503   0.770  23.253
97794W        W 1755  22.289   3.482  22.929
97795W        W 1756  22.656   2.297  22.413
97796W        W 1757  21.920   3.489  22.490
97797W        W 1758  23.182   2.782  22.145
97798W        W 1759  22.905   1.008  22.862
97799W        W 1760  22.004   0.237  22.157
97800W        W 1761  22.831   2.424  21.937
97801W        W 1762  22.072   2.665  22.705
97802W        W 1763  23.184   0.205  22.970
97803W        W 1764  22.347   0.783  22.642
97804W        W 1765  21.868   0.694  22.180
97805W        W 1766  22.025   2.067  21.913
97806W        W 1767  22.897   2.736  22.598
97807W        W 1768  22.133   1.599  22.131
97808W        W 1769  22.509   2.786  22.108
97809W        W 1770  23.148   2.323  22.756
97810W        W 1771  23.282   0.707  22.088
97811W        W 1772  22.417   1.523  22.869
97812W        W 1773  22.755   2.590  23.197
97813W        W 1774  21.960   3.317  23.306
97814W        W 1775  22.469   2.504  22.842
97815W        W 1776  23.231   0.490  22.528
97816W        W 1777  22.830   0.750  22.385
97817W        W 1778  22.044   2.400  22.304
97818W        W 1779  22.209   1.900  23.193
97819W        W 1780  22.838   3.087  23.060
97820W        W 1781  22.100   3.019  22.302
97821W        W 1782  22.268   2.001  22.595
97822W        W 1783  21.953   0.363  22.671
97823W        W 1784  23.084   3.215  22.560
97824W        W 1785  22.077   1.266  22.698
97825W        W 1786  22.768   1.255  22.423
97826W        W 1787  22.163   2.477  23.213
97827W        W 1788  22.611   1.509  21.970
97828W        W 1789  21.950   7.239   3.359
97829W        W 1790  22.326   6.132   2.882
97830W        W 1791  23.162   5.090   1.188
97831W        W 1792  22.677   4.938   1.352
97832W        W 1793  21.992   4.406   3.104
97833W        W 1794  22.754   3.686   2.906
97834W        W 1795  22.033   4.171   2.579
97835W        W 1796  22.132   6.790   3.600
97836W        W 1797  22.086   4.963   2.025
97837W        W 1798  22.979   4.854   3.262
97838W        W 1799  22.556   5.862   2.248
97839W        W 1800  21.915   5.390   1.819
97840W        W 1801  22.951   5.362   3.011
97841W        W 1802  22.838   6.589   1.710
97842W        W 1803  21.937   4.902   3.570
97843W        W 1804  22.350   4.019   1.167
97844W        W 1805  22.877   6.277   2.166
97845W        W 1806  22.373   7.173   0.369
97846W        W 1807  22.766   7.219   1.045
97847W        W 1808  22.563   3.973   2.471
97848W        W 1809  22.601   6.805   0.686
97849W        W 1810  21.972   4.304   1.285
97850W        W 1811  22.216   6.528   1.674
97851W        W 1812  21.972   6.662   2.172
97852W        W 1813  22.763   6.234   2.652
97853W        W 1814  23.136   5.594   1.271
97854W        W 1815  23.158   3.999   2.364
97855W        W 1816  22.606   5.633   0.129
97856W        W 1817  22.261   4.666   0.308
97857W        W 1818  22.323   6.622   1.102
97858W        W 1819  21.878   5.356   0.942
97859W        W 1820  22.989   5.771   2.515
97860W        W 1821  22.413   4.945   2.471
97861W        W 1822  22.398   4.821   3.393
97862W        W 1823  22.288   3.738   1.552
97863W        W 1824  22.591   7.009   1.625
97864W        W 1825  23.249   4.726   0.611
97865W        W 1826  22.818   4.010   3.275
97866W        W 1827  22.906   3.729   0.607
97867W        W 1828  22.284   5.715   1.789
97868W        W 1829  22.598   4.553   1.858
97869W        W 1830  22.152   5.753   2.632
97870W        W 1831  22.205   4.430   2.143
97871W        W 1832  21.943   4.709   2.472
97872W        W 1833  22.470   4.125   0.356
97873W        W 1834  22.602   6.899   0.014
97874W        W 1835  22.808   4.142   1.020
97875W        W 1836  22.813   4.370   0.045
97876W        W 1837  21.882   5.688   2.194
97877W        W 1838  22.854   3.821   0.122
97878W        W 1839  23.150   5.890   2.981
97879W        W 1840  23.077   4.458   1.989
97880W        W 1841  22.503   4.414   1.387
97881W        W 1842  22.289   7.126   1.063
97882W        W 1843  22.656   5.941   0.547
97883W        W 1844  21.936   7.061   2.860
97884W        W 1845  22.353   6.287   2.392
97885W        W 1846  21.920   7.133   0.624
97886W        W 1847  23.182   6.426   0.279
97887W        W 1848  22.905   4.652   0.996
97888W        W 1849  22.004   3.881   0.291
97889W        W 1850  23.290   6.200   2.581
97890W        W 1851  23.089   6.116   1.673
97891W        W 1852  22.831   6.068   0.071
97892W        W 1853  22.072   6.309   0.839
97893W        W 1854  22.576   5.379   3.281
97894W        W 1855  23.280   3.939   3.467
97895W        W 1856  23.184   3.849   1.104
97896W        W 1857  22.188   3.858   2.186
97897W        W 1858  22.236   4.821   1.556
97898W        W 1859  22.347   4.427   0.776
97899W        W 1860  22.606   4.076   1.896
97900W        W 1861  21.868   4.338   0.314
97901W        W 1862  22.654   5.727   2.875
97902W        W 1863  22.025   5.711   0.047
97903W        W 1864  22.760   6.122   3.173
97904W        W 1865  22.281   5.289   2.804
97905W        W 1866  23.272   5.394   2.598
97906W        W 1867  22.270   6.152   3.513
97907W        W 1868  22.665   4.453   3.119
97908W        W 1869  22.925   4.132   2.781
97909W        W 1870  22.897   6.380   0.732
97910W        W 1871  22.420   4.504   2.720
97911W        W 1872  22.033   6.502   3.141
97912W        W 1873  22.776   4.494   2.379
97913W        W 1874  22.746   3.842   1.489
97914W        W 1875  22.490   6.555   3.303
97915W        W 1876  22.976   4.257   1.545
97916W        W 1877  22.745   5.750   1.635
97917W        W 1878  23.058   7.161   2.385
97918W        W 1879  22.133   5.243   0.265
97919W        W 1880  23.243   3.744   2.984
97920W        W 1881  23.095   4.775   1.563
97921W        W 1882  23.101   4.644   2.862
97922W        W 1883  22.397   7.069   3.112
97923W        W 1884  22.509   6.430   0.242
97924W        W 1885  22.630   4.980   2.938
97925W        W 1886  23.148   5.967   0.890
97926W        W 1887  22.698   5.349   2.544
97927W        W 1888  22.363   4.021   2.954
97928W        W 1889  22.702   5.044   2.007
97929W        W 1890  23.071   4.858   0.129
97930W        W 1891  21.874   6.617   2.674
97931W        W 1892  23.282   4.351   0.222
97932W        W 1893  22.417   5.167   1.003
97933W        W 1894  22.188   7.019   2.440
97934W        W 1895  22.112   5.294   3.374
97935W        W 1896  22.461   5.295   1.682
97936W        W 1897  22.755   6.234   1.331
97937W        W 1898  21.960   6.961   1.440
97938W        W 1899  22.469   6.148   0.976
97939W        W 1900  22.384   3.765   3.529
97940W        W 1901  21.978   6.172   2.021
97941W        W 1902  23.231   4.134   0.662
97942W        W 1903  23.035   5.618   3.511
97943W        W 1904  22.388   6.614   2.782
97944W        W 1905  22.979   6.597   3.505
97945W        W 1906  22.830   4.394   0.519
97946W        W 1907  22.990   5.236   1.680
97947W        W 1908  22.645   6.934   2.545
97948W        W 1909  22.253   5.723   3.142
97949W        W 1910  22.684   5.634   1.072
97950W        W 1911  23.055   6.641   2.467
97951W        W 1912  22.044   6.044   0.438
97952W        W 1913  22.209   5.544   1.327
97953W        W 1914  22.623   7.246   2.080
97954W        W 1915  22.838   6.731   1.194
97955W        W 1916  23.037   3.841   1.888
97956W        W 1917  22.100   6.663   0.436
97957W        W 1918  22.791   6.822   3.033
97958W        W 1919  22.268   5.645   0.729
97959W        W 1920  22.153   4.188   1.728
97960W        W 1921  21.953   4.007   0.805
97961W        W 1922  23.084   6.859   0.694
97962W        W 1923  22.166   7.022   1.865
97963W        W 1924  22.346   4.310   3.499
97964W        W 1925  22.077   4.910   0.832
97965W        W 1926  22.768   4.899   0.557
97966W        W 1927  22.874   5.507   2.083
97967W        W 1928  23.010   4.970   2.533
97968W        W 1929  22.046   4.886   2.964
97969W        W 1930  22.163   6.121   1.347
97970W        W 1931  22.310   5.418   2.237
97971W        W 1932  23.059   6.952   1.948
97972W        W 1933  22.519   6.148   1.843
97973W        W 1934  22.484   6.702   2.109
97974W        W 1935  22.611   5.153   0.104
97975W        W 1936  21.950   7.239   7.003
97976W        W 1937  22.326   6.132   6.526
97977W        W 1938  23.079   6.938   3.849
97978W        W 1939  23.162   5.090   4.832
97979W        W 1940  22.677   4.938   4.996
97980W        W 1941  21.992   4.406   6.748
97981W        W 1942  22.754   3.686   6.550
97982W        W 1943  22.033   4.171   6.223
97983W        W 1944  22.132   6.790   7.244
97984W        W 1945  22.086   4.963   5.669
97985W        W 1946  22.979   4.854   6.906
97986W        W 1947  22.556   5.862   5.892
97987W        W 1948  21.915   5.390   5.463
97988W        W 1949  22.951   5.362   6.655
97989W        W 1950  22.838   6.589   5.354
97990W        W 1951  21.937   4.902   7.214
97991W        W 1952  22.350   4.019   4.811
97992W        W 1953  22.877   6.277   5.810
97993W        W 1954  22.373   7.173   4.013
97994W        W 1955  22.766   7.219   4.689
97995W        W 1956  22.563   3.973   6.115
97996W        W 1957  22.601   6.805   4.330
97997W        W 1958  21.972   4.304   4.929
97998W        W 1959  22.216   6.528   5.318
97999W        W 1960  21.972   6.662   5.816
98000W        W 1961  22.763   6.234   6.296
98001W        W 1962  23.136   5.594   4.915
98002W        W 1963  23.158   3.999   6.008
98003W        W 1964  22.606   5.633   3.773
98004W        W 1965  22.261   4.666   3.952
98005W        W 1966  22.323   6.622   4.746
98006W        W 1967  21.878   5.356   4.586
98007W        W 1968  22.989   5.771   6.159
98008W        W 1969  22.413   4.945   6.115
98009W        W 1970  22.398   4.821   7.037
98010W        W 1971  22.288   3.738   5.196
98011W        W 1972  22.591   7.009   5.269
98012W        W 1973  23.249   4.726   4.255
98013W        W 1974  22.818   4.010   6.919
98014W        W 1975  22.906   3.729   4.251
98015W        W 1976  22.284   5.715   5.433
98016W        W 1977  22.598   4.553   5.502
98017W        W 1978  22.152   5.753   6.276
98018W        W 1979  22.205   4.430   5.787
98019W        W 1980  21.943   4.709   6.116
98020W        W 1981  22.470   4.125   4.000
98021W        W 1982  22.602   6.899   3.658
98022W        W 1983  22.808   4.142   4.664
98023W        W 1984  22.813   4.370   3.689
98024W        W 1985  21.882   5.688   5.838
98025W        W 1986  22.854   3.821   3.766
98026W        W 1987  23.150   5.890   6.625
98027W        W 1988  23.077   4.458   5.633
98028W        W 1989  22.503   4.414   5.031
98029W        W 1990  22.289   7.126   4.707
98030W        W 1991  22.656   5.941   4.191
98031W        W 1992  21.936   7.061   6.504
98032W        W 1993  22.353   6.287   6.036
98033W        W 1994  21.920   7.133   4.268
98034W        W 1995  23.182   6.426   3.923
98035W        W 1996  22.905   4.652   4.640
98036W        W 1997  22.004   3.881   3.935
98037W        W 1998  23.290   6.200   6.225
98038W        W 1999  23.089   6.116   5.317
98039W        W 2000  22.831   6.068   3.715
98040W        W 2001  22.072   6.309   4.483
98041W        W 2002  22.576   5.379   6.925
98042W        W 2003  23.280   3.939   7.111
98043W        W 2004  23.184   3.849   4.748
98044W        W 2005  22.188   3.858   5.830
98045W        W 2006  22.236   4.821   5.200
98046W        W 2007  22.347   4.427   4.420
98047W        W 2008  22.606   4.076   5.540
98048W        W 2009  21.868   4.338   3.958
98049W        W 2010  22.654   5.727   6.519
98050W        W 2011  22.025   5.711   3.691
98051W        W 2012  22.760   6.122   6.817
98052W        W 2013  22.281   5.289   6.448
98053W        W 2014  23.272   5.394   6.242
98054W        W 2015  22.270   6.152   7.157
98055W        W 2016  22.665   4.453   6.763
98056W        W 2017  22.925   4.132   6.425
98057W        W 2018  22.897   6.380   4.376
98058W        W 2019  22.420   4.504   6.364
98059W        W 2020  22.033   6.502   6.785
98060W        W 2021  22.776   4.494   6.023
98061W        W 2022  22.746   3.842   5.133
98062W        W 2023  22.490   6.555   6.947
98063W        W 2024  22.976   4.257   5.189
98064W        W 2025  22.745   5.750   5.279
98065W        W 2026  23.058   7.161   6.029
98066W        W 2027  22.133   5.243   3.909
98067W        W 2028  23.243   3.744   6.628
98068W        W 2029  23.095   4.775   5.207
98069W        W 2030  23.101   4.644   6.506
98070W        W 2031  22.397   7.069   6.756
98071W        W 2032  22.509   6.430   3.886
98072W        W 2033  22.630   4.980   6.582
98073W        W 2034  23.148   5.967   4.534
98074W        W 2035  22.698   5.349   6.188
98075W        W 2036  22.363   4.021   6.598
98076W        W 2037  22.702   5.044   5.651
98077W        W 2038  21.874   6.617   6.318
98078W        W 2039  23.282   4.351   3.866
98079W        W 2040  22.417   5.167   4.647
98080W        W 2041  22.188   7.019   6.084
98081W        W 2042  22.112   5.294   7.018
98082W        W 2043  22.461   5.295   5.326
98083W        W 2044  22.755   6.234   4.975
98084W        W 2045  21.960   6.961   5.084
98085W        W 2046  22.469   6.148   4.620
98086W        W 2047  22.384   3.765   7.173
98087W        W 2048  21.978   6.172   5.665
98088W        W 2049  23.231   4.134   4.306
98089W        W 2050  23.035   5.618   7.155
98090W        W 2051  22.388   6.614   6.426
98091W        W 2052  22.979   6.597   7.149
98092W        W 2053  22.830   4.394   4.163
98093W        W 2054  22.990   5.236   5.324
98094W        W 2055  22.645   6.934   6.189
98095W        W 2056  22.253   5.723   6.786
98096W        W 2057  22.684   5.634   4.716
98097W        W 2058  23.055   6.641   6.111
98098W        W 2059  22.044   6.044   4.082
98099W        W 2060  22.209   5.544   4.971
98100W        W 2061  22.623   7.246   5.724
98101W        W 2062  22.838   6.731   4.838
98102W        W 2063  23.037   3.841   5.532
98103W        W 2064  22.100   6.663   4.080
98104W        W 2065  22.791   6.822   6.677
98105W        W 2066  22.268   5.645   4.373
98106W        W 2067  22.153   4.188   5.372
98107W        W 2068  21.953   4.007   4.449
98108W        W 2069  23.084   6.859   4.338
98109W        W 2070  22.166   7.022   5.509
98110W        W 2071  22.346   4.310   7.143
98111W        W 2072  22.077   4.910   4.476
98112W        W 2073  22.768   4.899   4.201
98113W        W 2074  22.874   5.507   5.727
98114W        W 2075  23.010   4.970   6.177
98115W        W 2076  22.046   4.886   6.608
98116W        W 2077  22.163   6.121   4.991
98117W        W 2078  22.310   5.418   5.881
98118W        W 2079  23.059   6.952   5.592
98119W        W 2080  22.519   6.148   5.487
98120W        W 2081  22.484   6.702   5.753
98121W        W 2082  22.611   5.153   3.748
98122W        W 2083  21.950   7.239  10.648
98123W        W 2084  22.326   6.132  10.171
98124W        W 2085  23.079   6.938   7.494
98125W        W 2086  23.162   5.090   8.477
98126W        W 2087  22.677   4.938   8.641
98127W        W 2088  21.992   4.406  10.393
98128W        W 2089  22.754   3.686  10.195
98129W        W 2090  22.033   4.171   9.868
98130W        W 2091  22.132   6.790  10.889
98131W        W 2092  22.086   4.963   9.314
98132W        W 2093  22.979   4.854  10.551
98133W        W 2094  22.556   5.862   9.537
98134W        W 2095  21.915   5.390   9.108
98135W        W 2096  22.951   5.362  10.300
98136W        W 2097  22.838   6.589   8.999
98137W        W 2098  21.937   4.902  10.859
98138W        W 2099  22.350   4.019   8.456
98139W        W 2100  22.877   6.277   9.455
98140W        W 2101  22.373   7.173   7.658
98141W        W 2102  22.766   7.219   8.334
98142W        W 2103  22.563   3.973   9.760
98143W        W 2104  22.601   6.805   7.975
98144W        W 2105  21.972   4.304   8.574
98145W        W 2106  22.216   6.528   8.963
98146W        W 2107  21.972   6.662   9.461
98147W        W 2108  22.763   6.234   9.941
98148W        W 2109  23.136   5.594   8.560
98149W        W 2110  23.158   3.999   9.653
98150W        W 2111  22.606   5.633   7.418
98151W        W 2112  22.261   4.666   7.597
98152W        W 2113  22.323   6.622   8.391
98153W        W 2114  21.878   5.356   8.231
98154W        W 2115  22.989   5.771   9.804
98155W        W 2116  22.413   4.945   9.760
98156W        W 2117  22.398   4.821  10.682
98157W        W 2118  22.288   3.738   8.841
98158W        W 2119  22.591   7.009   8.914
98159W        W 2120  23.249   4.726   7.900
98160W        W 2121  22.818   4.010  10.564
98161W        W 2122  22.906   3.729   7.896
98162W        W 2123  22.284   5.715   9.078
98163W        W 2124  22.598   4.553   9.147
98164W        W 2125  22.152   5.753   9.921
98165W        W 2126  22.205   4.430   9.432
98166W        W 2127  21.943   4.709   9.761
98167W        W 2128  22.470   4.125   7.645
98168W        W 2129  22.602   6.899   7.303
98169W        W 2130  22.808   4.142   8.309
98170W        W 2131  22.813   4.370   7.334
98171W        W 2132  21.882   5.688   9.483
98172W        W 2133  22.854   3.821   7.411
98173W        W 2134  23.150   5.890  10.270
98174W        W 2135  23.077   4.458   9.278
98175W        W 2136  22.503   4.414   8.676
98176W        W 2137  22.289   7.126   8.352
98177W        W 2138  22.656   5.941   7.836
98178W        W 2139  21.936   7.061  10.149
98179W        W 2140  22.353   6.287   9.681
98180W        W 2141  21.920   7.133   7.913
98181W        W 2142  23.182   6.426   7.568
98182W        W 2143  22.905   4.652   8.285
98183W        W 2144  22.004   3.881   7.580
98184W        W 2145  23.290   6.200   9.870
98185W        W 2146  23.089   6.116   8.962
98186W        W 2147  22.831   6.068   7.360
98187W        W 2148  22.072   6.309   8.128
98188W        W 2149  22.576   5.379  10.570
98189W        W 2150  23.280   3.939  10.756
98190W        W 2151  23.184   3.849   8.393
98191W        W 2152  22.188   3.858   9.475
98192W        W 2153  22.236   4.821   8.845
98193W        W 2154  22.347   4.427   8.065
98194W        W 2155  22.606   4.076   9.185
98195W        W 2156  21.868   4.338   7.603
98196W        W 2157  22.654   5.727  10.164
98197W        W 2158  22.025   5.711   7.336
98198W        W 2159  22.760   6.122  10.462
98199W        W 2160  22.281   5.289  10.093
98200W        W 2161  23.272   5.394   9.887
98201W        W 2162  22.270   6.152  10.802
98202W        W 2163  22.665   4.453  10.408
98203W        W 2164  22.925   4.132  10.070
98204W        W 2165  22.897   6.380   8.021
98205W        W 2166  22.420   4.504  10.009
98206W        W 2167  22.033   6.502  10.430
98207W        W 2168  22.776   4.494   9.668
98208W        W 2169  22.746   3.842   8.778
98209W        W 2170  22.490   6.555  10.592
98210W        W 2171  22.976   4.257   8.834
98211W        W 2172  22.745   5.750   8.924
98212W        W 2173  23.058   7.161   9.674
98213W        W 2174  22.133   5.243   7.554
98214W        W 2175  23.243   3.744  10.273
98215W        W 2176  23.095   4.775   8.852
98216W        W 2177  23.101   4.644  10.151
98217W        W 2178  22.397   7.069  10.401
98218W        W 2179  22.509   6.430   7.531
98219W        W 2180  22.630   4.980  10.227
98220W        W 2181  23.148   5.967   8.179
98221W        W 2182  22.698   5.349   9.833
98222W        W 2183  22.363   4.021  10.243
98223W        W 2184  22.702   5.044   9.296
98224W        W 2185  21.874   6.617   9.963
98225W        W 2186  23.282   4.351   7.511
98226W        W 2187  22.417   5.167   8.292
98227W        W 2188  22.188   7.019   9.729
98228W        W 2189  22.112   5.294  10.663
98229W        W 2190  22.461   5.295   8.971
98230W        W 2191  22.755   6.234   8.620
98231W        W 2192  21.960   6.961   8.729
98232W        W 2193  22.469   6.148   8.265
98233W        W 2194  22.384   3.765  10.818
98234W        W 2195  21.978   6.172   9.310
98235W        W 2196  23.231   4.134   7.951
98236W        W 2197  23.035   5.618  10.800
98237W        W 2198  22.388   6.614  10.071
98238W        W 2199  22.979   6.597  10.794
98239W        W 2200  22.830   4.394   7.808
98240W        W 2201  22.990   5.236   8.969
98241W        W 2202  22.645   6.934   9.834
98242W        W 2203  22.253   5.723  10.431
98243W        W 2204  22.684   5.634   8.361
98244W        W 2205  23.055   6.641   9.756
98245W        W 2206  22.044   6.044   7.727
98246W        W 2207  22.209   5.544   8.616
98247W        W 2208  22.623   7.246   9.369
98248W        W 2209  22.838   6.731   8.483
98249W        W 2210  23.037   3.841   9.177
98250W        W 2211  22.100   6.663   7.725
98251W        W 2212  22.791   6.822  10.322
98252W        W 2213  22.268   5.645   8.018
98253W        W 2214  22.153   4.188   9.017
98254W        W 2215  21.953   4.007   8.094
98255W        W 2216  23.084   6.859   7.983
98256W        W 2217  22.166   7.022   9.154
98257W        W 2218  22.346   4.310  10.788
98258W        W 2219  22.077   4.910   8.121
98259W        W 2220  22.768   4.899   7.846
98260W        W 2221  22.874   5.507   9.372
98261W        W 2222  23.010   4.970   9.822
98262W        W 2223  22.046   4.886  10.253
98263W        W 2224  22.163   6.121   8.636
98264W        W 2225  22.310   5.418   9.526
98265W        W 2226  23.059   6.952   9.237
98266W        W 2227  22.519   6.148   9.132
98267W        W 2228  22.484   6.702   9.398
98268W        W 2229  22.611   5.153   7.393
98269W        W 2230  21.950   7.239  14.292
98270W        W 2231  22.326   6.132  13.815
98271W        W 2232  23.079   6.938  11.138
98272W        W 2233  23.162   5.090  12.121
98273W        W 2234  22.677   4.938  12.285
98274W        W 2235  21.992   4.406  14.037
98275W        W 2236  22.754   3.686  13.839
98276W        W 2237  22.033   4.171  13.512
98277W        W 2238  22.132   6.790  14.533
98278W        W 2239  22.086   4.963  12.958
98279W        W 2240  22.979   4.854  14.195
98280W        W 2241  22.556   5.862  13.181
98281W        W 2242  21.915   5.390  12.752
98282W        W 2243  22.951   5.362  13.944
98283W        W 2244  22.838   6.589  12.643
98284W        W 2245  21.937   4.902  14.503
98285W        W 2246  22.350   4.019  12.100
98286W        W 2247  22.877   6.277  13.099
98287W        W 2248  22.373   7.173  11.302
98288W        W 2249  22.766   7.219  11.978
98289W        W 2250  22.563   3.973  13.404
98290W        W 2251  22.601   6.805  11.619
98291W        W 2252  21.972   4.304  12.218
98292W        W 2253  22.216   6.528  12.607
98293W        W 2254  21.972   6.662  13.105
98294W        W 2255  22.763   6.234  13.585
98295W        W 2256  23.136   5.594  12.204
98296W        W 2257  23.158   3.999  13.297
98297W        W 2258  22.606   5.633  11.062
98298W        W 2259  22.261   4.666  11.241
98299W        W 2260  22.323   6.622  12.035
98300W        W 2261  21.878   5.356  11.875
98301W        W 2262  22.989   5.771  13.448
98302W        W 2263  22.413   4.945  13.404
98303W        W 2264  22.398   4.821  14.326
98304W        W 2265  22.591   7.009  12.558
98305W        W 2266  23.249   4.726  11.544
98306W        W 2267  22.818   4.010  14.208
98307W        W 2268  22.906   3.729  11.540
98308W        W 2269  22.284   5.715  12.722
98309W        W 2270  22.598   4.553  12.791
98310W        W 2271  22.152   5.753  13.565
98311W        W 2272  22.205   4.430  13.076
98312W        W 2273  21.943   4.709  13.405
98313W        W 2274  22.470   4.125  11.289
98314W        W 2275  22.602   6.899  10.947
98315W        W 2276  22.813   4.370  10.978
98316W        W 2277  21.882   5.688  13.127
98317W        W 2278  22.854   3.821  11.055
98318W        W 2279  23.150   5.890  13.914
98319W        W 2280  22.503   4.414  12.320
98320W        W 2281  22.289   7.126  11.996
98321W        W 2282  22.656   5.941  11.480
98322W        W 2283  21.936   7.061  13.793
98323W        W 2284  22.353   6.287  13.325
98324W        W 2285  21.920   7.133  11.557
98325W        W 2286  23.182   6.426  11.212
98326W        W 2287  22.905   4.652  11.929
98327W        W 2288  22.004   3.881  11.224
98328W        W 2289  23.290   6.200  13.514
98329W        W 2290  23.089   6.116  12.606
98330W        W 2291  22.831   6.068  11.004
98331W        W 2292  22.072   6.309  11.772
98332W        W 2293  22.576   5.379  14.214
98333W        W 2294  23.280   3.939  14.400
98334W        W 2295  23.184   3.849  12.037
98335W        W 2296  22.188   3.858  13.119
98336W        W 2297  22.236   4.821  12.489
98337W        W 2298  22.347   4.427  11.709
98338W        W 2299  22.606   4.076  12.829
98339W        W 2300  21.868   4.338  11.247
98340W        W 2301  22.654   5.727  13.808
98341W        W 2302  22.025   5.711  10.980
98342W        W 2303  22.760   6.122  14.106
98343W        W 2304  22.281   5.289  13.737
98344W        W 2305  23.272   5.394  13.531
98345W        W 2306  22.270   6.152  14.446
98346W        W 2307  22.665   4.453  14.052
98347W        W 2308  22.925   4.132  13.714
98348W        W 2309  22.897   6.380  11.665
98349W        W 2310  22.420   4.504  13.653
98350W        W 2311  22.033   6.502  14.074
98351W        W 2312  22.776   4.494  13.312
98352W        W 2313  22.490   6.555  14.236
98353W        W 2314  22.745   5.750  12.568
98354W        W 2315  23.058   7.161  13.318
98355W        W 2316  22.133   5.243  11.198
98356W        W 2317  23.243   3.744  13.917
98357W        W 2318  23.095   4.775  12.496
98358W        W 2319  23.101   4.644  13.795
98359W        W 2320  22.397   7.069  14.045
98360W        W 2321  22.509   6.430  11.175
98361W        W 2322  22.630   4.980  13.871
98362W        W 2323  23.148   5.967  11.823
98363W        W 2324  22.698   5.349  13.477
98364W        W 2325  22.363   4.021  13.887
98365W        W 2326  22.702   5.044  12.940
98366W        W 2327  21.874   6.617  13.607
98367W        W 2328  23.282   4.351  11.155
98368W        W 2329  22.417   5.167  11.936
98369W        W 2330  22.188   7.019  13.373
98370W        W 2331  22.112   5.294  14.307
98371W        W 2332  22.461   5.295  12.615
98372W        W 2333  22.755   6.234  12.264
98373W        W 2334  21.960   6.961  12.373
98374W        W 2335  22.469   6.148  11.909
98375W        W 2336  22.384   3.765  14.462
98376W        W 2337  21.978   6.172  12.954
98377W        W 2338  23.231   4.134  11.595
98378W        W 2339  23.035   5.618  14.444
98379W        W 2340  22.388   6.614  13.715
98380W        W 2341  22.979   6.597  14.438
98381W        W 2342  22.830   4.394  11.452
98382W        W 2343  22.990   5.236  12.613
98383W        W 2344  22.645   6.934  13.478
98384W        W 2345  22.253   5.723  14.075
98385W        W 2346  22.684   5.634  12.005
98386W        W 2347  23.055   6.641  13.400
98387W        W 2348  22.044   6.044  11.371
98388W        W 2349  22.209   5.544  12.260
98389W        W 2350  22.623   7.246  13.013
98390W        W 2351  22.838   6.731  12.127
98391W        W 2352  23.037   3.841  12.821
98392W        W 2353  22.100   6.663  11.369
98393W        W 2354  22.791   6.822  13.966
98394W        W 2355  22.268   5.645  11.662
98395W        W 2356  22.153   4.188  12.661
98396W        W 2357  21.953   4.007  11.738
98397W        W 2358  23.084   6.859  11.627
98398W        W 2359  22.166   7.022  12.798
98399W        W 2360  22.346   4.310  14.432
98400W        W 2361  22.077   4.910  11.765
98401W        W 2362  22.768   4.899  11.490
98402W        W 2363  22.874   5.507  13.016
98403W        W 2364  23.010   4.970  13.466
98404W        W 2365  22.046   4.886  13.897
98405W        W 2366  22.163   6.121  12.280
98406W        W 2367  22.310   5.418  13.170
98407W        W 2368  23.059   6.952  12.881
98408W        W 2369  22.519   6.148  12.776
98409W        W 2370  22.484   6.702  13.042
98410W        W 2371  22.611   5.153  11.037
98411W        W 2372  21.950   7.239  17.936
98412W        W 2373  22.326   6.132  17.459
98413W        W 2374  23.079   6.938  14.782
98414W        W 2375  23.162   5.090  15.765
98415W        W 2376  22.677   4.938  15.929
98416W        W 2377  21.992   4.406  17.681
98417W        W 2378  22.754   3.686  17.483
98418W        W 2379  22.033   4.171  17.156
98419W        W 2380  22.132   6.790  18.177
98420W        W 2381  22.086   4.963  16.602
98421W        W 2382  22.979   4.854  17.839
98422W        W 2383  22.556   5.862  16.825
98423W        W 2384  21.915   5.390  16.396
98424W        W 2385  22.951   5.362  17.588
98425W        W 2386  22.838   6.589  16.287
98426W        W 2387  21.937   4.902  18.147
98427W        W 2388  22.350   4.019  15.744
98428W        W 2389  22.877   6.277  16.743
98429W        W 2390  22.373   7.173  14.946
98430W        W 2391  22.766   7.219  15.622
98431W        W 2392  22.563   3.973  17.048
98432W        W 2393  22.601   6.805  15.263
98433W        W 2394  21.972   4.304  15.862
98434W        W 2395  22.216   6.528  16.251
98435W        W 2396  21.972   6.662  16.749
98436W        W 2397  22.763   6.234  17.229
98437W        W 2398  23.136   5.594  15.848
98438W        W 2399  23.158   3.999  16.941
98439W        W 2400  22.606   5.633  14.706
98440W        W 2401  22.261   4.666  14.885
98441W        W 2402  22.323   6.622  15.679
98442W        W 2403  21.878   5.356  15.519
98443W        W 2404  22.989   5.771  17.092
98444W        W 2405  22.413   4.945  17.048
98445W        W 2406  22.398   4.821  17.970
98446W        W 2407  22.288   3.738  16.129
98447W        W 2408  22.591   7.009  16.202
98448W        W 2409  23.249   4.726  15.188
98449W        W 2410  22.818   4.010  17.852
98450W        W 2411  22.906   3.729  15.184
98451W        W 2412  22.284   5.715  16.366
98452W        W 2413  22.598   4.553  16.435
98453W        W 2414  22.152   5.753  17.209
98454W        W 2415  22.205   4.430  16.720
98455W        W 2416  21.943   4.709  17.049
98456W        W 2417  22.470   4.125  14.933
98457W        W 2418  22.602   6.899  14.591
98458W        W 2419  22.808   4.142  15.597
98459W        W 2420  22.813   4.370  14.622
98460W        W 2421  21.882   5.688  16.771
98461W        W 2422  22.854   3.821  14.699
98462W        W 2423  23.150   5.890  17.558
98463W        W 2424  23.077   4.458  16.566
98464W        W 2425  22.503   4.414  15.964
98465W        W 2426  22.289   7.126  15.640
98466W        W 2427  22.656   5.941  15.124
98467W        W 2428  21.936   7.061  17.437
98468W        W 2429  22.353   6.287  16.969
98469W        W 2430  21.920   7.133  15.201
98470W        W 2431  23.182   6.426  14.856
98471W        W 2432  22.905   4.652  15.573
98472W        W 2433  22.004   3.881  14.868
98473W        W 2434  23.290   6.200  17.158
98474W        W 2435  23.089   6.116  16.250
98475W        W 2436  22.831   6.068  14.648
98476W        W 2437  22.072   6.309  15.416
98477W        W 2438  22.576   5.379  17.858
98478W        W 2439  23.280   3.939  18.044
98479W        W 2440  23.184   3.849  15.681
98480W        W 2441  22.188   3.858  16.763
98481W        W 2442  22.236   4.821  16.133
98482W        W 2443  22.347   4.427  15.353
98483W        W 2444  22.606   4.076  16.473
98484W        W 2445  21.868   4.338  14.891
98485W        W 2446  22.654   5.727  17.452
98486W        W 2447  22.025   5.711  14.624
98487W        W 2448  22.760   6.122  17.750
98488W        W 2449  22.281   5.289  17.381
98489W        W 2450  23.272   5.394  17.175
98490W        W 2451  22.270   6.152  18.090
98491W        W 2452  22.665   4.453  17.696
98492W        W 2453  22.925   4.132  17.358
98493W        W 2454  22.897   6.380  15.309
98494W        W 2455  22.420   4.504  17.297
98495W        W 2456  22.033   6.502  17.718
98496W        W 2457  22.776   4.494  16.956
98497W        W 2458  22.746   3.842  16.066
98498W        W 2459  22.490   6.555  17.880
98499W        W 2460  22.976   4.257  16.122
98500W        W 2461  22.745   5.750  16.212
98501W        W 2462  23.058   7.161  16.962
98502W        W 2463  22.133   5.243  14.842
98503W        W 2464  23.243   3.744  17.561
98504W        W 2465  23.095   4.775  16.140
98505W        W 2466  23.101   4.644  17.439
98506W        W 2467  22.397   7.069  17.689
98507W        W 2468  22.509   6.430  14.819
98508W        W 2469  22.630   4.980  17.515
98509W        W 2470  23.148   5.967  15.467
98510W        W 2471  22.698   5.349  17.121
98511W        W 2472  22.363   4.021  17.531
98512W        W 2473  22.702   5.044  16.584
98513W        W 2474  21.874   6.617  17.251
98514W        W 2475  23.282   4.351  14.799
98515W        W 2476  22.417   5.167  15.580
98516W        W 2477  22.188   7.019  17.017
98517W        W 2478  22.112   5.294  17.951
98518W        W 2479  22.461   5.295  16.259
98519W        W 2480  22.755   6.234  15.908
98520W        W 2481  21.960   6.961  16.017
98521W        W 2482  22.469   6.148  15.553
98522W        W 2483  22.384   3.765  18.106
98523W        W 2484  21.978   6.172  16.598
98524W        W 2485  23.231   4.134  15.239
98525W        W 2486  23.035   5.618  18.088
98526W        W 2487  22.388   6.614  17.359
98527W        W 2488  22.979   6.597  18.082
98528W        W 2489  22.830   4.394  15.096
98529W        W 2490  22.990   5.236  16.257
98530W        W 2491  22.645   6.934  17.122
98531W        W 2492  22.253   5.723  17.719
98532W        W 2493  22.684   5.634  15.649
98533W        W 2494  23.055   6.641  17.044
98534W        W 2495  22.044   6.044  15.015
98535W        W 2496  22.209   5.544  15.904
98536W        W 2497  22.623   7.246  16.657
98537W        W 2498  22.838   6.731  15.771
98538W        W 2499  23.037   3.841  16.465
98539W        W 2500  22.100   6.663  15.013
98540W        W 2501  22.791   6.822  17.610
98541W        W 2502  22.268   5.645  15.306
98542W        W 2503  22.153   4.188  16.305
98543W        W 2504  21.953   4.007  15.382
98544W        W 2505  23.084   6.859  15.271
98545W        W 2506  22.166   7.022  16.442
98546W        W 2507  22.346   4.310  18.076
98547W        W 2508  22.077   4.910  15.409
98548W        W 2509  22.768   4.899  15.134
98549W        W 2510  22.874   5.507  16.660
98550W        W 2511  23.010   4.970  17.110
98551W        W 2512  22.046   4.886  17.541
98552W        W 2513  22.163   6.121  15.924
98553W        W 2514  22.310   5.418  16.814
98554W        W 2515  23.059   6.952  16.525
98555W        W 2516  22.519   6.148  16.420
98556W        W 2517  22.484   6.702  16.686
98557W        W 2518  22.611   5.153  14.681
98558W        W 2519  21.950   7.239  21.580
98559W        W 2520  22.326   6.132  21.103
98560W        W 2521  23.079   6.938  18.426
98561W        W 2522  23.162   5.090  19.409
98562W        W 2523  22.677   4.938  19.573
98563W        W 2524  21.992   4.406  21.325
98564W        W 2525  22.754   3.686  21.127
98565W        W 2526  22.033   4.171  20.800
98566W        W 2527  22.132   6.790  21.821
98567W        W 2528  22.086   4.963  20.246
98568W        W 2529  22.979   4.854  21.483
98569W        W 2530  22.556   5.862  20.469
98570W        W 2531  21.915   5.390  20.040
98571W        W 2532  22.951   5.362  21.232
98572W        W 2533  22.838   6.589  19.931
98573W        W 2534  21.937   4.902  21.791
98574W        W 2535  22.350   4.019  19.388
98575W        W 2536  22.877   6.277  20.387
98576W        W 2537  22.373   7.173  18.590
98577W        W 2538  22.766   7.219  19.266
98578W        W 2539  22.563   3.973  20.692
98579W        W 2540  22.601   6.805  18.907
98580W        W 2541  21.972   4.304  19.506
98581W        W 2542  22.216   6.528  19.895
98582W        W 2543  21.972   6.662  20.393
98583W        W 2544  22.763   6.234  20.873
98584W        W 2545  23.136   5.594  19.492
98585W        W 2546  23.158   3.999  20.585
98586W        W 2547  22.606   5.633  18.350
98587W        W 2548  22.261   4.666  18.529
98588W        W 2549  22.323   6.622  19.323
98589W        W 2550  21.878   5.356  19.163
98590W        W 2551  22.989   5.771  20.736
98591W        W 2552  22.413   4.945  20.692
98592W        W 2553  22.398   4.821  21.614
98593W        W 2554  22.288   3.738  19.773
98594W        W 2555  22.591   7.009  19.846
98595W        W 2556  23.249   4.726  18.832
98596W        W 2557  22.818   4.010  21.496
98597W        W 2558  22.906   3.729  18.828
98598W        W 2559  22.284   5.715  20.010
98599W        W 2560  22.598   4.553  20.079
98600W        W 2561  22.152   5.753  20.853
98601W        W 2562  22.205   4.430  20.364
98602W        W 2563  21.943   4.709  20.693
98603W        W 2564  22.470   4.125  18.577
98604W        W 2565  22.602   6.899  18.235
98605W        W 2566  22.808   4.142  19.241
98606W        W 2567  22.813   4.370  18.266
98607W        W 2568  21.882   5.688  20.415
98608W        W 2569  22.854   3.821  18.343
98609W        W 2570  23.150   5.890  21.202
98610W        W 2571  23.077   4.458  20.210
98611W        W 2572  22.503   4.414  19.608
98612W        W 2573  22.289   7.126  19.284
98613W        W 2574  22.656   5.941  18.768
98614W        W 2575  21.936   7.061  21.081
98615W        W 2576  22.353   6.287  20.613
98616W        W 2577  21.920   7.133  18.845
98617W        W 2578  23.182   6.426  18.500
98618W        W 2579  22.905   4.652  19.217
98619W        W 2580  22.004   3.881  18.512
98620W        W 2581  23.290   6.200  20.802
98621W        W 2582  23.089   6.116  19.894
98622W        W 2583  22.831   6.068  18.292
98623W        W 2584  22.072   6.309  19.060
98624W        W 2585  22.576   5.379  21.502
98625W        W 2586  23.280   3.939  21.688
98626W        W 2587  23.184   3.849  19.325
98627W        W 2588  22.188   3.858  20.407
98628W        W 2589  22.236   4.821  19.777
98629W        W 2590  22.347   4.427  18.997
98630W        W 2591  22.606   4.076  20.117
98631W        W 2592  21.868   4.338  18.535
98632W        W 2593  22.654   5.727  21.096
98633W        W 2594  22.025   5.711  18.268
98634W        W 2595  22.760   6.122  21.394
98635W        W 2596  22.281   5.289  21.025
98636W        W 2597  23.272   5.394  20.819
98637W        W 2598  22.665   4.453  21.340
98638W        W 2599  22.925   4.132  21.002
98639W        W 2600  22.897   6.380  18.953
98640W        W 2601  22.420   4.504  20.941
98641W        W 2602  22.033   6.502  21.362
98642W        W 2603  22.776   4.494  20.600
98643W        W 2604  22.746   3.842  19.710
98644W        W 2605  22.490   6.555  21.524
98645W        W 2606  22.976   4.257  19.766
98646W        W 2607  22.745   5.750  19.856
98647W        W 2608  23.058   7.161  20.606
98648W        W 2609  22.133   5.243  18.486
98649W        W 2610  23.243   3.744  21.205
98650W        W 2611  23.095   4.775  19.784
98651W        W 2612  23.101   4.644  21.083
98652W        W 2613  22.397   7.069  21.333
98653W        W 2614  22.509   6.430  18.463
98654W        W 2615  22.630   4.980  21.159
98655W        W 2616  23.148   5.967  19.111
98656W        W 2617  22.698   5.349  20.765
98657W        W 2618  22.363   4.021  21.175
98658W        W 2619  22.702   5.044  20.228
98659W        W 2620  21.874   6.617  20.895
98660W        W 2621  23.282   4.351  18.443
98661W        W 2622  22.417   5.167  19.224
98662W        W 2623  22.188   7.019  20.661
98663W        W 2624  22.112   5.294  21.595
98664W        W 2625  22.461   5.295  19.903
98665W        W 2626  22.755   6.234  19.552
98666W        W 2627  21.960   6.961  19.661
98667W        W 2628  22.469   6.148  19.197
98668W        W 2629  22.384   3.765  21.750
98669W        W 2630  21.978   6.172  20.242
98670W        W 2631  23.231   4.134  18.883
98671W        W 2632  23.035   5.618  21.732
98672W        W 2633  22.388   6.614  21.003
98673W        W 2634  22.979   6.597  21.726
98674W        W 2635  22.830   4.394  18.740
98675W        W 2636  22.990   5.236  19.901
98676W        W 2637  22.645   6.934  20.766
98677W        W 2638  22.684   5.634  19.293
98678W        W 2639  23.055   6.641  20.688
98679W        W 2640  22.044   6.044  18.659
98680W        W 2641  22.209   5.544  19.548
98681W        W 2642  22.623   7.246  20.301
98682W        W 2643  22.838   6.731  19.415
98683W        W 2644  23.037   3.841  20.109
98684W        W 2645  22.100   6.663  18.657
98685W        W 2646  22.791   6.822  21.254
98686W        W 2647  22.268   5.645  18.950
98687W        W 2648  22.153   4.188  19.949
98688W        W 2649  21.953   4.007  19.026
98689W        W 2650  23.084   6.859  18.915
98690W        W 2651  22.166   7.022  20.086
98691W        W 2652  22.346   4.310  21.720
98692W        W 2653  22.077   4.910  19.053
98693W        W 2654  22.768   4.899  18.778
98694W        W 2655  22.874   5.507  20.304
98695W        W 2656  23.010   4.970  20.754
98696W        W 2657  22.046   4.886  21.185
98697W        W 2658  22.163   6.121  19.568
98698W        W 2659  22.310   5.418  20.458
98699W        W 2660  23.059   6.952  20.169
98700W        W 2661  22.519   6.148  20.064
98701W        W 2662  22.484   6.702  20.330
98702W        W 2663  22.611   5.153  18.325
98703W        W 2664  23.079   6.938  22.071
98704W        W 2665  23.162   5.090  23.054
98705W        W 2666  22.677   4.938  23.218
98706W        W 2667  22.350   4.019  23.033
98707W        W 2668  22.373   7.173  22.235
98708W        W 2669  22.766   7.219  22.911
98709W        W 2670  22.601   6.805  22.552
98710W        W 2671  22.606   5.633  21.995
98711W        W 2672  22.261   4.666  22.174
98712W        W 2673  22.323   6.622  22.968
98713W        W 2674  21.878   5.356  22.808
98714W        W 2675  23.249   4.726  22.477
98715W        W 2676  22.906   3.729  22.473
98716W        W 2677  22.470   4.125  22.222
98717W        W 2678  22.602   6.899  21.880
98718W        W 2679  22.808   4.142  22.886
98719W        W 2680  22.813   4.370  21.911
98720W        W 2681  22.854   3.821  21.988
98721W        W 2682  22.503   4.414  23.253
98722W        W 2683  22.289   7.126  22.929
98723W        W 2684  22.656   5.941  22.413
98724W        W 2685  21.920   7.133  22.490
98725W        W 2686  23.182   6.426  22.145
98726W        W 2687  22.905   4.652  22.862
98727W        W 2688  22.004   3.881  22.157
98728W        W 2689  22.831   6.068  21.937
98729W        W 2690  22.072   6.309  22.705
98730W        W 2691  23.184   3.849  22.970
98731W        W 2692  22.347   4.427  22.642
98732W        W 2693  21.868   4.338  22.180
98733W        W 2694  22.897   6.380  22.598
98734W        W 2695  22.133   5.243  22.131
98735W        W 2696  22.509   6.430  22.108
98736W        W 2697  23.148   5.967  22.756
98737W        W 2698  23.282   4.351  22.088
98738W        W 2699  22.417   5.167  22.869
98739W        W 2700  22.755   6.234  23.197
98740W        W 2701  21.960   6.961  23.306
98741W        W 2702  22.469   6.148  22.842
98742W        W 2703  23.231   4.134  22.528
98743W        W 2704  22.830   4.394  22.385
98744W        W 2705  22.209   5.544  23.193
98745W        W 2706  22.838   6.731  23.060
98746W        W 2707  22.100   6.663  22.302
98747W        W 2708  22.268   5.645  22.595
98748W        W 2709  21.953   4.007  22.671
98749W        W 2710  23.084   6.859  22.560
98750W        W 2711  22.077   4.910  22.698
98751W        W 2712  22.768   4.899  22.423
98752W        W 2713  22.163   6.121  23.213
98753W        W 2714  22.611   5.153  21.970
98754W        W 2715  21.950  10.884   3.359
98755W        W 2716  22.326   9.777   2.882
98756W        W 2717  23.162   8.735   1.188
98757W        W 2718  22.677   8.583   1.352
98758W        W 2719  21.992   8.051   3.104
98759W        W 2720  22.754   7.331   2.906
98760W        W 2721  22.033   7.816   2.579
98761W        W 2722  22.132  10.435   3.600
98762W        W 2723  22.086   8.608   2.025
98763W        W 2724  22.979   8.499   3.262
98764W        W 2725  22.556   9.507   2.248
98765W        W 2726  21.915   9.035   1.819
98766W        W 2727  22.951   9.007   3.011
98767W        W 2728  22.838  10.234   1.710
98768W        W 2729  21.937   8.547   3.570
98769W        W 2730  22.350   7.664   1.167
98770W        W 2731  22.877   9.922   2.166
98771W        W 2732  22.373  10.818   0.369
98772W        W 2733  22.766  10.864   1.045
98773W        W 2734  22.563   7.618   2.471
98774W        W 2735  22.601  10.450   0.686
98775W        W 2736  21.972   7.949   1.285
98776W        W 2737  22.216  10.173   1.674
98777W        W 2738  21.972  10.307   2.172
98778W        W 2739  22.763   9.879   2.652
98779W        W 2740  23.136   9.239   1.271
98780W        W 2741  23.158   7.644   2.364
98781W        W 2742  22.606   9.278   0.129
98782W        W 2743  22.261   8.311   0.308
98783W        W 2744  22.323  10.267   1.102
98784W        W 2745  21.878   9.001   0.942
98785W        W 2746  22.989   9.416   2.515
98786W        W 2747  22.413   8.590   2.471
98787W        W 2748  22.398   8.466   3.393
98788W        W 2749  22.288   7.383   1.552
98789W        W 2750  22.591  10.654   1.625
98790W        W 2751  23.249   8.371   0.611
98791W        W 2752  22.818   7.655   3.275
98792W        W 2753  22.906   7.374   0.607
98793W        W 2754  22.284   9.360   1.789
98794W        W 2755  22.598   8.198   1.858
98795W        W 2756  22.152   9.398   2.632
98796W        W 2757  22.205   8.075   2.143
98797W        W 2758  21.943   8.354   2.472
98798W        W 2759  22.470   7.770   0.356
98799W        W 2760  22.602  10.544   0.014
98800W        W 2761  22.808   7.787   1.020
98801W        W 2762  22.813   8.015   0.045
98802W        W 2763  21.882   9.333   2.194
98803W        W 2764  22.854   7.466   0.122
98804W        W 2765  23.150   9.535   2.981
98805W        W 2766  23.077   8.103   1.989
98806W        W 2767  22.503   8.059   1.387
98807W        W 2768  22.289  10.771   1.063
98808W        W 2769  22.656   9.586   0.547
98809W        W 2770  21.936  10.706   2.860
98810W        W 2771  22.353   9.932   2.392
98811W        W 2772  21.920  10.778   0.624
98812W        W 2773  23.182  10.071   0.279
98813W        W 2774  22.905   8.297   0.996
98814W        W 2775  22.004   7.526   0.291
98815W        W 2776  23.290   9.845   2.581
98816W        W 2777  23.089   9.761   1.673
98817W        W 2778  22.831   9.713   0.071
98818W        W 2779  22.072   9.954   0.839
98819W        W 2780  22.576   9.024   3.281
98820W        W 2781  23.280   7.584   3.467
98821W        W 2782  23.184   7.494   1.104
98822W        W 2783  22.188   7.503   2.186
98823W        W 2784  22.236   8.466   1.556
98824W        W 2785  22.347   8.072   0.776
98825W        W 2786  22.606   7.721   1.896
98826W        W 2787  21.868   7.983   0.314
98827W        W 2788  22.654   9.372   2.875
98828W        W 2789  22.025   9.356   0.047
98829W        W 2790  22.760   9.767   3.173
98830W        W 2791  22.281   8.934   2.804
98831W        W 2792  23.272   9.039   2.598
98832W        W 2793  22.270   9.797   3.513
98833W        W 2794  22.665   8.098   3.119
98834W        W 2795  22.925   7.777   2.781
98835W        W 2796  22.897  10.025   0.732
98836W        W 2797  22.420   8.149   2.720
98837W        W 2798  22.033  10.147   3.141
98838W        W 2799  22.776   8.139   2.379
98839W        W 2800  22.746   7.487   1.489
98840W        W 2801  22.490  10.200   3.303
98841W        W 2802  22.976   7.902   1.545
98842W        W 2803  22.745   9.395   1.635
98843W        W 2804  23.058  10.806   2.385
98844W        W 2805  22.133   8.888   0.265
98845W        W 2806  23.243   7.389   2.984
98846W        W 2807  23.095   8.420   1.563
98847W        W 2808  23.101   8.289   2.862
98848W        W 2809  22.397  10.714   3.112
98849W        W 2810  22.509  10.075   0.242
98850W        W 2811  22.630   8.625   2.938
98851W        W 2812  23.148   9.612   0.890
98852W        W 2813  22.698   8.994   2.544
98853W        W 2814  22.363   7.666   2.954
98854W        W 2815  22.702   8.689   2.007
98855W        W 2816  23.071   8.503   0.129
98856W        W 2817  21.874  10.262   2.674
98857W        W 2818  23.282   7.996   0.222
98858W        W 2819  22.417   8.812   1.003
98859W        W 2820  22.188  10.664   2.440
98860W        W 2821  22.112   8.939   3.374
98861W        W 2822  22.461   8.940   1.682
98862W        W 2823  22.755   9.879   1.331
98863W        W 2824  21.960  10.606   1.440
98864W        W 2825  22.469   9.793   0.976
98865W        W 2826  22.384   7.410   3.529
98866W        W 2827  21.978   9.817   2.021
98867W        W 2828  23.231   7.779   0.662
98868W        W 2829  23.035   9.263   3.511
98869W        W 2830  22.388  10.259   2.782
98870W        W 2831  22.979  10.242   3.505
98871W        W 2832  22.830   8.039   0.519
98872W        W 2833  22.990   8.881   1.680
98873W        W 2834  22.645  10.579   2.545
98874W        W 2835  22.253   9.368   3.142
98875W        W 2836  22.684   9.279   1.072
98876W        W 2837  23.055  10.286   2.467
98877W        W 2838  22.044   9.689   0.438
98878W        W 2839  22.209   9.189   1.327
98879W        W 2840  22.623  10.891   2.080
98880W        W 2841  22.838  10.376   1.194
98881W        W 2842  23.037   7.486   1.888
98882W        W 2843  22.100  10.308   0.436
98883W        W 2844  22.791  10.467   3.033
98884W        W 2845  22.268   9.290   0.729
98885W        W 2846  22.153   7.833   1.728
98886W        W 2847  21.953   7.652   0.805
98887W        W 2848  23.084  10.504   0.694
98888W        W 2849  22.166  10.667   1.865
98889W        W 2850  22.346   7.955   3.499
98890W        W 2851  22.077   8.555   0.832
98891W        W 2852  22.768   8.544   0.557
98892W        W 2853  22.874   9.152   2.083
98893W        W 2854  23.010   8.615   2.533
98894W        W 2855  22.046   8.531   2.964
98895W        W 2856  22.163   9.766   1.347
98896W        W 2857  22.310   9.063   2.237
98897W        W 2858  23.059  10.597   1.948
98898W        W 2859  22.519   9.793   1.843
98899W        W 2860  22.484  10.347   2.109
98900W        W 2861  22.611   8.798   0.104
98901W        W 2862  21.950  10.884   7.003
98902W        W 2863  22.326   9.777   6.526
98903W        W 2864  23.079  10.583   3.849
98904W        W 2865  23.162   8.735   4.832
98905W        W 2866  22.677   8.583   4.996
98906W        W 2867  21.992   8.051   6.748
98907W        W 2868  22.754   7.331   6.550
98908W        W 2869  22.033   7.816   6.223
98909W        W 2870  22.132  10.435   7.244
98910W        W 2871  22.086   8.608   5.669
98911W        W 2872  22.979   8.499   6.906
98912W        W 2873  22.556   9.507   5.892
98913W        W 2874  21.915   9.035   5.463
98914W        W 2875  22.951   9.007   6.655
98915W        W 2876  22.838  10.234   5.354
98916W        W 2877  21.937   8.547   7.214
98917W        W 2878  22.350   7.664   4.811
98918W        W 2879  22.877   9.922   5.810
98919W        W 2880  22.373  10.818   4.013
98920W        W 2881  22.766  10.864   4.689
98921W        W 2882  22.563   7.618   6.115
98922W        W 2883  22.601  10.450   4.330
98923W        W 2884  21.972   7.949   4.929
98924W        W 2885  22.216  10.173   5.318
98925W        W 2886  21.972  10.307   5.816
98926W        W 2887  22.763   9.879   6.296
98927W        W 2888  23.136   9.239   4.915
98928W        W 2889  23.158   7.644   6.008
98929W        W 2890  22.606   9.278   3.773
98930W        W 2891  22.261   8.311   3.952
98931W        W 2892  22.323  10.267   4.746
98932W        W 2893  21.878   9.001   4.586
98933W        W 2894  22.989   9.416   6.159
98934W        W 2895  22.413   8.590   6.115
98935W        W 2896  22.398   8.466   7.037
98936W        W 2897  22.288   7.383   5.196
98937W        W 2898  22.591  10.654   5.269
98938W        W 2899  23.249   8.371   4.255
98939W        W 2900  22.818   7.655   6.919
98940W        W 2901  22.906   7.374   4.251
98941W        W 2902  22.284   9.360   5.433
98942W        W 2903  22.598   8.198   5.502
98943W        W 2904  22.152   9.398   6.276
98944W        W 2905  22.205   8.075   5.787
98945W        W 2906  21.943   8.354   6.116
98946W        W 2907  22.470   7.770   4.000
98947W        W 2908  22.602  10.544   3.658
98948W        W 2909  22.808   7.787   4.664
98949W        W 2910  22.813   8.015   3.689
98950W        W 2911  21.882   9.333   5.838
98951W        W 2912  22.854   7.466   3.766
98952W        W 2913  23.150   9.535   6.625
98953W        W 2914  23.077   8.103   5.633
98954W        W 2915  22.503   8.059   5.031
98955W        W 2916  22.289  10.771   4.707
98956W        W 2917  22.656   9.586   4.191
98957W        W 2918  21.936  10.706   6.504
98958W        W 2919  22.353   9.932   6.036
98959W        W 2920  21.920  10.778   4.268
98960W        W 2921  23.182  10.071   3.923
98961W        W 2922  22.905   8.297   4.640
98962W        W 2923  22.004   7.526   3.935
98963W        W 2924  23.290   9.845   6.225
98964W        W 2925  23.089   9.761   5.317
98965W        W 2926  22.831   9.713   3.715
98966W        W 2927  22.072   9.954   4.483
98967W        W 2928  22.576   9.024   6.925
98968W        W 2929  23.280   7.584   7.111
98969W        W 2930  23.184   7.494   4.748
98970W        W 2931  22.188   7.503   5.830
98971W        W 2932  22.236   8.466   5.200
98972W        W 2933  22.347   8.072   4.420
98973W        W 2934  22.606   7.721   5.540
98974W        W 2935  21.868   7.983   3.958
98975W        W 2936  22.654   9.372   6.519
98976W        W 2937  22.025   9.356   3.691
98977W        W 2938  22.760   9.767   6.817
98978W        W 2939  22.281   8.934   6.448
98979W        W 2940  23.272   9.039   6.242
98980W        W 2941  22.270   9.797   7.157
98981W        W 2942  22.665   8.098   6.763
98982W        W 2943  22.925   7.777   6.425
98983W        W 2944  22.897  10.025   4.376
98984W        W 2945  22.420   8.149   6.364
98985W        W 2946  22.033  10.147   6.785
98986W        W 2947  22.776   8.139   6.023
98987W        W 2948  22.746   7.487   5.133
98988W        W 2949  22.490  10.200   6.947
98989W        W 2950  22.976   7.902   5.189
98990W        W 2951  22.745   9.395   5.279
98991W        W 2952  23.058  10.806   6.029
98992W        W 2953  22.133   8.888   3.909
98993W        W 2954  23.243   7.389   6.628
98994W        W 2955  23.095   8.420   5.207
98995W        W 2956  23.101   8.289   6.506
98996W        W 2957  22.397  10.714   6.756
98997W        W 2958  22.509  10.075   3.886
98998W        W 2959  22.630   8.625   6.582
98999W        W 2960  23.148   9.612   4.534
99000W        W 2961  22.698   8.994   6.188
99001W        W 2962  22.363   7.666   6.598
99002W        W 2963  22.702   8.689   5.651
99003W        W 2964  21.874  10.262   6.318
99004W        W 2965  23.282   7.996   3.866
99005W        W 2966  22.417   8.812   4.647
99006W        W 2967  22.188  10.664   6.084
99007W        W 2968  22.112   8.939   7.018
99008W        W 2969  22.461   8.940   5.326
99009W        W 2970  22.755   9.879   4.975
99010W        W 2971  21.960  10.606   5.084
99011W        W 2972  22.469   9.793   4.620
99012W        W 2973  22.384   7.410   7.173
99013W        W 2974  21.978   9.817   5.665
99014W        W 2975  23.231   7.779   4.306
99015W        W 2976  23.035   9.263   7.155
99016W        W 2977  22.388  10.259   6.426
99017W        W 2978  22.979  10.242   7.149
99018W        W 2979  22.830   8.039   4.163
99019W        W 2980  22.990   8.881   5.324
99020W        W 2981  22.645  10.579   6.189
99021W        W 2982  22.253   9.368   6.786
99022W        W 2983  22.684   9.279   4.716
99023W        W 2984  23.055  10.286   6.111
99024W        W 2985  22.044   9.689   4.082
99025W        W 2986  22.209   9.189   4.971
99026W        W 2987  22.623  10.891   5.724
99027W        W 2988  22.838  10.376   4.838
99028W        W 2989  23.037   7.486   5.532
99029W        W 2990  22.100  10.308   4.080
99030W        W 2991  22.791  10.467   6.677
99031W        W 2992  22.268   9.290   4.373
99032W        W 2993  22.153   7.833   5.372
99033W        W 2994  21.953   7.652   4.449
99034W        W 2995  23.084  10.504   4.338
99035W        W 2996  22.166  10.667   5.509
99036W        W 2997  22.346   7.955   7.143
99037W        W 2998  22.077   8.555   4.476
99038W        W 2999  22.768   8.544   4.201
99039W        W 3000  22.874   9.152   5.727
99040W        W 3001  23.010   8.615   6.177
99041W        W 3002  22.046   8.531   6.608
99042W        W 3003  22.163   9.766   4.991
99043W        W 3004  22.310   9.063   5.881
99044W        W 3005  23.059  10.597   5.592
99045W        W 3006  22.519   9.793   5.487
99046W        W 3007  22.484  10.347   5.753
99047W        W 3008  22.611   8.798   3.748
99048W        W 3009  21.950  10.884  10.648
99049W        W 3010  22.326   9.777  10.171
99050W        W 3011  23.079  10.583   7.494
99051W        W 3012  23.162   8.735   8.477
99052W        W 3013  22.677   8.583   8.641
99053W        W 3014  21.992   8.051  10.393
99054W        W 3015  22.754   7.331  10.195
99055W        W 3016  22.033   7.816   9.868
99056W        W 3017  22.132  10.435  10.889
99057W        W 3018  22.086   8.608   9.314
99058W        W 3019  22.979   8.499  10.551
99059W        W 3020  22.556   9.507   9.537
99060W        W 3021  21.915   9.035   9.108
99061W        W 3022  22.951   9.007  10.300
99062W        W 3023  22.838  10.234   8.999
99063W        W 3024  21.937   8.547  10.859
99064W        W 3025  22.350   7.664   8.456
99065W        W 3026  22.877   9.922   9.455
99066W        W 3027  22.373  10.818   7.658
99067W        W 3028  22.766  10.864   8.334
99068W        W 3029  22.563   7.618   9.760
99069W        W 3030  22.601  10.450   7.975
99070W        W 3031  21.972   7.949   8.574
99071W        W 3032  22.216  10.173   8.963
99072W        W 3033  21.972  10.307   9.461
99073W        W 3034  22.763   9.879   9.941
99074W        W 3035  23.136   9.239   8.560
99075W        W 3036  23.158   7.644   9.653
99076W        W 3037  22.606   9.278   7.418
99077W        W 3038  22.261   8.311   7.597
99078W        W 3039  22.323  10.267   8.391
99079W        W 3040  21.878   9.001   8.231
99080W        W 3041  22.989   9.416   9.804
99081W        W 3042  22.413   8.590   9.760
99082W        W 3043  22.398   8.466  10.682
99083W        W 3044  22.288   7.383   8.841
99084W        W 3045  22.591  10.654   8.914
99085W        W 3046  23.249   8.371   7.900
99086W        W 3047  22.818   7.655  10.564
99087W        W 3048  22.906   7.374   7.896
99088W        W 3049  22.284   9.360   9.078
99089W        W 3050  22.598   8.198   9.147
99090W        W 3051  22.152   9.398   9.921
99091W        W 3052  22.205   8.075   9.432
99092W        W 3053  21.943   8.354   9.761
99093W        W 3054  22.470   7.770   7.645
99094W        W 3055  22.602  10.544   7.303
99095W        W 3056  22.808   7.787   8.309
99096W        W 3057  22.813   8.015   7.334
99097W        W 3058  21.882   9.333   9.483
99098W        W 3059  22.854   7.466   7.411
99099W        W 3060  23.150   9.535  10.270
99100W        W 3061  23.077   8.103   9.278
99101W        W 3062  22.503   8.059   8.676
99102W        W 3063  22.289  10.771   8.352
99103W        W 3064  22.656   9.586   7.836
99104W        W 3065  21.936  10.706  10.149
99105W        W 3066  22.353   9.932   9.681
99106W        W 3067  21.920  10.778   7.913
99107W        W 3068  23.182  10.071   7.568
99108W        W 3069  22.905   8.297   8.285
99109W        W 3070  22.004   7.526   7.580
99110W        W 3071  23.290   9.845   9.870
99111W        W 3072  23.089   9.761   8.962
99112W        W 3073  22.831   9.713   7.360
99113W        W 3074  22.072   9.954   8.128
99114W        W 3075  22.576   9.024  10.570
99115W        W 3076  23.280   7.584  10.756
99116W        W 3077  23.184   7.494   8.393
99117W        W 3078  22.188   7.503   9.475
99118W        W 3079  22.236   8.466   8.845
99119W        W 3080  22.347   8.072   8.065
99120W        W 3081  22.606   7.721   9.185
99121W        W 3082  21.868   7.983   7.603
99122W        W 3083  22.654   9.372  10.164
99123W        W 3084  22.025   9.356   7.336
99124W        W 3085  22.760   9.767  10.462
99125W        W 3086  22.281   8.934  10.093
99126W        W 3087  23.272   9.039   9.887
99127W        W 3088  22.270   9.797  10.802
99128W        W 3089  22.665   8.098  10.408
99129W        W 3090  22.925   7.777  10.070
99130W        W 3091  22.897  10.025   8.021
99131W        W 3092  22.420   8.149  10.009
99132W        W 3093  22.033  10.147  10.430
99133W        W 3094  22.776   8.139   9.668
99134W        W 3095  22.746   7.487   8.778
99135W        W 3096  22.490  10.200  10.592
99136W        W 3097  22.976   7.902   8.834
99137W        W 3098  22.745   9.395   8.924
99138W        W 3099  23.058  10.806   9.674
99139W        W 3100  22.133   8.888   7.554
99140W        W 3101  23.243   7.389  10.273
99141W        W 3102  23.095   8.420   8.852
99142W        W 3103  23.101   8.289  10.151
99143W        W 3104  22.397  10.714  10.401
99144W        W 3105  22.509  10.075   7.531
99145W        W 3106  22.630   8.625  10.227
99146W        W 3107  23.148   9.612   8.179
99147W        W 3108  22.698   8.994   9.833
99148W        W 3109  22.363   7.666  10.243
99149W        W 3110  22.702   8.689   9.296
99150W        W 3111  21.874  10.262   9.963
99151W        W 3112  23.282   7.996   7.511
99152W        W 3113  22.417   8.812   8.292
99153W        W 3114  22.188  10.664   9.729
99154W        W 3115  22.112   8.939  10.663
99155W        W 3116  22.461   8.940   8.971
99156W        W 3117  22.755   9.879   8.620
99157W        W 3118  21.960  10.606   8.729
99158W        W 3119  22.469   9.793   8.265
99159W        W 3120  22.384   7.410  10.818
99160W        W 3121  21.978   9.817   9.310
99161W        W 3122  23.231   7.779   7.951
99162W        W 3123  23.035   9.263  10.800
99163W        W 3124  22.388  10.259  10.071
99164W        W 3125  22.979  10.242  10.794
99165W        W 3126  22.830   8.039   7.808
99166W        W 3127  22.990   8.881   8.969
99167W        W 3128  22.645  10.579   9.834
99168W        W 3129  22.253   9.368  10.431
99169W        W 3130  22.684   9.279   8.361
99170W        W 3131  23.055  10.286   9.756
99171W        W 3132  22.044   9.689   7.727
99172W        W 3133  22.209   9.189   8.616
99173W        W 3134  22.623  10.891   9.369
99174W        W 3135  22.838  10.376   8.483
99175W        W 3136  23.037   7.486   9.177
99176W        W 3137  22.100  10.308   7.725
99177W        W 3138  22.791  10.467  10.322
99178W        W 3139  22.268   9.290   8.018
99179W        W 3140  22.153   7.833   9.017
99180W        W 3141  21.953   7.652   8.094
99181W        W 3142  23.084  10.504   7.983
99182W        W 3143  22.166  10.667   9.154
99183W        W 3144  22.346   7.955  10.788
99184W        W 3145  22.077   8.555   8.121
99185W        W 3146  22.768   8.544   7.846
99186W        W 3147  22.874   9.152   9.372
99187W        W 3148  23.010   8.615   9.822
99188W        W 3149  22.046   8.531  10.253
99189W        W 3150  22.163   9.766   8.636
99190W        W 3151  22.310   9.063   9.526
99191W        W 3152  23.059  10.597   9.237
99192W        W 3153  22.519   9.793   9.132
99193W        W 3154  22.484  10.347   9.398
99194W        W 3155  22.611   8.798   7.393
99195W        W 3156  21.950  10.884  14.292
99196W        W 3157  22.326   9.777  13.815
99197W        W 3158  23.079  10.583  11.138
99198W        W 3159  23.162   8.735  12.121
99199W        W 3160  22.677   8.583  12.285
99200W        W 3161  21.992   8.051  14.037
99201W        W 3162  22.754   7.331  13.839
99202W        W 3163  22.033   7.816  13.512
99203W        W 3164  22.132  10.435  14.533
99204W        W 3165  22.086   8.608  12.958
99205W        W 3166  22.979   8.499  14.195
99206W        W 3167  22.556   9.507  13.181
99207W        W 3168  21.915   9.035  12.752
99208W        W 3169  22.951   9.007  13.944
99209W        W 3170  22.838  10.234  12.643
99210W        W 3171  21.937   8.547  14.503
99211W        W 3172  22.350   7.664  12.100
99212W        W 3173  22.877   9.922  13.099
99213W        W 3174  22.373  10.818  11.302
99214W        W 3175  22.766  10.864  11.978
99215W        W 3176  22.563   7.618  13.404
99216W        W 3177  22.601  10.450  11.619
99217W        W 3178  21.972   7.949  12.218
99218W        W 3179  22.216  10.173  12.607
99219W        W 3180  21.972  10.307  13.105
99220W        W 3181  22.763   9.879  13.585
99221W        W 3182  23.136   9.239  12.204
99222W        W 3183  23.158   7.644  13.297
99223W        W 3184  22.606   9.278  11.062
99224W        W 3185  22.261   8.311  11.241
99225W        W 3186  22.323  10.267  12.035
99226W        W 3187  21.878   9.001  11.875
99227W        W 3188  22.989   9.416  13.448
99228W        W 3189  22.413   8.590  13.404
99229W        W 3190  22.398   8.466  14.326
99230W        W 3191  22.288   7.383  12.485
99231W        W 3192  22.591  10.654  12.558
99232W        W 3193  23.249   8.371  11.544
99233W        W 3194  22.818   7.655  14.208
99234W        W 3195  22.906   7.374  11.540
99235W        W 3196  22.284   9.360  12.722
99236W        W 3197  22.598   8.198  12.791
99237W        W 3198  22.152   9.398  13.565
99238W        W 3199  22.205   8.075  13.076
99239W        W 3200  21.943   8.354  13.405
99240W        W 3201  22.470   7.770  11.289
99241W        W 3202  22.602  10.544  10.947
99242W        W 3203  22.808   7.787  11.953
99243W        W 3204  22.813   8.015  10.978
99244W        W 3205  21.882   9.333  13.127
99245W        W 3206  22.854   7.466  11.055
99246W        W 3207  23.150   9.535  13.914
99247W        W 3208  23.077   8.103  12.922
99248W        W 3209  22.503   8.059  12.320
99249W        W 3210  22.289  10.771  11.996
99250W        W 3211  22.656   9.586  11.480
99251W        W 3212  21.936  10.706  13.793
99252W        W 3213  22.353   9.932  13.325
99253W        W 3214  21.920  10.778  11.557
99254W        W 3215  23.182  10.071  11.212
99255W        W 3216  22.905   8.297  11.929
99256W        W 3217  22.004   7.526  11.224
99257W        W 3218  23.290   9.845  13.514
99258W        W 3219  23.089   9.761  12.606
99259W        W 3220  22.831   9.713  11.004
99260W        W 3221  22.072   9.954  11.772
99261W        W 3222  22.576   9.024  14.214
99262W        W 3223  23.280   7.584  14.400
99263W        W 3224  23.184   7.494  12.037
99264W        W 3225  22.188   7.503  13.119
99265W        W 3226  22.236   8.466  12.489
99266W        W 3227  22.347   8.072  11.709
99267W        W 3228  22.606   7.721  12.829
99268W        W 3229  21.868   7.983  11.247
99269W        W 3230  22.654   9.372  13.808
99270W        W 3231  22.025   9.356  10.980
99271W        W 3232  22.760   9.767  14.106
99272W        W 3233  22.281   8.934  13.737
99273W        W 3234  23.272   9.039  13.531
99274W        W 3235  22.270   9.797  14.446
99275W        W 3236  22.665   8.098  14.052
99276W        W 3237  22.925   7.777  13.714
99277W        W 3238  22.897  10.025  11.665
99278W        W 3239  22.420   8.149  13.653
99279W        W 3240  22.033  10.147  14.074
99280W        W 3241  22.776   8.139  13.312
99281W        W 3242  22.746   7.487  12.422
99282W        W 3243  22.490  10.200  14.236
99283W        W 3244  22.976   7.902  12.478
99284W        W 3245  22.745   9.395  12.568
99285W        W 3246  23.058  10.806  13.318
99286W        W 3247  22.133   8.888  11.198
99287W        W 3248  23.243   7.389  13.917
99288W        W 3249  23.095   8.420  12.496
99289W        W 3250  23.101   8.289  13.795
99290W        W 3251  22.397  10.714  14.045
99291W        W 3252  22.509  10.075  11.175
99292W        W 3253  22.630   8.625  13.871
99293W        W 3254  23.148   9.612  11.823
99294W        W 3255  22.698   8.994  13.477
99295W        W 3256  22.363   7.666  13.887
99296W        W 3257  22.702   8.689  12.940
99297W        W 3258  21.874  10.262  13.607
99298W        W 3259  23.282   7.996  11.155
99299W        W 3260  22.417   8.812  11.936
99300W        W 3261  22.188  10.664  13.373
99301W        W 3262  22.112   8.939  14.307
99302W        W 3263  22.461   8.940  12.615
99303W        W 3264  22.755   9.879  12.264
99304W        W 3265  21.960  10.606  12.373
99305W        W 3266  22.469   9.793  11.909
99306W        W 3267  22.384   7.410  14.462
99307W        W 3268  21.978   9.817  12.954
99308W        W 3269  23.231   7.779  11.595
99309W        W 3270  23.035   9.263  14.444
99310W        W 3271  22.388  10.259  13.715
99311W        W 3272  22.979  10.242  14.438
99312W        W 3273  22.830   8.039  11.452
99313W        W 3274  22.990   8.881  12.613
99314W        W 3275  22.645  10.579  13.478
99315W        W 3276  22.253   9.368  14.075
99316W        W 3277  22.684   9.279  12.005
99317W        W 3278  23.055  10.286  13.400
99318W        W 3279  22.044   9.689  11.371
99319W        W 3280  22.209   9.189  12.260
99320W        W 3281  22.623  10.891  13.013
99321W        W 3282  22.838  10.376  12.127
99322W        W 3283  23.037   7.486  12.821
99323W        W 3284  22.100  10.308  11.369
99324W        W 3285  22.791  10.467  13.966
99325W        W 3286  22.268   9.290  11.662
99326W        W 3287  22.153   7.833  12.661
99327W        W 3288  21.953   7.652  11.738
99328W        W 3289  23.084  10.504  11.627
99329W        W 3290  22.166  10.667  12.798
99330W        W 3291  22.346   7.955  14.432
99331W        W 3292  22.077   8.555  11.765
99332W        W 3293  22.768   8.544  11.490
99333W        W 3294  22.874   9.152  13.016
99334W        W 3295  23.010   8.615  13.466
99335W        W 3296  22.046   8.531  13.897
99336W        W 3297  22.163   9.766  12.280
99337W        W 3298  22.310   9.063  13.170
99338W        W 3299  23.059  10.597  12.881
99339W        W 3300  22.519   9.793  12.776
99340W        W 3301  22.484  10.347  13.042
99341W        W 3302  22.611   8.798  11.037
99342W        W 3303  21.950  10.884  17.936
99343W        W 3304  22.326   9.777  17.459
99344W        W 3305  23.079  10.583  14.782
99345W        W 3306  23.162   8.735  15.765
99346W        W 3307  22.677   8.583  15.929
99347W        W 3308  21.992   8.051  17.681
99348W        W 3309  22.754   7.331  17.483
99349W        W 3310  22.033   7.816  17.156
99350W        W 3311  22.132  10.435  18.177
99351W        W 3312  22.086   8.608  16.602
99352W        W 3313  22.979   8.499  17.839
99353W        W 3314  22.556   9.507  16.825
99354W        W 3315  21.915   9.035  16.396
99355W        W 3316  22.951   9.007  17.588
99356W        W 3317  22.838  10.234  16.287
99357W        W 3318  21.937   8.547  18.147
99358W        W 3319  22.350   7.664  15.744
99359W        W 3320  22.877   9.922  16.743
99360W        W 3321  22.373  10.818  14.946
99361W        W 3322  22.766  10.864  15.622
99362W        W 3323  22.563   7.618  17.048
99363W        W 3324  22.601  10.450  15.263
99364W        W 3325  21.972   7.949  15.862
99365W        W 3326  22.216  10.173  16.251
99366W        W 3327  21.972  10.307  16.749
99367W        W 3328  22.763   9.879  17.229
99368W        W 3329  23.136   9.239  15.848
99369W        W 3330  23.158   7.644  16.941
99370W        W 3331  22.606   9.278  14.706
99371W        W 3332  22.261   8.311  14.885
99372W        W 3333  22.323  10.267  15.679
99373W        W 3334  21.878   9.001  15.519
99374W        W 3335  22.989   9.416  17.092
99375W        W 3336  22.413   8.590  17.048
99376W        W 3337  22.398   8.466  17.970
99377W        W 3338  22.288   7.383  16.129
99378W        W 3339  22.591  10.654  16.202
99379W        W 3340  23.249   8.371  15.188
99380W        W 3341  22.818   7.655  17.852
99381W        W 3342  22.906   7.374  15.184
99382W        W 3343  22.284   9.360  16.366
99383W        W 3344  22.598   8.198  16.435
99384W        W 3345  22.152   9.398  17.209
99385W        W 3346  22.205   8.075  16.720
99386W        W 3347  21.943   8.354  17.049
99387W        W 3348  22.470   7.770  14.933
99388W        W 3349  22.602  10.544  14.591
99389W        W 3350  22.808   7.787  15.597
99390W        W 3351  22.813   8.015  14.622
99391W        W 3352  21.882   9.333  16.771
99392W        W 3353  22.854   7.466  14.699
99393W        W 3354  23.150   9.535  17.558
99394W        W 3355  23.077   8.103  16.566
99395W        W 3356  22.503   8.059  15.964
99396W        W 3357  22.289  10.771  15.640
99397W        W 3358  22.656   9.586  15.124
99398W        W 3359  21.936  10.706  17.437
99399W        W 3360  22.353   9.932  16.969
99400W        W 3361  21.920  10.778  15.201
99401W        W 3362  23.182  10.071  14.856
99402W        W 3363  22.905   8.297  15.573
99403W        W 3364  22.004   7.526  14.868
99404W        W 3365  23.290   9.845  17.158
99405W        W 3366  23.089   9.761  16.250
99406W        W 3367  22.831   9.713  14.648
99407W        W 3368  22.072   9.954  15.416
99408W        W 3369  22.576   9.024  17.858
99409W        W 3370  23.280   7.584  18.044
99410W        W 3371  23.184   7.494  15.681
99411W        W 3372  22.188   7.503  16.763
99412W        W 3373  22.236   8.466  16.133
99413W        W 3374  22.347   8.072  15.353
99414W        W 3375  22.606   7.721  16.473
99415W        W 3376  21.868   7.983  14.891
99416W        W 3377  22.654   9.372  17.452
99417W        W 3378  22.025   9.356  14.624
99418W        W 3379  22.760   9.767  17.750
99419W        W 3380  22.281   8.934  17.381
99420W        W 3381  23.272   9.039  17.175
99421W        W 3382  22.270   9.797  18.090
99422W        W 3383  22.665   8.098  17.696
99423W        W 3384  22.925   7.777  17.358
99424W        W 3385  22.897  10.025  15.309
99425W        W 3386  22.420   8.149  17.297
99426W        W 3387  22.033  10.147  17.718
99427W        W 3388  22.776   8.139  16.956
99428W        W 3389  22.746   7.487  16.066
99429W        W 3390  22.490  10.200  17.880
99430W        W 3391  22.976   7.902  16.122
99431W        W 3392  22.745   9.395  16.212
99432W        W 3393  23.058  10.806  16.962
99433W        W 3394  22.133   8.888  14.842
99434W        W 3395  23.243   7.389  17.561
99435W        W 3396  23.095   8.420  16.140
99436W        W 3397  23.101   8.289  17.439
99437W        W 3398  22.397  10.714  17.689
99438W        W 3399  22.509  10.075  14.819
99439W        W 3400  22.630   8.625  17.515
99440W        W 3401  23.148   9.612  15.467
99441W        W 3402  22.698   8.994  17.121
99442W        W 3403  22.363   7.666  17.531
99443W        W 3404  22.702   8.689  16.584
99444W        W 3405  21.874  10.262  17.251
99445W        W 3406  23.282   7.996  14.799
99446W        W 3407  22.417   8.812  15.580
99447W        W 3408  22.188  10.664  17.017
99448W        W 3409  22.112   8.939  17.951
99449W        W 3410  22.461   8.940  16.259
99450W        W 3411  22.755   9.879  15.908
99451W        W 3412  21.960  10.606  16.017
99452W        W 3413  22.469   9.793  15.553
99453W        W 3414  22.384   7.410  18.106
99454W        W 3415  21.978   9.817  16.598
99455W        W 3416  23.231   7.779  15.239
99456W        W 3417  23.035   9.263  18.088
99457W        W 3418  22.388  10.259  17.359
99458W        W 3419  22.979  10.242  18.082
99459W        W 3420  22.830   8.039  15.096
99460W        W 3421  22.990   8.881  16.257
99461W        W 3422  22.645  10.579  17.122
99462W        W 3423  22.253   9.368  17.719
99463W        W 3424  22.684   9.279  15.649
99464W        W 3425  23.055  10.286  17.044
99465W        W 3426  22.044   9.689  15.015
99466W        W 3427  22.209   9.189  15.904
99467W        W 3428  22.623  10.891  16.657
99468W        W 3429  22.838  10.376  15.771
99469W        W 3430  23.037   7.486  16.465
99470W        W 3431  22.100  10.308  15.013
99471W        W 3432  22.791  10.467  17.610
99472W        W 3433  22.268   9.290  15.306
99473W        W 3434  22.153   7.833  16.305
99474W        W 3435  21.953   7.652  15.382
99475W        W 3436  23.084  10.504  15.271
99476W        W 3437  22.166  10.667  16.442
99477W        W 3438  22.346   7.955  18.076
99478W        W 3439  22.077   8.555  15.409
99479W        W 3440  22.768   8.544  15.134
99480W        W 3441  22.874   9.152  16.660
99481W        W 3442  23.010   8.615  17.110
99482W        W 3443  22.046   8.531  17.541
99483W        W 3444  22.163   9.766  15.924
99484W        W 3445  22.310   9.063  16.814
99485W        W 3446  23.059  10.597  16.525
99486W        W 3447  22.519   9.793  16.420
99487W        W 3448  22.484  10.347  16.686
99488W        W 3449  22.611   8.798  14.681
99489W        W 3450  21.950  10.884  21.580
99490W        W 3451  22.326   9.777  21.103
99491W        W 3452  23.079  10.583  18.426
99492W        W 3453  23.162   8.735  19.409
99493W        W 3454  22.677   8.583  19.573
99494W        W 3455  21.992   8.051  21.325
99495W        W 3456  22.754   7.331  21.127
99496W        W 3457  22.033   7.816  20.800
99497W        W 3458  22.132  10.435  21.821
99498W        W 3459  22.086   8.608  20.246
99499W        W 3460  22.979   8.499  21.483
99500W        W 3461  22.556   9.507  20.469
99501W        W 3462  21.915   9.035  20.040
99502W        W 3463  22.951   9.007  21.232
99503W        W 3464  22.838  10.234  19.931
99504W        W 3465  21.937   8.547  21.791
99505W        W 3466  22.350   7.664  19.388
99506W        W 3467  22.877   9.922  20.387
99507W        W 3468  22.373  10.818  18.590
99508W        W 3469  22.766  10.864  19.266
99509W        W 3470  22.563   7.618  20.692
99510W        W 3471  22.601  10.450  18.907
99511W        W 3472  21.972   7.949  19.506
99512W        W 3473  22.216  10.173  19.895
99513W        W 3474  21.972  10.307  20.393
99514W        W 3475  22.763   9.879  20.873
99515W        W 3476  23.136   9.239  19.492
99516W        W 3477  23.158   7.644  20.585
99517W        W 3478  22.606   9.278  18.350
99518W        W 3479  22.261   8.311  18.529
99519W        W 3480  22.323  10.267  19.323
99520W        W 3481  21.878   9.001  19.163
99521W        W 3482  22.989   9.416  20.736
99522W        W 3483  22.413   8.590  20.692
99523W        W 3484  22.398   8.466  21.614
99524W        W 3485  22.288   7.383  19.773
99525W        W 3486  22.591  10.654  19.846
99526W        W 3487  23.249   8.371  18.832
99527W        W 3488  22.818   7.655  21.496
99528W        W 3489  22.906   7.374  18.828
99529W        W 3490  22.284   9.360  20.010
99530W        W 3491  22.598   8.198  20.079
99531W        W 3492  22.152   9.398  20.853
99532W        W 3493  22.205   8.075  20.364
99533W        W 3494  21.943   8.354  20.693
99534W        W 3495  22.470   7.770  18.577
99535W        W 3496  22.602  10.544  18.235
99536W        W 3497  22.808   7.787  19.241
99537W        W 3498  22.813   8.015  18.266
99538W        W 3499  21.882   9.333  20.415
99539W        W 3500  22.854   7.466  18.343
99540W        W 3501  23.150   9.535  21.202
99541W        W 3502  23.077   8.103  20.210
99542W        W 3503  22.503   8.059  19.608
99543W        W 3504  22.289  10.771  19.284
99544W        W 3505  22.656   9.586  18.768
99545W        W 3506  21.936  10.706  21.081
99546W        W 3507  22.353   9.932  20.613
99547W        W 3508  21.920  10.778  18.845
99548W        W 3509  23.182  10.071  18.500
99549W        W 3510  22.905   8.297  19.217
99550W        W 3511  22.004   7.526  18.512
99551W        W 3512  23.290   9.845  20.802
99552W        W 3513  23.089   9.761  19.894
99553W        W 3514  22.831   9.713  18.292
99554W        W 3515  22.072   9.954  19.060
99555W        W 3516  22.576   9.024  21.502
99556W        W 3517  23.280   7.584  21.688
99557W        W 3518  23.184   7.494  19.325
99558W        W 3519  22.188   7.503  20.407
99559W        W 3520  22.236   8.466  19.777
99560W        W 3521  22.347   8.072  18.997
99561W        W 3522  22.606   7.721  20.117
99562W        W 3523  21.868   7.983  18.535
99563W        W 3524  22.654   9.372  21.096
99564W        W 3525  22.025   9.356  18.268
99565W        W 3526  22.760   9.767  21.394
99566W        W 3527  22.281   8.934  21.025
99567W        W 3528  23.272   9.039  20.819
99568W        W 3529  22.270   9.797  21.734
99569W        W 3530  22.665   8.098  21.340
99570W        W 3531  22.925   7.777  21.002
99571W        W 3532  22.897  10.025  18.953
99572W        W 3533  22.420   8.149  20.941
99573W        W 3534  22.033  10.147  21.362
99574W        W 3535  22.776   8.139  20.600
99575W        W 3536  22.746   7.487  19.710
99576W        W 3537  22.490  10.200  21.524
99577W        W 3538  22.976   7.902  19.766
99578W        W 3539  22.745   9.395  19.856
99579W        W 3540  23.058  10.806  20.606
99580W        W 3541  22.133   8.888  18.486
99581W        W 3542  23.243   7.389  21.205
99582W        W 3543  23.095   8.420  19.784
99583W        W 3544  23.101   8.289  21.083
99584W        W 3545  22.397  10.714  21.333
99585W        W 3546  22.509  10.075  18.463
99586W        W 3547  22.630   8.625  21.159
99587W        W 3548  23.148   9.612  19.111
99588W        W 3549  22.698   8.994  20.765
99589W        W 3550  22.363   7.666  21.175
99590W        W 3551  22.702   8.689  20.228
99591W        W 3552  21.874  10.262  20.895
99592W        W 3553  23.282   7.996  18.443
99593W        W 3554  22.417   8.812  19.224
99594W        W 3555  22.188  10.664  20.661
99595W        W 3556  22.112   8.939  21.595
99596W        W 3557  22.461   8.940  19.903
99597W        W 3558  22.755   9.879  19.552
99598W        W 3559  21.960  10.606  19.661
99599W        W 3560  22.469   9.793  19.197
99600W        W 3561  22.384   7.410  21.750
99601W        W 3562  21.978   9.817  20.242
99602W        W 3563  23.231   7.779  18.883
99603W        W 3564  23.035   9.263  21.732
99604W        W 3565  22.388  10.259  21.003
99605W        W 3566  22.979  10.242  21.726
99606W        W 3567  22.830   8.039  18.740
99607W        W 3568  22.990   8.881  19.901
99608W        W 3569  22.645  10.579  20.766
99609W        W 3570  22.253   9.368  21.363
99610W        W 3571  22.684   9.279  19.293
99611W        W 3572  23.055  10.286  20.688
99612W        W 3573  22.044   9.689  18.659
99613W        W 3574  22.209   9.189  19.548
99614W        W 3575  22.623  10.891  20.301
99615W        W 3576  22.838  10.376  19.415
99616W        W 3577  23.037   7.486  20.109
99617W        W 3578  22.100  10.308  18.657
99618W        W 3579  22.791  10.467  21.254
99619W        W 3580  22.268   9.290  18.950
99620W        W 3581  22.153   7.833  19.949
99621W        W 3582  21.953   7.652  19.026
99622W        W 3583  23.084  10.504  18.915
99623W        W 3584  22.166  10.667  20.086
99624W        W 3585  22.346   7.955  21.720
99625W        W 3586  22.077   8.555  19.053
99626W        W 3587  22.768   8.544  18.778
99627W        W 3588  22.874   9.152  20.304
99628W        W 3589  23.010   8.615  20.754
99629W        W 3590  22.046   8.531  21.185
99630W        W 3591  22.163   9.766  19.568
99631W        W 3592  22.310   9.063  20.458
99632W        W 3593  23.059  10.597  20.169
99633W        W 3594  22.519   9.793  20.064
99634W        W 3595  22.484  10.347  20.330
99635W        W 3596  22.611   8.798  18.325
99636W        W 3597  23.079  10.583  22.071
99637W        W 3598  23.162   8.735  23.054
99638W        W 3599  22.677   8.583  23.218
99639W        W 3600  22.350   7.664  23.033
99640W        W 3601  22.373  10.818  22.235
99641W        W 3602  22.766  10.864  22.911
99642W        W 3603  22.601  10.450  22.552
99643W        W 3604  22.606   9.278  21.995
99644W        W 3605  22.261   8.311  22.174
99645W        W 3606  22.323  10.267  22.968
99646W        W 3607  21.878   9.001  22.808
99647W        W 3608  23.249   8.371  22.477
99648W        W 3609  22.906   7.374  22.473
99649W        W 3610  22.470   7.770  22.222
99650W        W 3611  22.602  10.544  21.880
99651W        W 3612  22.808   7.787  22.886
99652W        W 3613  22.813   8.015  21.911
99653W        W 3614  22.854   7.466  21.988
99654W        W 3615  22.503   8.059  23.253
99655W        W 3616  22.289  10.771  22.929
99656W        W 3617  22.656   9.586  22.413
99657W        W 3618  21.920  10.778  22.490
99658W        W 3619  23.182  10.071  22.145
99659W        W 3620  22.905   8.297  22.862
99660W        W 3621  22.004   7.526  22.157
99661W        W 3622  22.831   9.713  21.937
99662W        W 3623  22.072   9.954  22.705
99663W        W 3624  23.184   7.494  22.970
99664W        W 3625  22.347   8.072  22.642
99665W        W 3626  21.868   7.983  22.180
99666W        W 3627  22.025   9.356  21.913
99667W        W 3628  22.897  10.025  22.598
99668W        W 3629  22.133   8.888  22.131
99669W        W 3630  22.509  10.075  22.108
99670W        W 3631  23.148   9.612  22.756
99671W        W 3632  23.282   7.996  22.088
99672W        W 3633  22.417   8.812  22.869
99673W        W 3634  22.755   9.879  23.197
99674W        W 3635  21.960  10.606  23.306
99675W        W 3636  22.469   9.793  22.842
99676W        W 3637  23.231   7.779  22.528
99677W        W 3638  22.830   8.039  22.385
99678W        W 3639  22.044   9.689  22.304
99679W        W 3640  22.209   9.189  23.193
99680W        W 3641  22.838  10.376  23.060
99681W        W 3642  22.100  10.308  22.302
99682W        W 3643  22.268   9.290  22.595
99683W        W 3644  21.953   7.652  22.671
99684W        W 3645  23.084  10.504  22.560
99685W        W 3646  22.077   8.555  22.698
99686W        W 3647  22.768   8.544  22.423
99687W        W 3648  22.163   9.766  23.213
99688W        W 3649  22.611   8.798  21.970
99689W        W 3650  21.950  14.528   3.359
99690W        W 3651  22.326  13.421   2.882
99691W        W 3652  23.162  12.379   1.188
99692W        W 3653  22.677  12.227   1.352
99693W        W 3654  21.992  11.695   3.104
99694W        W 3655  22.754  10.975   2.906
99695W        W 3656  22.033  11.460   2.579
99696W        W 3657  22.132  14.079   3.600
99697W        W 3658  22.086  12.252   2.025
99698W        W 3659  22.979  12.143   3.262
99699W        W 3660  22.556  13.151   2.248
99700W        W 3661  21.915  12.679   1.819
99701W        W 3662  22.951  12.651   3.011
99702W        W 3663  22.838  13.878   1.710
99703W        W 3664  21.937  12.191   3.570
99704W        W 3665  22.350  11.308   1.167
99705W        W 3666  22.877  13.566   2.166
99706W        W 3667  22.373  14.462   0.369
99707W        W 3668  22.766  14.508   1.045
99708W        W 3669  22.563  11.262   2.471
99709W        W 3670  22.601  14.094   0.686
99710W        W 3671  21.972  11.593   1.285
99711W        W 3672  22.216  13.817   1.674
99712W        W 3673  22.763  13.523   2.652
99713W        W 3674  23.136  12.883   1.271
99714W        W 3675  23.158  11.288   2.364
99715W        W 3676  22.606  12.922   0.129
99716W        W 3677  22.261  11.955   0.308
99717W        W 3678  22.323  13.911   1.102
99718W        W 3679  21.878  12.645   0.942
99719W        W 3680  22.989  13.060   2.515
99720W        W 3681  22.413  12.234   2.471
99721W        W 3682  22.398  12.110   3.393
99722W        W 3683  22.288  11.027   1.552
99723W        W 3684  22.591  14.298   1.625
99724W        W 3685  23.249  12.015   0.611
99725W        W 3686  22.818  11.299   3.275
99726W        W 3687  22.906  11.018   0.607
99727W        W 3688  22.598  11.842   1.858
99728W        W 3689  22.152  13.042   2.632
99729W        W 3690  22.205  11.719   2.143
99730W        W 3691  21.943  11.998   2.472
99731W        W 3692  22.470  11.414   0.356
99732W        W 3693  22.602  14.188   0.014
99733W        W 3694  22.808  11.431   1.020
99734W        W 3695  22.813  11.659   0.045
99735W        W 3696  21.882  12.977   2.194
99736W        W 3697  22.854  11.110   0.122
99737W        W 3698  23.150  13.179   2.981
99738W        W 3699  23.077  11.747   1.989
99739W        W 3700  22.503  11.703   1.387
99740W        W 3701  22.289  14.415   1.063
99741W        W 3702  22.656  13.230   0.547
99742W        W 3703  21.936  14.350   2.860
99743W        W 3704  22.353  13.576   2.392
99744W        W 3705  21.920  14.422   0.624
99745W        W 3706  23.182  13.715   0.279
99746W        W 3707  22.905  11.941   0.996
99747W        W 3708  22.004  11.170   0.291
99748W        W 3709  23.290  13.489   2.581
99749W        W 3710  23.089  13.405   1.673
99750W        W 3711  22.831  13.357   0.071
99751W        W 3712  22.072  13.598   0.839
99752W        W 3713  22.576  12.668   3.281
99753W        W 3714  23.280  11.228   3.467
99754W        W 3715  23.184  11.138   1.104
99755W        W 3716  22.188  11.147   2.186
99756W        W 3717  22.236  12.110   1.556
99757W        W 3718  22.347  11.716   0.776
99758W        W 3719  22.606  11.365   1.896
99759W        W 3720  21.868  11.627   0.314
99760W        W 3721  22.654  13.016   2.875
99761W        W 3722  22.025  13.000   0.047
99762W        W 3723  22.281  12.578   2.804
99763W        W 3724  23.272  12.683   2.598
99764W        W 3725  22.270  13.441   3.513
99765W        W 3726  22.665  11.742   3.119
99766W        W 3727  22.925  11.421   2.781
99767W        W 3728  22.897  13.669   0.732
99768W        W 3729  22.420  11.793   2.720
99769W        W 3730  22.033  13.791   3.141
99770W        W 3731  22.776  11.783   2.379
99771W        W 3732  22.746  11.131   1.489
99772W        W 3733  22.490  13.844   3.303
99773W        W 3734  22.976  11.546   1.545
99774W        W 3735  22.745  13.039   1.635
99775W        W 3736  23.058  14.450   2.385
99776W        W 3737  22.133  12.532   0.265
99777W        W 3738  23.243  11.033   2.984
99778W        W 3739  23.095  12.064   1.563
99779W        W 3740  23.101  11.933   2.862
99780W        W 3741  22.397  14.358   3.112
99781W        W 3742  22.509  13.719   0.242
99782W        W 3743  22.630  12.269   2.938
99783W        W 3744  23.148  13.256   0.890
99784W        W 3745  22.698  12.638   2.544
99785W        W 3746  22.363  11.310   2.954
99786W        W 3747  22.702  12.333   2.007
99787W        W 3748  23.071  12.147   0.129
99788W        W 3749  21.874  13.906   2.674
99789W        W 3750  23.282  11.640   0.222
99790W        W 3751  22.417  12.456   1.003
99791W        W 3752  22.188  14.308   2.440
99792W        W 3753  22.112  12.583   3.374
99793W        W 3754  22.461  12.584   1.682
99794W        W 3755  22.755  13.523   1.331
99795W        W 3756  21.960  14.250   1.440
99796W        W 3757  22.469  13.437   0.976
99797W        W 3758  22.384  11.054   3.529
99798W        W 3759  21.978  13.461   2.021
99799W        W 3760  23.231  11.423   0.662
99800W        W 3761  23.035  12.907   3.511
99801W        W 3762  22.388  13.903   2.782
99802W        W 3763  22.979  13.886   3.505
99803W        W 3764  22.830  11.683   0.519
99804W        W 3765  22.990  12.525   1.680
99805W        W 3766  22.645  14.223   2.545
99806W        W 3767  22.253  13.012   3.142
99807W        W 3768  22.684  12.923   1.072
99808W        W 3769  23.055  13.930   2.467
99809W        W 3770  22.044  13.333   0.438
99810W        W 3771  22.209  12.833   1.327
99811W        W 3772  22.623  14.535   2.080
99812W        W 3773  22.838  14.020   1.194
99813W        W 3774  23.037  11.130   1.888
99814W        W 3775  22.100  13.952   0.436
99815W        W 3776  22.791  14.111   3.033
99816W        W 3777  22.268  12.934   0.729
99817W        W 3778  22.153  11.477   1.728
99818W        W 3779  21.953  11.296   0.805
99819W        W 3780  23.084  14.148   0.694
99820W        W 3781  22.166  14.311   1.865
99821W        W 3782  22.346  11.599   3.499
99822W        W 3783  22.077  12.199   0.832
99823W        W 3784  22.768  12.188   0.557
99824W        W 3785  22.874  12.796   2.083
99825W        W 3786  23.010  12.259   2.533
99826W        W 3787  22.046  12.175   2.964
99827W        W 3788  22.163  13.410   1.347
99828W        W 3789  22.310  12.707   2.237
99829W        W 3790  23.059  14.241   1.948
99830W        W 3791  22.519  13.437   1.843
99831W        W 3792  22.484  13.991   2.109
99832W        W 3793  22.611  12.442   0.104
99833W        W 3794  21.950  14.528   7.003
99834W        W 3795  22.326  13.421   6.526
99835W        W 3796  23.079  14.227   3.849
99836W        W 3797  23.162  12.379   4.832
99837W        W 3798  22.677  12.227   4.996
99838W        W 3799  21.992  11.695   6.748
99839W        W 3800  22.754  10.975   6.550
99840W        W 3801  22.033  11.460   6.223
99841W        W 3802  22.132  14.079   7.244
99842W        W 3803  22.086  12.252   5.669
99843W        W 3804  22.979  12.143   6.906
99844W        W 3805  22.556  13.151   5.892
99845W        W 3806  21.915  12.679   5.463
99846W        W 3807  22.951  12.651   6.655
99847W        W 3808  22.838  13.878   5.354
99848W        W 3809  21.937  12.191   7.214
99849W        W 3810  22.350  11.308   4.811
99850W        W 3811  22.877  13.566   5.810
99851W        W 3812  22.373  14.462   4.013
99852W        W 3813  22.766  14.508   4.689
99853W        W 3814  22.563  11.262   6.115
99854W        W 3815  22.601  14.094   4.330
99855W        W 3816  21.972  11.593   4.929
99856W        W 3817  22.216  13.817   5.318
99857W        W 3818  21.972  13.951   5.816
99858W        W 3819  22.763  13.523   6.296
99859W        W 3820  23.136  12.883   4.915
99860W        W 3821  23.158  11.288   6.008
99861W        W 3822  22.606  12.922   3.773
99862W        W 3823  22.261  11.955   3.952
99863W        W 3824  22.323  13.911   4.746
99864W        W 3825  21.878  12.645   4.586
99865W        W 3826  22.989  13.060   6.159
99866W        W 3827  22.413  12.234   6.115
99867W        W 3828  22.398  12.110   7.037
99868W        W 3829  22.288  11.027   5.196
99869W        W 3830  22.591  14.298   5.269
99870W        W 3831  23.249  12.015   4.255
99871W        W 3832  22.818  11.299   6.919
99872W        W 3833  22.906  11.018   4.251
99873W        W 3834  22.284  13.004   5.433
99874W        W 3835  22.598  11.842   5.502
99875W        W 3836  22.152  13.042   6.276
99876W        W 3837  22.205  11.719   5.787
99877W        W 3838  21.943  11.998   6.116
99878W        W 3839  22.470  11.414   4.000
99879W        W 3840  22.602  14.188   3.658
99880W        W 3841  22.808  11.431   4.664
99881W        W 3842  22.813  11.659   3.689
99882W        W 3843  21.882  12.977   5.838
99883W        W 3844  22.854  11.110   3.766
99884W        W 3845  23.150  13.179   6.625
99885W        W 3846  23.077  11.747   5.633
99886W        W 3847  22.503  11.703   5.031
99887W        W 3848  22.289  14.415   4.707
99888W        W 3849  22.656  13.230   4.191
99889W        W 3850  21.936  14.350   6.504
99890W        W 3851  22.353  13.576   6.036
99891W        W 3852  21.920  14.422   4.268
99892W        W 3853  23.182  13.715   3.923
99893W        W 3854  22.905  11.941   4.640
99894W        W 3855  22.004  11.170   3.935
99895W        W 3856  23.290  13.489   6.225
99896W        W 3857  23.089  13.405   5.317
99897W        W 3858  22.831  13.357   3.715
99898W        W 3859  22.072  13.598   4.483
99899W        W 3860  22.576  12.668   6.925
99900W        W 3861  23.280  11.228   7.111
99901W        W 3862  23.184  11.138   4.748
99902W        W 3863  22.188  11.147   5.830
99903W        W 3864  22.236  12.110   5.200
99904W        W 3865  22.347  11.716   4.420
99905W        W 3866  22.606  11.365   5.540
99906W        W 3867  21.868  11.627   3.958
99907W        W 3868  22.654  13.016   6.519
99908W        W 3869  22.025  13.000   3.691
99909W        W 3870  22.760  13.411   6.817
99910W        W 3871  22.281  12.578   6.448
99911W        W 3872  23.272  12.683   6.242
99912W        W 3873  22.270  13.441   7.157
99913W        W 3874  22.665  11.742   6.763
99914W        W 3875  22.925  11.421   6.425
99915W        W 3876  22.897  13.669   4.376
99916W        W 3877  22.420  11.793   6.364
99917W        W 3878  22.033  13.791   6.785
99918W        W 3879  22.776  11.783   6.023
99919W        W 3880  22.746  11.131   5.133
99920W        W 3881  22.490  13.844   6.947
99921W        W 3882  22.976  11.546   5.189
99922W        W 3883  22.745  13.039   5.279
99923W        W 3884  23.058  14.450   6.029
99924W        W 3885  22.133  12.532   3.909
99925W        W 3886  23.243  11.033   6.628
99926W        W 3887  23.095  12.064   5.207
99927W        W 3888  23.101  11.933   6.506
99928W        W 3889  22.397  14.358   6.756
99929W        W 3890  22.509  13.719   3.886
99930W        W 3891  22.630  12.269   6.582
99931W        W 3892  23.148  13.256   4.534
99932W        W 3893  22.698  12.638   6.188
99933W        W 3894  22.363  11.310   6.598
99934W        W 3895  22.702  12.333   5.651
99935W        W 3896  21.874  13.906   6.318
99936W        W 3897  23.282  11.640   3.866
99937W        W 3898  22.417  12.456   4.647
99938W        W 3899  22.188  14.308   6.084
99939W        W 3900  22.112  12.583   7.018
99940W        W 3901  22.461  12.584   5.326
99941W        W 3902  22.755  13.523   4.975
99942W        W 3903  21.960  14.250   5.084
99943W        W 3904  22.469  13.437   4.620
99944W        W 3905  22.384  11.054   7.173
99945W        W 3906  21.978  13.461   5.665
99946W        W 3907  23.231  11.423   4.306
99947W        W 3908  23.035  12.907   7.155
99948W        W 3909  22.388  13.903   6.426
99949W        W 3910  22.979  13.886   7.149
99950W        W 3911  22.830  11.683   4.163
99951W        W 3912  22.990  12.525   5.324
99952W        W 3913  22.645  14.223   6.189
99953W        W 3914  22.253  13.012   6.786
99954W        W 3915  22.684  12.923   4.716
99955W        W 3916  23.055  13.930   6.111
99956W        W 3917  22.044  13.333   4.082
99957W        W 3918  22.209  12.833   4.971
99958W        W 3919  22.623  14.535   5.724
99959W        W 3920  22.838  14.020   4.838
99960W        W 3921  23.037  11.130   5.532
99961W        W 3922  22.100  13.952   4.080
99962W        W 3923  22.791  14.111   6.677
99963W        W 3924  22.268  12.934   4.373
99964W        W 3925  22.153  11.477   5.372
99965W        W 3926  21.953  11.296   4.449
99966W        W 3927  23.084  14.148   4.338
99967W        W 3928  22.166  14.311   5.509
99968W        W 3929  22.346  11.599   7.143
99969W        W 3930  22.077  12.199   4.476
99970W        W 3931  22.768  12.188   4.201
99971W        W 3932  22.874  12.796   5.727
99972W        W 3933  23.010  12.259   6.177
99973W        W 3934  22.046  12.175   6.608
99974W        W 3935  22.163  13.410   4.991
99975W        W 3936  22.310  12.707   5.881
99976W        W 3937  23.059  14.241   5.592
99977W        W 3938  22.519  13.437   5.487
99978W        W 3939  22.484  13.991   5.753
99979W        W 3940  22.611  12.442   3.748
99980W        W 3941  21.950  14.528  10.648
99981W        W 3942  22.326  13.421  10.171
99982W        W 3943  23.079  14.227   7.494
99983W        W 3944  23.162  12.379   8.477
99984W        W 3945  22.677  12.227   8.641
99985W        W 3946  21.992  11.695  10.393
99986W        W 3947  22.754  10.975  10.195
99987W        W 3948  22.033  11.460   9.868
99988W        W 3949  22.132  14.079  10.889
99989W        W 3950  22.086  12.252   9.314
99990W        W 3951  22.979  12.143  10.551
99991W        W 3952  22.556  13.151   9.537
99992W        W 3953  21.915  12.679   9.108
99993W        W 3954  22.951  12.651  10.300
99994W        W 3955  22.838  13.878   8.999
99995W        W 3956  21.937  12.191  10.859
99996W        W 3957  22.350  11.308   8.456
99997W        W 3958  22.877  13.566   9.455
99998W        W 3959  22.373  14.462   7.658
99999W        W 3960  22.766  14.508   8.334
    0W        W 3961  22.563  11.262   9.760
    1W        W 3962  22.601  14.094   7.975
    2W        W 3963  21.972  11.593   8.574
    3W        W 3964  22.216  13.817   8.963
    4W        W 3965  21.972  13.951   9.461
    5W        W 3966  22.763  13.523   9.941
    6W        W 3967  23.136  12.883   8.560
    7W        W 3968  23.158  11.288   9.653
    8W        W 3969  22.606  12.922   7.418
    9W        W 3970  22.261  11.955   7.597
   10W        W 3971  22.323  13.911   8.391
   11W        W 3972  21.878  12.645   8.231
   12W        W 3973  22.989  13.060   9.804
   13W        W 3974  22.413  12.234   9.760
   14W        W 3975  22.398  12.110  10.682
   15W        W 3976  22.288  11.027   8.841
   16W        W 3977  22.591  14.298   8.914
   17W        W 3978  23.249  12.015   7.900
   18W        W 3979  22.818  11.299  10.564
   19W        W 3980  22.906  11.018   7.896
   20W        W 3981  22.284  13.004   9.078
   21W        W 3982  22.598  11.842   9.147
   22W        W 3983  22.152  13.042   9.921
   23W        W 3984  22.205  11.719   9.432
   24W        W 3985  21.943  11.998   9.761
   25W        W 3986  22.470  11.414   7.645
   26W        W 3987  22.602  14.188   7.303
   27W        W 3988  22.808  11.431   8.309
   28W        W 3989  22.813  11.659   7.334
   29W        W 3990  21.882  12.977   9.483
   30W        W 3991  22.854  11.110   7.411
   31W        W 3992  23.150  13.179  10.270
   32W        W 3993  23.077  11.747   9.278
   33W        W 3994  22.503  11.703   8.676
   34W        W 3995  22.289  14.415   8.352
   35W        W 3996  22.656  13.230   7.836
   36W        W 3997  21.936  14.350  10.149
   37W        W 3998  22.353  13.576   9.681
   38W        W 3999  21.920  14.422   7.913
   39W        W 4000  23.182  13.715   7.568
   40W        W 4001  22.905  11.941   8.285
   41W        W 4002  22.004  11.170   7.580
   42W        W 4003  23.290  13.489   9.870
   43W        W 4004  23.089  13.405   8.962
   44W        W 4005  22.831  13.357   7.360
   45W        W 4006  22.072  13.598   8.128
   46W        W 4007  22.576  12.668  10.570
   47W        W 4008  23.280  11.228  10.756
   48W        W 4009  23.184  11.138   8.393
   49W        W 4010  22.188  11.147   9.475
   50W        W 4011  22.236  12.110   8.845
   51W        W 4012  22.347  11.716   8.065
   52W        W 4013  22.606  11.365   9.185
   53W        W 4014  21.868  11.627   7.603
   54W        W 4015  22.654  13.016  10.164
   55W        W 4016  22.025  13.000   7.336
   56W        W 4017  22.760  13.411  10.462
   57W        W 4018  22.281  12.578  10.093
   58W        W 4019  23.272  12.683   9.887
   59W        W 4020  22.270  13.441  10.802
   60W        W 4021  22.665  11.742  10.408
   61W        W 4022  22.925  11.421  10.070
   62W        W 4023  22.897  13.669   8.021
   63W        W 4024  22.420  11.793  10.009
   64W        W 4025  22.033  13.791  10.430
   65W        W 4026  22.776  11.783   9.668
   66W        W 4027  22.746  11.131   8.778
   67W        W 4028  22.490  13.844  10.592
   68W        W 4029  22.976  11.546   8.834
   69W        W 4030  22.745  13.039   8.924
   70W        W 4031  23.058  14.450   9.674
   71W        W 4032  22.133  12.532   7.554
   72W        W 4033  23.243  11.033  10.273
   73W        W 4034  23.095  12.064   8.852
   74W        W 4035  23.101  11.933  10.151
   75W        W 4036  22.397  14.358  10.401
   76W        W 4037  22.509  13.719   7.531
   77W        W 4038  22.630  12.269  10.227
   78W        W 4039  23.148  13.256   8.179
   79W        W 4040  22.698  12.638   9.833
   80W        W 4041  22.363  11.310  10.243
   81W        W 4042  22.702  12.333   9.296
   82W        W 4043  21.874  13.906   9.963
   83W        W 4044  23.282  11.640   7.511
   84W        W 4045  22.417  12.456   8.292
   85W        W 4046  22.188  14.308   9.729
   86W        W 4047  22.112  12.583  10.663
   87W        W 4048  22.461  12.584   8.971
   88W        W 4049  22.755  13.523   8.620
   89W        W 4050  21.960  14.250   8.729
   90W        W 4051  22.469  13.437   8.265
   91W        W 4052  22.384  11.054  10.818
   92W        W 4053  21.978  13.461   9.310
   93W        W 4054  23.231  11.423   7.951
   94W        W 4055  23.035  12.907  10.800
   95W        W 4056  22.388  13.903  10.071
   96W        W 4057  22.979  13.886  10.794
   97W        W 4058  22.830  11.683   7.808
   98W        W 4059  22.990  12.525   8.969
   99W        W 4060  22.645  14.223   9.834
  100W        W 4061  22.253  13.012  10.431
  101W        W 4062  22.684  12.923   8.361
  102W        W 4063  23.055  13.930   9.756
  103W        W 4064  22.044  13.333   7.727
  104W        W 4065  22.209  12.833   8.616
  105W        W 4066  22.623  14.535   9.369
  106W        W 4067  22.838  14.020   8.483
  107W        W 4068  23.037  11.130   9.177
  108W        W 4069  22.100  13.952   7.725
  109W        W 4070  22.791  14.111  10.322
  110W        W 4071  22.268  12.934   8.018
  111W        W 4072  22.153  11.477   9.017
  112W        W 4073  21.953  11.296   8.094
  113W        W 4074  23.084  14.148   7.983
  114W        W 4075  22.166  14.311   9.154
  115W        W 4076  22.346  11.599  10.788
  116W        W 4077  22.077  12.199   8.121
  117W        W 4078  22.768  12.188   7.846
  118W        W 4079  22.874  12.796   9.372
  119W        W 4080  23.010  12.259   9.822
  120W        W 4081  22.046  12.175  10.253
  121W        W 4082  22.163  13.410   8.636
  122W        W 4083  22.310  12.707   9.526
  123W        W 4084  23.059  14.241   9.237
  124W        W 4085  22.519  13.437   9.132
  125W        W 4086  22.484  13.991   9.398
  126W        W 4087  22.611  12.442   7.393
  127W        W 4088  21.950  14.528  14.292
  128W        W 4089  22.326  13.421  13.815
  129W        W 4090  23.079  14.227  11.138
  130W        W 4091  23.162  12.379  12.121
  131W        W 4092  22.677  12.227  12.285
  132W        W 4093  21.992  11.695  14.037
  133W        W 4094  22.754  10.975  13.839
  134W        W 4095  22.033  11.460  13.512
  135W        W 4096  22.132  14.079  14.533
  136W        W 4097  22.086  12.252  12.958
  137W        W 4098  22.979  12.143  14.195
  138W        W 4099  22.556  13.151  13.181
  139W        W 4100  21.915  12.679  12.752
  140W        W 4101  22.951  12.651  13.944
  141W        W 4102  22.838  13.878  12.643
  142W        W 4103  21.937  12.191  14.503
  143W        W 4104  22.350  11.308  12.100
  144W        W 4105  22.877  13.566  13.099
  145W        W 4106  22.373  14.462  11.302
  146W        W 4107  22.766  14.508  11.978
  147W        W 4108  22.563  11.262  13.404
  148W        W 4109  22.601  14.094  11.619
  149W        W 4110  22.216  13.817  12.607
  150W        W 4111  21.972  13.951  13.105
  151W        W 4112  22.763  13.523  13.585
  152W        W 4113  23.136  12.883  12.204
  153W        W 4114  23.158  11.288  13.297
  154W        W 4115  22.606  12.922  11.062
  155W        W 4116  22.261  11.955  11.241
  156W        W 4117  22.323  13.911  12.035
  157W        W 4118  21.878  12.645  11.875
  158W        W 4119  22.989  13.060  13.448
  159W        W 4120  22.413  12.234  13.404
  160W        W 4121  22.398  12.110  14.326
  161W        W 4122  22.288  11.027  12.485
  162W        W 4123  22.591  14.298  12.558
  163W        W 4124  23.249  12.015  11.544
  164W        W 4125  22.818  11.299  14.208
  165W        W 4126  22.906  11.018  11.540
  166W        W 4127  22.284  13.004  12.722
  167W        W 4128  22.598  11.842  12.791
  168W        W 4129  22.152  13.042  13.565
  169W        W 4130  22.205  11.719  13.076
  170W        W 4131  21.943  11.998  13.405
  171W        W 4132  22.470  11.414  11.289
  172W        W 4133  22.602  14.188  10.947
  173W        W 4134  22.808  11.431  11.953
  174W        W 4135  22.813  11.659  10.978
  175W        W 4136  21.882  12.977  13.127
  176W        W 4137  22.854  11.110  11.055
  177W        W 4138  23.150  13.179  13.914
  178W        W 4139  23.077  11.747  12.922
  179W        W 4140  22.503  11.703  12.320
  180W        W 4141  22.289  14.415  11.996
  181W        W 4142  22.656  13.230  11.480
  182W        W 4143  21.936  14.350  13.793
  183W        W 4144  22.353  13.576  13.325
  184W        W 4145  21.920  14.422  11.557
  185W        W 4146  23.182  13.715  11.212
  186W        W 4147  22.905  11.941  11.929
  187W        W 4148  22.004  11.170  11.224
  188W        W 4149  23.290  13.489  13.514
  189W        W 4150  23.089  13.405  12.606
  190W        W 4151  22.831  13.357  11.004
  191W        W 4152  22.072  13.598  11.772
  192W        W 4153  22.576  12.668  14.214
  193W        W 4154  23.280  11.228  14.400
  194W        W 4155  23.184  11.138  12.037
  195W        W 4156  22.188  11.147  13.119
  196W        W 4157  22.347  11.716  11.709
  197W        W 4158  22.606  11.365  12.829
  198W        W 4159  21.868  11.627  11.247
  199W        W 4160  22.654  13.016  13.808
  200W        W 4161  22.025  13.000  10.980
  201W        W 4162  22.760  13.411  14.106
  202W        W 4163  22.281  12.578  13.737
  203W        W 4164  23.272  12.683  13.531
  204W        W 4165  22.270  13.441  14.446
  205W        W 4166  22.665  11.742  14.052
  206W        W 4167  22.925  11.421  13.714
  207W        W 4168  22.897  13.669  11.665
  208W        W 4169  22.420  11.793  13.653
  209W        W 4170  22.033  13.791  14.074
  210W        W 4171  22.776  11.783  13.312
  211W        W 4172  22.746  11.131  12.422
  212W        W 4173  22.490  13.844  14.236
  213W        W 4174  22.976  11.546  12.478
  214W        W 4175  22.745  13.039  12.568
  215W        W 4176  23.058  14.450  13.318
  216W        W 4177  22.133  12.532  11.198
  217W        W 4178  23.243  11.033  13.917
  218W        W 4179  23.095  12.064  12.496
  219W        W 4180  23.101  11.933  13.795
  220W        W 4181  22.397  14.358  14.045
  221W        W 4182  22.509  13.719  11.175
  222W        W 4183  22.630  12.269  13.871
  223W        W 4184  23.148  13.256  11.823
  224W        W 4185  22.698  12.638  13.477
  225W        W 4186  22.363  11.310  13.887
  226W        W 4187  22.702  12.333  12.940
  227W        W 4188  21.874  13.906  13.607
  228W        W 4189  23.282  11.640  11.155
  229W        W 4190  22.417  12.456  11.936
  230W        W 4191  22.188  14.308  13.373
  231W        W 4192  22.112  12.583  14.307
  232W        W 4193  22.461  12.584  12.615
  233W        W 4194  22.755  13.523  12.264
  234W        W 4195  21.960  14.250  12.373
  235W        W 4196  22.469  13.437  11.909
  236W        W 4197  22.384  11.054  14.462
  237W        W 4198  21.978  13.461  12.954
  238W        W 4199  23.231  11.423  11.595
  239W        W 4200  23.035  12.907  14.444
  240W        W 4201  22.388  13.903  13.715
  241W        W 4202  22.979  13.886  14.438
  242W        W 4203  22.830  11.683  11.452
  243W        W 4204  22.990  12.525  12.613
  244W        W 4205  22.645  14.223  13.478
  245W        W 4206  22.253  13.012  14.075
  246W        W 4207  22.684  12.923  12.005
  247W        W 4208  23.055  13.930  13.400
  248W        W 4209  22.044  13.333  11.371
  249W        W 4210  22.209  12.833  12.260
  250W        W 4211  22.623  14.535  13.013
  251W        W 4212  22.838  14.020  12.127
  252W        W 4213  23.037  11.130  12.821
  253W        W 4214  22.100  13.952  11.369
  254W        W 4215  22.791  14.111  13.966
  255W        W 4216  22.268  12.934  11.662
  256W        W 4217  22.153  11.477  12.661
  257W        W 4218  23.084  14.148  11.627
  258W        W 4219  22.166  14.311  12.798
  259W        W 4220  22.346  11.599  14.432
  260W        W 4221  22.768  12.188  11.490
  261W        W 4222  22.874  12.796  13.016
  262W        W 4223  23.010  12.259  13.466
  263W        W 4224  22.046  12.175  13.897
  264W        W 4225  22.163  13.410  12.280
  265W        W 4226  22.310  12.707  13.170
  266W        W 4227  23.059  14.241  12.881
  267W        W 4228  22.519  13.437  12.776
  268W        W 4229  22.484  13.991  13.042
  269W        W 4230  22.611  12.442  11.037
  270W        W 4231  21.950  14.528  17.936
  271W        W 4232  22.326  13.421  17.459
  272W        W 4233  23.079  14.227  14.782
  273W        W 4234  23.162  12.379  15.765
  274W        W 4235  22.677  12.227  15.929
  275W        W 4236  21.992  11.695  17.681
  276W        W 4237  22.754  10.975  17.483
  277W        W 4238  22.033  11.460  17.156
  278W        W 4239  22.132  14.079  18.177
  279W        W 4240  22.086  12.252  16.602
  280W        W 4241  22.979  12.143  17.839
  281W        W 4242  22.556  13.151  16.825
  282W        W 4243  21.915  12.679  16.396
  283W        W 4244  22.951  12.651  17.588
  284W        W 4245  22.838  13.878  16.287
  285W        W 4246  21.937  12.191  18.147
  286W        W 4247  22.350  11.308  15.744
  287W        W 4248  22.877  13.566  16.743
  288W        W 4249  22.373  14.462  14.946
  289W        W 4250  22.766  14.508  15.622
  290W        W 4251  22.563  11.262  17.048
  291W        W 4252  22.601  14.094  15.263
  292W        W 4253  21.972  11.593  15.862
  293W        W 4254  22.216  13.817  16.251
  294W        W 4255  21.972  13.951  16.749
  295W        W 4256  22.763  13.523  17.229
  296W        W 4257  23.136  12.883  15.848
  297W        W 4258  23.158  11.288  16.941
  298W        W 4259  22.606  12.922  14.706
  299W        W 4260  22.261  11.955  14.885
  300W        W 4261  22.323  13.911  15.679
  301W        W 4262  21.878  12.645  15.519
  302W        W 4263  22.989  13.060  17.092
  303W        W 4264  22.413  12.234  17.048
  304W        W 4265  22.398  12.110  17.970
  305W        W 4266  22.288  11.027  16.129
  306W        W 4267  22.591  14.298  16.202
  307W        W 4268  23.249  12.015  15.188
  308W        W 4269  22.818  11.299  17.852
  309W        W 4270  22.906  11.018  15.184
  310W        W 4271  22.284  13.004  16.366
  311W        W 4272  22.598  11.842  16.435
  312W        W 4273  22.152  13.042  17.209
  313W        W 4274  22.205  11.719  16.720
  314W        W 4275  21.943  11.998  17.049
  315W        W 4276  22.470  11.414  14.933
  316W        W 4277  22.602  14.188  14.591
  317W        W 4278  22.808  11.431  15.597
  318W        W 4279  22.813  11.659  14.622
  319W        W 4280  21.882  12.977  16.771
  320W        W 4281  22.854  11.110  14.699
  321W        W 4282  23.150  13.179  17.558
  322W        W 4283  23.077  11.747  16.566
  323W        W 4284  22.503  11.703  15.964
  324W        W 4285  22.289  14.415  15.640
  325W        W 4286  22.656  13.230  15.124
  326W        W 4287  21.936  14.350  17.437
  327W        W 4288  22.353  13.576  16.969
  328W        W 4289  21.920  14.422  15.201
  329W        W 4290  23.182  13.715  14.856
  330W        W 4291  22.905  11.941  15.573
  331W        W 4292  22.004  11.170  14.868
  332W        W 4293  23.290  13.489  17.158
  333W        W 4294  23.089  13.405  16.250
  334W        W 4295  22.831  13.357  14.648
  335W        W 4296  22.072  13.598  15.416
  336W        W 4297  22.576  12.668  17.858
  337W        W 4298  23.280  11.228  18.044
  338W        W 4299  23.184  11.138  15.681
  339W        W 4300  22.188  11.147  16.763
  340W        W 4301  22.236  12.110  16.133
  341W        W 4302  22.347  11.716  15.353
  342W        W 4303  22.606  11.365  16.473
  343W        W 4304  21.868  11.627  14.891
  344W        W 4305  22.654  13.016  17.452
  345W        W 4306  22.025  13.000  14.624
  346W        W 4307  22.760  13.411  17.750
  347W        W 4308  22.281  12.578  17.381
  348W        W 4309  23.272  12.683  17.175
  349W        W 4310  22.270  13.441  18.090
  350W        W 4311  22.665  11.742  17.696
  351W        W 4312  22.925  11.421  17.358
  352W        W 4313  22.897  13.669  15.309
  353W        W 4314  22.420  11.793  17.297
  354W        W 4315  22.033  13.791  17.718
  355W        W 4316  22.776  11.783  16.956
  356W        W 4317  22.746  11.131  16.066
  357W        W 4318  22.490  13.844  17.880
  358W        W 4319  22.976  11.546  16.122
  359W        W 4320  22.745  13.039  16.212
  360W        W 4321  23.058  14.450  16.962
  361W        W 4322  22.133  12.532  14.842
  362W        W 4323  23.243  11.033  17.561
  363W        W 4324  23.095  12.064  16.140
  364W        W 4325  23.101  11.933  17.439
  365W        W 4326  22.397  14.358  17.689
  366W        W 4327  22.509  13.719  14.819
  367W        W 4328  22.630  12.269  17.515
  368W        W 4329  23.148  13.256  15.467
  369W        W 4330  22.698  12.638  17.121
  370W        W 4331  22.363  11.310  17.531
  371W        W 4332  22.702  12.333  16.584
  372W        W 4333  21.874  13.906  17.251
  373W        W 4334  23.282  11.640  14.799
  374W        W 4335  22.417  12.456  15.580
  375W        W 4336  22.188  14.308  17.017
  376W        W 4337  22.112  12.583  17.951
  377W        W 4338  22.461  12.584  16.259
  378W        W 4339  22.755  13.523  15.908
  379W        W 4340  21.960  14.250  16.017
  380W        W 4341  22.469  13.437  15.553
  381W        W 4342  22.384  11.054  18.106
  382W        W 4343  21.978  13.461  16.598
  383W        W 4344  23.231  11.423  15.239
  384W        W 4345  23.035  12.907  18.088
  385W        W 4346  22.388  13.903  17.359
  386W        W 4347  22.979  13.886  18.082
  387W        W 4348  22.830  11.683  15.096
  388W        W 4349  22.990  12.525  16.257
  389W        W 4350  22.645  14.223  17.122
  390W        W 4351  22.253  13.012  17.719
  391W        W 4352  22.684  12.923  15.649
  392W        W 4353  23.055  13.930  17.044
  393W        W 4354  22.044  13.333  15.015
  394W        W 4355  22.209  12.833  15.904
  395W        W 4356  22.623  14.535  16.657
  396W        W 4357  22.838  14.020  15.771
  397W        W 4358  23.037  11.130  16.465
  398W        W 4359  22.100  13.952  15.013
  399W        W 4360  22.791  14.111  17.610
  400W        W 4361  22.268  12.934  15.306
  401W        W 4362  22.153  11.477  16.305
  402W        W 4363  21.953  11.296  15.382
  403W        W 4364  23.084  14.148  15.271
  404W        W 4365  22.166  14.311  16.442
  405W        W 4366  22.346  11.599  18.076
  406W        W 4367  22.077  12.199  15.409
  407W        W 4368  22.768  12.188  15.134
  408W        W 4369  22.874  12.796  16.660
  409W        W 4370  23.010  12.259  17.110
  410W        W 4371  22.046  12.175  17.541
  411W        W 4372  22.163  13.410  15.924
  412W        W 4373  22.310  12.707  16.814
  413W        W 4374  23.059  14.241  16.525
  414W        W 4375  22.519  13.437  16.420
  415W        W 4376  22.484  13.991  16.686
  416W        W 4377  22.611  12.442  14.681
  417W        W 4378  21.950  14.528  21.580
  418W        W 4379  22.326  13.421  21.103
  419W        W 4380  23.079  14.227  18.426
  420W        W 4381  23.162  12.379  19.409
  421W        W 4382  22.677  12.227  19.573
  422W        W 4383  21.992  11.695  21.325
  423W        W 4384  22.754  10.975  21.127
  424W        W 4385  22.033  11.460  20.800
  425W        W 4386  22.132  14.079  21.821
  426W        W 4387  22.086  12.252  20.246
  427W        W 4388  22.979  12.143  21.483
  428W        W 4389  22.556  13.151  20.469
  429W        W 4390  21.915  12.679  20.040
  430W        W 4391  22.951  12.651  21.232
  431W        W 4392  22.838  13.878  19.931
  432W        W 4393  21.937  12.191  21.791
  433W        W 4394  22.350  11.308  19.388
  434W        W 4395  22.877  13.566  20.387
  435W        W 4396  22.373  14.462  18.590
  436W        W 4397  22.766  14.508  19.266
  437W        W 4398  22.563  11.262  20.692
  438W        W 4399  22.601  14.094  18.907
  439W        W 4400  21.972  11.593  19.506
  440W        W 4401  22.216  13.817  19.895
  441W        W 4402  21.972  13.951  20.393
  442W        W 4403  22.763  13.523  20.873
  443W        W 4404  23.136  12.883  19.492
  444W        W 4405  23.158  11.288  20.585
  445W        W 4406  22.606  12.922  18.350
  446W        W 4407  22.261  11.955  18.529
  447W        W 4408  22.323  13.911  19.323
  448W        W 4409  21.878  12.645  19.163
  449W        W 4410  22.989  13.060  20.736
  450W        W 4411  22.413  12.234  20.692
  451W        W 4412  22.398  12.110  21.614
  452W        W 4413  22.288  11.027  19.773
  453W        W 4414  22.591  14.298  19.846
  454W        W 4415  23.249  12.015  18.832
  455W        W 4416  22.818  11.299  21.496
  456W        W 4417  22.906  11.018  18.828
  457W        W 4418  22.284  13.004  20.010
  458W        W 4419  22.598  11.842  20.079
  459W        W 4420  22.152  13.042  20.853
  460W        W 4421  22.205  11.719  20.364
  461W        W 4422  21.943  11.998  20.693
  462W        W 4423  22.470  11.414  18.577
  463W        W 4424  22.602  14.188  18.235
  464W        W 4425  22.808  11.431  19.241
  465W        W 4426  22.813  11.659  18.266
  466W        W 4427  21.882  12.977  20.415
  467W        W 4428  22.854  11.110  18.343
  468W        W 4429  23.150  13.179  21.202
  469W        W 4430  23.077  11.747  20.210
  470W        W 4431  22.503  11.703  19.608
  471W        W 4432  22.289  14.415  19.284
  472W        W 4433  22.656  13.230  18.768
  473W        W 4434  21.936  14.350  21.081
  474W        W 4435  22.353  13.576  20.613
  475W        W 4436  21.920  14.422  18.845
  476W        W 4437  23.182  13.715  18.500
  477W        W 4438  22.905  11.941  19.217
  478W        W 4439  22.004  11.170  18.512
  479W        W 4440  23.290  13.489  20.802
  480W        W 4441  23.089  13.405  19.894
  481W        W 4442  22.831  13.357  18.292
  482W        W 4443  22.072  13.598  19.060
  483W        W 4444  22.576  12.668  21.502
  484W        W 4445  23.280  11.228  21.688
  485W        W 4446  23.184  11.138  19.325
  486W        W 4447  22.188  11.147  20.407
  487W        W 4448  22.236  12.110  19.777
  488W        W 4449  22.347  11.716  18.997
  489W        W 4450  22.606  11.365  20.117
  490W        W 4451  21.868  11.627  18.535
  491W        W 4452  22.654  13.016  21.096
  492W        W 4453  22.025  13.000  18.268
  493W        W 4454  22.760  13.411  21.394
  494W        W 4455  22.281  12.578  21.025
  495W        W 4456  23.272  12.683  20.819
  496W        W 4457  22.270  13.441  21.734
  497W        W 4458  22.665  11.742  21.340
  498W        W 4459  22.925  11.421  21.002
  499W        W 4460  22.897  13.669  18.953
  500W        W 4461  22.420  11.793  20.941
  501W        W 4462  22.033  13.791  21.362
  502W        W 4463  22.776  11.783  20.600
  503W        W 4464  22.746  11.131  19.710
  504W        W 4465  22.490  13.844  21.524
  505W        W 4466  22.976  11.546  19.766
  506W        W 4467  22.745  13.039  19.856
  507W        W 4468  23.058  14.450  20.606
  508W        W 4469  22.133  12.532  18.486
  509W        W 4470  23.243  11.033  21.205
  510W        W 4471  23.095  12.064  19.784
  511W        W 4472  23.101  11.933  21.083
  512W        W 4473  22.397  14.358  21.333
  513W        W 4474  22.509  13.719  18.463
  514W        W 4475  22.630  12.269  21.159
  515W        W 4476  23.148  13.256  19.111
  516W        W 4477  22.698  12.638  20.765
  517W        W 4478  22.363  11.310  21.175
  518W        W 4479  22.702  12.333  20.228
  519W        W 4480  21.874  13.906  20.895
  520W        W 4481  23.282  11.640  18.443
  521W        W 4482  22.417  12.456  19.224
  522W        W 4483  22.188  14.308  20.661
  523W        W 4484  22.112  12.583  21.595
  524W        W 4485  22.461  12.584  19.903
  525W        W 4486  22.755  13.523  19.552
  526W        W 4487  21.960  14.250  19.661
  527W        W 4488  22.469  13.437  19.197
  528W        W 4489  22.384  11.054  21.750
  529W        W 4490  21.978  13.461  20.242
  530W        W 4491  23.231  11.423  18.883
  531W        W 4492  23.035  12.907  21.732
  532W        W 4493  22.388  13.903  21.003
  533W        W 4494  22.979  13.886  21.726
  534W        W 4495  22.830  11.683  18.740
  535W        W 4496  22.990  12.525  19.901
  536W        W 4497  22.645  14.223  20.766
  537W        W 4498  22.253  13.012  21.363
  538W        W 4499  22.684  12.923  19.293
  539W        W 4500  23.055  13.930  20.688
  540W        W 4501  22.044  13.333  18.659
  541W        W 4502  22.209  12.833  19.548
  542W        W 4503  22.623  14.535  20.301
  543W        W 4504  22.838  14.020  19.415
  544W        W 4505  23.037  11.130  20.109
  545W        W 4506  22.100  13.952  18.657
  546W        W 4507  22.791  14.111  21.254
  547W        W 4508  22.268  12.934  18.950
  548W        W 4509  22.153  11.477  19.949
  549W        W 4510  21.953  11.296  19.026
  550W        W 4511  23.084  14.148  18.915
  551W        W 4512  22.166  14.311  20.086
  552W        W 4513  22.346  11.599  21.720
  553W        W 4514  22.077  12.199  19.053
  554W        W 4515  22.768  12.188  18.778
  555W        W 4516  22.874  12.796  20.304
  556W        W 4517  23.010  12.259  20.754
  557W        W 4518  22.046  12.175  21.185
  558W        W 4519  22.163  13.410  19.568
  559W        W 4520  22.310  12.707  20.458
  560W        W 4521  23.059  14.241  20.169
  561W        W 4522  22.519  13.437  20.064
  562W        W 4523  22.484  13.991  20.330
  563W        W 4524  22.611  12.442  18.325
  564W        W 4525  23.079  14.227  22.071
  565W        W 4526  23.162  12.379  23.054
  566W        W 4527  22.677  12.227  23.218
  567W        W 4528  22.350  11.308  23.033
  568W        W 4529  22.373  14.462  22.235
  569W        W 4530  22.766  14.508  22.911
  570W        W 4531  22.601  14.094  22.552
  571W        W 4532  22.606  12.922  21.995
  572W        W 4533  22.261  11.955  22.174
  573W        W 4534  22.323  13.911  22.968
  574W        W 4535  21.878  12.645  22.808
  575W        W 4536  23.249  12.015  22.477
  576W        W 4537  22.906  11.018  22.473
  577W        W 4538  22.470  11.414  22.222
  578W        W 4539  22.602  14.188  21.880
  579W        W 4540  22.808  11.431  22.886
  580W        W 4541  22.813  11.659  21.911
  581W        W 4542  22.854  11.110  21.988
  582W        W 4543  22.503  11.703  23.253
  583W        W 4544  22.289  14.415  22.929
  584W        W 4545  22.656  13.230  22.413
  585W        W 4546  21.920  14.422  22.490
  586W        W 4547  23.182  13.715  22.145
  587W        W 4548  22.905  11.941  22.862
  588W        W 4549  22.004  11.170  22.157
  589W        W 4550  22.831  13.357  21.937
  590W        W 4551  22.072  13.598  22.705
  591W        W 4552  23.184  11.138  22.970
  592W        W 4553  22.347  11.716  22.642
  593W        W 4554  21.868  11.627  22.180
  594W        W 4555  22.025  13.000  21.913
  595W        W 4556  22.897  13.669  22.598
  596W        W 4557  22.133  12.532  22.131
  597W        W 4558  22.509  13.719  22.108
  598W        W 4559  23.148  13.256  22.756
  599W        W 4560  23.282  11.640  22.088
  600W        W 4561  22.417  12.456  22.869
  601W        W 4562  22.755  13.523  23.197
  602W        W 4563  21.960  14.250  23.306
  603W        W 4564  22.469  13.437  22.842
  604W        W 4565  23.231  11.423  22.528
  605W        W 4566  22.830  11.683  22.385
  606W        W 4567  22.044  13.333  22.304
  607W        W 4568  22.209  12.833  23.193
  608W        W 4569  22.838  14.020  23.060
  609W        W 4570  22.100  13.952  22.302
  610W        W 4571  22.268  12.934  22.595
  611W        W 4572  21.953  11.296  22.671
  612W        W 4573  23.084  14.148  22.560
  613W        W 4574  22.077  12.199  22.698
  614W        W 4575  22.768  12.188  22.423
  615W        W 4576  22.163  13.410  23.213
  616W        W 4577  22.611  12.442  21.970
  617W        W 4578  21.950  18.172   3.359
  618W        W 4579  22.326  17.065   2.882
  619W        W 4580  23.162  16.023   1.188
  620W        W 4581  22.677  15.871   1.352
  621W        W 4582  21.992  15.339   3.104
  622W        W 4583  22.754  14.619   2.906
  623W        W 4584  22.033  15.104   2.579
  624W        W 4585  22.132  17.723   3.600
  625W        W 4586  22.086  15.896   2.025
  626W        W 4587  22.979  15.787   3.262
  627W        W 4588  22.556  16.795   2.248
  628W        W 4589  21.915  16.323   1.819
  629W        W 4590  22.951  16.295   3.011
  630W        W 4591  22.838  17.522   1.710
  631W        W 4592  21.937  15.835   3.570
  632W        W 4593  22.350  14.952   1.167
  633W        W 4594  22.877  17.210   2.166
  634W        W 4595  22.373  18.106   0.369
  635W        W 4596  22.766  18.152   1.045
  636W        W 4597  22.563  14.906   2.471
  637W        W 4598  22.601  17.738   0.686
  638W        W 4599  21.972  15.237   1.285
  639W        W 4600  22.216  17.461   1.674
  640W        W 4601  21.972  17.595   2.172
  641W        W 4602  22.763  17.167   2.652
  642W        W 4603  23.136  16.527   1.271
  643W        W 4604  23.158  14.932   2.364
  644W        W 4605  22.606  16.566   0.129
  645W        W 4606  22.261  15.599   0.308
  646W        W 4607  22.323  17.555   1.102
  647W        W 4608  21.878  16.289   0.942
  648W        W 4609  22.989  16.704   2.515
  649W        W 4610  22.413  15.878   2.471
  650W        W 4611  22.398  15.754   3.393
  651W        W 4612  22.288  14.671   1.552
  652W        W 4613  22.591  17.942   1.625
  653W        W 4614  23.249  15.659   0.611
  654W        W 4615  22.818  14.943   3.275
  655W        W 4616  22.906  14.662   0.607
  656W        W 4617  22.284  16.648   1.789
  657W        W 4618  22.598  15.486   1.858
  658W        W 4619  22.152  16.686   2.632
  659W        W 4620  22.205  15.363   2.143
  660W        W 4621  21.943  15.642   2.472
  661W        W 4622  22.470  15.058   0.356
  662W        W 4623  22.602  17.832   0.014
  663W        W 4624  22.808  15.075   1.020
  664W        W 4625  22.813  15.303   0.045
  665W        W 4626  21.882  16.621   2.194
  666W        W 4627  22.854  14.754   0.122
  667W        W 4628  23.150  16.823   2.981
  668W        W 4629  23.077  15.391   1.989
  669W        W 4630  22.503  15.347   1.387
  670W        W 4631  22.289  18.059   1.063
  671W        W 4632  22.656  16.874   0.547
  672W        W 4633  21.936  17.994   2.860
  673W        W 4634  22.353  17.220   2.392
  674W        W 4635  21.920  18.066   0.624
  675W        W 4636  23.182  17.359   0.279
  676W        W 4637  22.905  15.585   0.996
  677W        W 4638  22.004  14.814   0.291
  678W        W 4639  23.290  17.133   2.581
  679W        W 4640  23.089  17.049   1.673
  680W        W 4641  22.831  17.001   0.071
  681W        W 4642  22.072  17.242   0.839
  682W        W 4643  22.576  16.312   3.281
  683W        W 4644  23.280  14.872   3.467
  684W        W 4645  23.184  14.782   1.104
  685W        W 4646  22.188  14.791   2.186
  686W        W 4647  22.236  15.754   1.556
  687W        W 4648  22.347  15.360   0.776
  688W        W 4649  22.606  15.009   1.896
  689W        W 4650  21.868  15.271   0.314
  690W        W 4651  22.654  16.660   2.875
  691W        W 4652  22.025  16.644   0.047
  692W        W 4653  22.760  17.055   3.173
  693W        W 4654  22.281  16.222   2.804
  694W        W 4655  23.272  16.327   2.598
  695W        W 4656  22.270  17.085   3.513
  696W        W 4657  22.665  15.386   3.119
  697W        W 4658  22.925  15.065   2.781
  698W        W 4659  22.897  17.313   0.732
  699W        W 4660  22.420  15.437   2.720
  700W        W 4661  22.033  17.435   3.141
  701W        W 4662  22.776  15.427   2.379
  702W        W 4663  22.746  14.775   1.489
  703W        W 4664  22.490  17.488   3.303
  704W        W 4665  22.976  15.190   1.545
  705W        W 4666  22.745  16.683   1.635
  706W        W 4667  23.058  18.094   2.385
  707W        W 4668  22.133  16.176   0.265
  708W        W 4669  23.243  14.677   2.984
  709W        W 4670  23.095  15.708   1.563
  710W        W 4671  23.101  15.577   2.862
  711W        W 4672  22.397  18.002   3.112
  712W        W 4673  22.509  17.363   0.242
  713W        W 4674  22.630  15.913   2.938
  714W        W 4675  23.148  16.900   0.890
  715W        W 4676  22.698  16.282   2.544
  716W        W 4677  22.363  14.954   2.954
  717W        W 4678  22.702  15.977   2.007
  718W        W 4679  23.071  15.791   0.129
  719W        W 4680  21.874  17.550   2.674
  720W        W 4681  23.282  15.284   0.222
  721W        W 4682  22.417  16.100   1.003
  722W        W 4683  22.188  17.952   2.440
  723W        W 4684  22.112  16.227   3.374
  724W        W 4685  22.461  16.228   1.682
  725W        W 4686  22.755  17.167   1.331
  726W        W 4687  21.960  17.894   1.440
  727W        W 4688  22.469  17.081   0.976
  728W        W 4689  22.384  14.698   3.529
  729W        W 4690  21.978  17.105   2.021
  730W        W 4691  23.231  15.067   0.662
  731W        W 4692  23.035  16.551   3.511
  732W        W 4693  22.388  17.547   2.782
  733W        W 4694  22.979  17.530   3.505
  734W        W 4695  22.830  15.327   0.519
  735W        W 4696  22.990  16.169   1.680
  736W        W 4697  22.645  17.867   2.545
  737W        W 4698  22.253  16.656   3.142
  738W        W 4699  22.684  16.567   1.072
  739W        W 4700  23.055  17.574   2.467
  740W        W 4701  22.044  16.977   0.438
  741W        W 4702  22.209  16.477   1.327
  742W        W 4703  22.623  18.179   2.080
  743W        W 4704  22.838  17.664   1.194
  744W        W 4705  23.037  14.774   1.888
  745W        W 4706  22.100  17.596   0.436
  746W        W 4707  22.791  17.755   3.033
  747W        W 4708  22.268  16.578   0.729
  748W        W 4709  22.153  15.121   1.728
  749W        W 4710  21.953  14.940   0.805
  750W        W 4711  23.084  17.792   0.694
  751W        W 4712  22.166  17.955   1.865
  752W        W 4713  22.346  15.243   3.499
  753W        W 4714  22.077  15.843   0.832
  754W        W 4715  22.768  15.832   0.557
  755W        W 4716  22.874  16.440   2.083
  756W        W 4717  23.010  15.903   2.533
  757W        W 4718  22.046  15.819   2.964
  758W        W 4719  22.163  17.054   1.347
  759W        W 4720  22.310  16.351   2.237
  760W        W 4721  23.059  17.885   1.948
  761W        W 4722  22.519  17.081   1.843
  762W        W 4723  22.484  17.635   2.109
  763W        W 4724  22.611  16.086   0.104
  764W        W 4725  21.950  18.172   7.003
  765W        W 4726  22.326  17.065   6.526
  766W        W 4727  23.079  17.871   3.849
  767W        W 4728  23.162  16.023   4.832
  768W        W 4729  22.677  15.871   4.996
  769W        W 4730  21.992  15.339   6.748
  770W        W 4731  22.754  14.619   6.550
  771W        W 4732  22.033  15.104   6.223
  772W        W 4733  22.132  17.723   7.244
  773W        W 4734  22.086  15.896   5.669
  774W        W 4735  22.979  15.787   6.906
  775W        W 4736  22.556  16.795   5.892
  776W        W 4737  21.915  16.323   5.463
  777W        W 4738  22.951  16.295   6.655
  778W        W 4739  22.838  17.522   5.354
  779W        W 4740  21.937  15.835   7.214
  780W        W 4741  22.350  14.952   4.811
  781W        W 4742  22.877  17.210   5.810
  782W        W 4743  22.373  18.106   4.013
  783W        W 4744  22.766  18.152   4.689
  784W        W 4745  22.563  14.906   6.115
  785W        W 4746  22.601  17.738   4.330
  786W        W 4747  21.972  15.237   4.929
  787W        W 4748  22.216  17.461   5.318
  788W        W 4749  21.972  17.595   5.816
  789W        W 4750  22.763  17.167   6.296
  790W        W 4751  23.136  16.527   4.915
  791W        W 4752  23.158  14.932   6.008
  792W        W 4753  22.606  16.566   3.773
  793W        W 4754  22.261  15.599   3.952
  794W        W 4755  22.323  17.555   4.746
  795W        W 4756  21.878  16.289   4.586
  796W        W 4757  22.989  16.704   6.159
  797W        W 4758  22.413  15.878   6.115
  798W        W 4759  22.398  15.754   7.037
  799W        W 4760  22.288  14.671   5.196
  800W        W 4761  22.591  17.942   5.269
  801W        W 4762  23.249  15.659   4.255
  802W        W 4763  22.818  14.943   6.919
  803W        W 4764  22.906  14.662   4.251
  804W        W 4765  22.284  16.648   5.433
  805W        W 4766  22.598  15.486   5.502
  806W        W 4767  22.152  16.686   6.276
  807W        W 4768  22.205  15.363   5.787
  808W        W 4769  21.943  15.642   6.116
  809W        W 4770  22.470  15.058   4.000
  810W        W 4771  22.602  17.832   3.658
  811W        W 4772  22.808  15.075   4.664
  812W        W 4773  22.813  15.303   3.689
  813W        W 4774  21.882  16.621   5.838
  814W        W 4775  22.854  14.754   3.766
  815W        W 4776  23.150  16.823   6.625
  816W        W 4777  23.077  15.391   5.633
  817W        W 4778  22.503  15.347   5.031
  818W        W 4779  22.289  18.059   4.707
  819W        W 4780  22.656  16.874   4.191
  820W        W 4781  21.936  17.994   6.504
  821W        W 4782  22.353  17.220   6.036
  822W        W 4783  21.920  18.066   4.268
  823W        W 4784  23.182  17.359   3.923
  824W        W 4785  22.905  15.585   4.640
  825W        W 4786  22.004  14.814   3.935
  826W        W 4787  23.290  17.133   6.225
  827W        W 4788  23.089  17.049   5.317
  828W        W 4789  22.831  17.001   3.715
  829W        W 4790  22.072  17.242   4.483
  830W        W 4791  22.576  16.312   6.925
  831W        W 4792  23.280  14.872   7.111
  832W        W 4793  23.184  14.782   4.748
  833W        W 4794  22.188  14.791   5.830
  834W        W 4795  22.236  15.754   5.200
  835W        W 4796  22.347  15.360   4.420
  836W        W 4797  22.606  15.009   5.540
  837W        W 4798  21.868  15.271   3.958
  838W        W 4799  22.654  16.660   6.519
  839W        W 4800  22.025  16.644   3.691
  840W        W 4801  22.760  17.055   6.817
  841W        W 4802  22.281  16.222   6.448
  842W        W 4803  23.272  16.327   6.242
  843W        W 4804  22.270  17.085   7.157
  844W        W 4805  22.665  15.386   6.763
  845W        W 4806  22.925  15.065   6.425
  846W        W 4807  22.897  17.313   4.376
  847W        W 4808  22.420  15.437   6.364
  848W        W 4809  22.033  17.435   6.785
  849W        W 4810  22.776  15.427   6.023
  850W        W 4811  22.746  14.775   5.133
  851W        W 4812  22.490  17.488   6.947
  852W        W 4813  22.976  15.190   5.189
  853W        W 4814  22.745  16.683   5.279
  854W        W 4815  23.058  18.094   6.029
  855W        W 4816  22.133  16.176   3.909
  856W        W 4817  23.243  14.677   6.628
  857W        W 4818  23.095  15.708   5.207
  858W        W 4819  23.101  15.577   6.506
  859W        W 4820  22.397  18.002   6.756
  860W        W 4821  22.509  17.363   3.886
  861W        W 4822  22.630  15.913   6.582
  862W        W 4823  23.148  16.900   4.534
  863W        W 4824  22.698  16.282   6.188
  864W        W 4825  22.363  14.954   6.598
  865W        W 4826  22.702  15.977   5.651
  866W        W 4827  21.874  17.550   6.318
  867W        W 4828  23.282  15.284   3.866
  868W        W 4829  22.417  16.100   4.647
  869W        W 4830  22.188  17.952   6.084
  870W        W 4831  22.112  16.227   7.018
  871W        W 4832  22.461  16.228   5.326
  872W        W 4833  22.755  17.167   4.975
  873W        W 4834  21.960  17.894   5.084
  874W        W 4835  22.469  17.081   4.620
  875W        W 4836  22.384  14.698   7.173
  876W        W 4837  21.978  17.105   5.665
  877W        W 4838  23.231  15.067   4.306
  878W        W 4839  23.035  16.551   7.155
  879W        W 4840  22.388  17.547   6.426
  880W        W 4841  22.979  17.530   7.149
  881W        W 4842  22.830  15.327   4.163
  882W        W 4843  22.990  16.169   5.324
  883W        W 4844  22.645  17.867   6.189
  884W        W 4845  22.253  16.656   6.786
  885W        W 4846  22.684  16.567   4.716
  886W        W 4847  23.055  17.574   6.111
  887W        W 4848  22.044  16.977   4.082
  888W        W 4849  22.209  16.477   4.971
  889W        W 4850  22.623  18.179   5.724
  890W        W 4851  22.838  17.664   4.838
  891W        W 4852  23.037  14.774   5.532
  892W        W 4853  22.100  17.596   4.080
  893W        W 4854  22.791  17.755   6.677
  894W        W 4855  22.268  16.578   4.373
  895W        W 4856  22.153  15.121   5.372
  896W        W 4857  21.953  14.940   4.449
  897W        W 4858  23.084  17.792   4.338
  898W        W 4859  22.166  17.955   5.509
  899W        W 4860  22.346  15.243   7.143
  900W        W 4861  22.077  15.843   4.476
  901W        W 4862  22.768  15.832   4.201
  902W        W 4863  22.874  16.440   5.727
  903W        W 4864  23.010  15.903   6.177
  904W        W 4865  22.046  15.819   6.608
  905W        W 4866  22.163  17.054   4.991
  906W        W 4867  22.310  16.351   5.881
  907W        W 4868  23.059  17.885   5.592
  908W        W 4869  22.519  17.081   5.487
  909W        W 4870  22.484  17.635   5.753
  910W        W 4871  22.611  16.086   3.748
  911W        W 4872  21.950  18.172  10.648
  912W        W 4873  22.326  17.065  10.171
  913W        W 4874  23.079  17.871   7.494
  914W        W 4875  23.162  16.023   8.477
  915W        W 4876  22.677  15.871   8.641
  916W        W 4877  21.992  15.339  10.393
  917W        W 4878  22.754  14.619  10.195
  918W        W 4879  22.033  15.104   9.868
  919W        W 4880  22.132  17.723  10.889
  920W        W 4881  22.086  15.896   9.314
  921W        W 4882  22.979  15.787  10.551
  922W        W 4883  22.556  16.795   9.537
  923W        W 4884  21.915  16.323   9.108
  924W        W 4885  22.951  16.295  10.300
  925W        W 4886  22.838  17.522   8.999
  926W        W 4887  21.937  15.835  10.859
  927W        W 4888  22.350  14.952   8.456
  928W        W 4889  22.877  17.210   9.455
  929W        W 4890  22.373  18.106   7.658
  930W        W 4891  22.766  18.152   8.334
  931W        W 4892  22.563  14.906   9.760
  932W        W 4893  22.601  17.738   7.975
  933W        W 4894  21.972  15.237   8.574
  934W        W 4895  22.216  17.461   8.963
  935W        W 4896  21.972  17.595   9.461
  936W        W 4897  22.763  17.167   9.941
  937W        W 4898  23.136  16.527   8.560
  938W        W 4899  23.158  14.932   9.653
  939W        W 4900  22.606  16.566   7.418
  940W        W 4901  22.261  15.599   7.597
  941W        W 4902  22.323  17.555   8.391
  942W        W 4903  21.878  16.289   8.231
  943W        W 4904  22.989  16.704   9.804
  944W        W 4905  22.413  15.878   9.760
  945W        W 4906  22.398  15.754  10.682
  946W        W 4907  22.288  14.671   8.841
  947W        W 4908  22.591  17.942   8.914
  948W        W 4909  23.249  15.659   7.900
  949W        W 4910  22.818  14.943  10.564
  950W        W 4911  22.906  14.662   7.896
  951W        W 4912  22.284  16.648   9.078
  952W        W 4913  22.598  15.486   9.147
  953W        W 4914  22.152  16.686   9.921
  954W        W 4915  22.205  15.363   9.432
  955W        W 4916  21.943  15.642   9.761
  956W        W 4917  22.470  15.058   7.645
  957W        W 4918  22.602  17.832   7.303
  958W        W 4919  22.808  15.075   8.309
  959W        W 4920  22.813  15.303   7.334
  960W        W 4921  21.882  16.621   9.483
  961W        W 4922  22.854  14.754   7.411
  962W        W 4923  23.150  16.823  10.270
  963W        W 4924  23.077  15.391   9.278
  964W        W 4925  22.503  15.347   8.676
  965W        W 4926  22.289  18.059   8.352
  966W        W 4927  22.656  16.874   7.836
  967W        W 4928  21.936  17.994  10.149
  968W        W 4929  22.353  17.220   9.681
  969W        W 4930  21.920  18.066   7.913
  970W        W 4931  23.182  17.359   7.568
  971W        W 4932  22.905  15.585   8.285
  972W        W 4933  22.004  14.814   7.580
  973W        W 4934  23.290  17.133   9.870
  974W        W 4935  23.089  17.049   8.962
  975W        W 4936  22.831  17.001   7.360
  976W        W 4937  22.072  17.242   8.128
  977W        W 4938  22.576  16.312  10.570
  978W        W 4939  23.280  14.872  10.756
  979W        W 4940  23.184  14.782   8.393
  980W        W 4941  22.188  14.791   9.475
  981W        W 4942  22.236  15.754   8.845
  982W        W 4943  22.347  15.360   8.065
  983W        W 4944  22.606  15.009   9.185
  984W        W 4945  21.868  15.271   7.603
  985W        W 4946  22.654  16.660  10.164
  986W        W 4947  22.025  16.644   7.336
  987W        W 4948  22.760  17.055  10.462
  988W        W 4949  22.281  16.222  10.093
  989W        W 4950  23.272  16.327   9.887
  990W        W 4951  22.270  17.085  10.802
  991W        W 4952  22.665  15.386  10.408
  992W        W 4953  22.925  15.065  10.070
  993W        W 4954  22.897  17.313   8.021
  994W        W 4955  22.420  15.437  10.009
  995W        W 4956  22.033  17.435  10.430
  996W        W 4957  22.776  15.427   9.668
  997W        W 4958  22.746  14.775   8.778
  998W        W 4959  22.490  17.488  10.592
  999W        W 4960  22.976  15.190   8.834
 1000W        W 4961  22.745  16.683   8.924
 1001W        W 4962  23.058  18.094   9.674
 1002W        W 4963  22.133  16.176   7.554
 1003W        W 4964  23.243  14.677  10.273
 1004W        W 4965  23.095  15.708   8.852
 1005W        W 4966  23.101  15.577  10.151
 1006W        W 4967  22.397  18.002  10.401
 1007W        W 4968  22.509  17.363   7.531
 1008W        W 4969  22.630  15.913  10.227
 1009W        W 4970  23.148  16.900   8.179
 1010W        W 4971  22.698  16.282   9.833
 1011W        W 4972  22.363  14.954  10.243
 1012W        W 4973  22.702  15.977   9.296
 1013W        W 4974  21.874  17.550   9.963
 1014W        W 4975  23.282  15.284   7.511
 1015W        W 4976  22.417  16.100   8.292
 1016W        W 4977  22.188  17.952   9.729
 1017W        W 4978  22.112  16.227  10.663
 1018W        W 4979  22.461  16.228   8.971
 1019W        W 4980  22.755  17.167   8.620
 1020W        W 4981  21.960  17.894   8.729
 1021W        W 4982  22.469  17.081   8.265
 1022W        W 4983  22.384  14.698  10.818
 1023W        W 4984  21.978  17.105   9.310
 1024W        W 4985  23.231  15.067   7.951
 1025W        W 4986  23.035  16.551  10.800
 1026W        W 4987  22.388  17.547  10.071
 1027W        W 4988  22.979  17.530  10.794
 1028W        W 4989  22.830  15.327   7.808
 1029W        W 4990  22.990  16.169   8.969
 1030W        W 4991  22.645  17.867   9.834
 1031W        W 4992  22.253  16.656  10.431
 1032W        W 4993  22.684  16.567   8.361
 1033W        W 4994  23.055  17.574   9.756
 1034W        W 4995  22.044  16.977   7.727
 1035W        W 4996  22.209  16.477   8.616
 1036W        W 4997  22.623  18.179   9.369
 1037W        W 4998  22.838  17.664   8.483
 1038W        W 4999  23.037  14.774   9.177
 1039W        W 5000  22.100  17.596   7.725
 1040W        W 5001  22.791  17.755  10.322
 1041W        W 5002  22.268  16.578   8.018
 1042W        W 5003  22.153  15.121   9.017
 1043W        W 5004  21.953  14.940   8.094
 1044W        W 5005  23.084  17.792   7.983
 1045W        W 5006  22.166  17.955   9.154
 1046W        W 5007  22.346  15.243  10.788
 1047W        W 5008  22.077  15.843   8.121
 1048W        W 5009  22.768  15.832   7.846
 1049W        W 5010  22.874  16.440   9.372
 1050W        W 5011  23.010  15.903   9.822
 1051W        W 5012  22.046  15.819  10.253
 1052W        W 5013  22.163  17.054   8.636
 1053W        W 5014  22.310  16.351   9.526
 1054W        W 5015  23.059  17.885   9.237
 1055W        W 5016  22.519  17.081   9.132
 1056W        W 5017  22.484  17.635   9.398
 1057W        W 5018  22.611  16.086   7.393
 1058W        W 5019  21.950  18.172  14.292
 1059W        W 5020  22.326  17.065  13.815
 1060W        W 5021  23.079  17.871  11.138
 1061W        W 5022  23.162  16.023  12.121
 1062W        W 5023  22.677  15.871  12.285
 1063W        W 5024  21.992  15.339  14.037
 1064W        W 5025  22.754  14.619  13.839
 1065W        W 5026  22.033  15.104  13.512
 1066W        W 5027  22.132  17.723  14.533
 1067W        W 5028  22.086  15.896  12.958
 1068W        W 5029  22.979  15.787  14.195
 1069W        W 5030  22.556  16.795  13.181
 1070W        W 5031  21.915  16.323  12.752
 1071W        W 5032  22.951  16.295  13.944
 1072W        W 5033  22.838  17.522  12.643
 1073W        W 5034  21.937  15.835  14.503
 1074W        W 5035  22.350  14.952  12.100
 1075W        W 5036  22.877  17.210  13.099
 1076W        W 5037  22.373  18.106  11.302
 1077W        W 5038  22.766  18.152  11.978
 1078W        W 5039  22.563  14.906  13.404
 1079W        W 5040  22.601  17.738  11.619
 1080W        W 5041  21.972  15.237  12.218
 1081W        W 5042  22.216  17.461  12.607
 1082W        W 5043  21.972  17.595  13.105
 1083W        W 5044  22.763  17.167  13.585
 1084W        W 5045  23.136  16.527  12.204
 1085W        W 5046  23.158  14.932  13.297
 1086W        W 5047  22.606  16.566  11.062
 1087W        W 5048  22.261  15.599  11.241
 1088W        W 5049  22.323  17.555  12.035
 1089W        W 5050  21.878  16.289  11.875
 1090W        W 5051  22.989  16.704  13.448
 1091W        W 5052  22.413  15.878  13.404
 1092W        W 5053  22.398  15.754  14.326
 1093W        W 5054  22.288  14.671  12.485
 1094W        W 5055  22.591  17.942  12.558
 1095W        W 5056  23.249  15.659  11.544
 1096W        W 5057  22.818  14.943  14.208
 1097W        W 5058  22.906  14.662  11.540
 1098W        W 5059  22.284  16.648  12.722
 1099W        W 5060  22.598  15.486  12.791
 1100W        W 5061  22.152  16.686  13.565
 1101W        W 5062  22.205  15.363  13.076
 1102W        W 5063  21.943  15.642  13.405
 1103W        W 5064  22.470  15.058  11.289
 1104W        W 5065  22.602  17.832  10.947
 1105W        W 5066  22.808  15.075  11.953
 1106W        W 5067  22.813  15.303  10.978
 1107W        W 5068  21.882  16.621  13.127
 1108W        W 5069  22.854  14.754  11.055
 1109W        W 5070  23.150  16.823  13.914
 1110W        W 5071  23.077  15.391  12.922
 1111W        W 5072  22.503  15.347  12.320
 1112W        W 5073  22.289  18.059  11.996
 1113W        W 5074  22.656  16.874  11.480
 1114W        W 5075  21.936  17.994  13.793
 1115W        W 5076  22.353  17.220  13.325
 1116W        W 5077  21.920  18.066  11.557
 1117W        W 5078  23.182  17.359  11.212
 1118W        W 5079  22.905  15.585  11.929
 1119W        W 5080  22.004  14.814  11.224
 1120W        W 5081  23.290  17.133  13.514
 1121W        W 5082  23.089  17.049  12.606
 1122W        W 5083  22.831  17.001  11.004
 1123W        W 5084  22.072  17.242  11.772
 1124W        W 5085  22.576  16.312  14.214
 1125W        W 5086  23.280  14.872  14.400
 1126W        W 5087  23.184  14.782  12.037
 1127W        W 5088  22.188  14.791  13.119
 1128W        W 5089  22.236  15.754  12.489
 1129W        W 5090  22.347  15.360  11.709
 1130W        W 5091  22.606  15.009  12.829
 1131W        W 5092  21.868  15.271  11.247
 1132W        W 5093  22.654  16.660  13.808
 1133W        W 5094  22.025  16.644  10.980
 1134W        W 5095  22.760  17.055  14.106
 1135W        W 5096  22.281  16.222  13.737
 1136W        W 5097  23.272  16.327  13.531
 1137W        W 5098  22.270  17.085  14.446
 1138W        W 5099  22.665  15.386  14.052
 1139W        W 5100  22.925  15.065  13.714
 1140W        W 5101  22.897  17.313  11.665
 1141W        W 5102  22.420  15.437  13.653
 1142W        W 5103  22.033  17.435  14.074
 1143W        W 5104  22.776  15.427  13.312
 1144W        W 5105  22.746  14.775  12.422
 1145W        W 5106  22.490  17.488  14.236
 1146W        W 5107  22.976  15.190  12.478
 1147W        W 5108  22.745  16.683  12.568
 1148W        W 5109  23.058  18.094  13.318
 1149W        W 5110  22.133  16.176  11.198
 1150W        W 5111  23.243  14.677  13.917
 1151W        W 5112  23.095  15.708  12.496
 1152W        W 5113  23.101  15.577  13.795
 1153W        W 5114  22.397  18.002  14.045
 1154W        W 5115  22.509  17.363  11.175
 1155W        W 5116  22.630  15.913  13.871
 1156W        W 5117  23.148  16.900  11.823
 1157W        W 5118  22.698  16.282  13.477
 1158W        W 5119  22.363  14.954  13.887
 1159W        W 5120  22.702  15.977  12.940
 1160W        W 5121  21.874  17.550  13.607
 1161W        W 5122  23.282  15.284  11.155
 1162W        W 5123  22.417  16.100  11.936
 1163W        W 5124  22.188  17.952  13.373
 1164W        W 5125  22.112  16.227  14.307
 1165W        W 5126  22.461  16.228  12.615
 1166W        W 5127  22.755  17.167  12.264
 1167W        W 5128  21.960  17.894  12.373
 1168W        W 5129  22.469  17.081  11.909
 1169W        W 5130  22.384  14.698  14.462
 1170W        W 5131  21.978  17.105  12.954
 1171W        W 5132  23.231  15.067  11.595
 1172W        W 5133  23.035  16.551  14.444
 1173W        W 5134  22.388  17.547  13.715
 1174W        W 5135  22.979  17.530  14.438
 1175W        W 5136  22.830  15.327  11.452
 1176W        W 5137  22.990  16.169  12.613
 1177W        W 5138  22.645  17.867  13.478
 1178W        W 5139  22.253  16.656  14.075
 1179W        W 5140  22.684  16.567  12.005
 1180W        W 5141  23.055  17.574  13.400
 1181W        W 5142  22.044  16.977  11.371
 1182W        W 5143  22.209  16.477  12.260
 1183W        W 5144  22.623  18.179  13.013
 1184W        W 5145  22.838  17.664  12.127
 1185W        W 5146  23.037  14.774  12.821
 1186W        W 5147  22.100  17.596  11.369
 1187W        W 5148  22.791  17.755  13.966
 1188W        W 5149  22.268  16.578  11.662
 1189W        W 5150  22.153  15.121  12.661
 1190W        W 5151  21.953  14.940  11.738
 1191W        W 5152  23.084  17.792  11.627
 1192W        W 5153  22.166  17.955  12.798
 1193W        W 5154  22.346  15.243  14.432
 1194W        W 5155  22.077  15.843  11.765
 1195W        W 5156  22.768  15.832  11.490
 1196W        W 5157  22.874  16.440  13.016
 1197W        W 5158  23.010  15.903  13.466
 1198W        W 5159  22.046  15.819  13.897
 1199W        W 5160  22.163  17.054  12.280
 1200W        W 5161  22.310  16.351  13.170
 1201W        W 5162  23.059  17.885  12.881
 1202W        W 5163  22.519  17.081  12.776
 1203W        W 5164  22.484  17.635  13.042
 1204W        W 5165  22.611  16.086  11.037
 1205W        W 5166  21.950  18.172  17.936
 1206W        W 5167  22.326  17.065  17.459
 1207W        W 5168  23.079  17.871  14.782
 1208W        W 5169  23.162  16.023  15.765
 1209W        W 5170  22.677  15.871  15.929
 1210W        W 5171  21.992  15.339  17.681
 1211W        W 5172  22.754  14.619  17.483
 1212W        W 5173  22.033  15.104  17.156
 1213W        W 5174  22.132  17.723  18.177
 1214W        W 5175  22.086  15.896  16.602
 1215W        W 5176  22.979  15.787  17.839
 1216W        W 5177  22.556  16.795  16.825
 1217W        W 5178  21.915  16.323  16.396
 1218W        W 5179  22.951  16.295  17.588
 1219W        W 5180  22.838  17.522  16.287
 1220W        W 5181  21.937  15.835  18.147
 1221W        W 5182  22.350  14.952  15.744
 1222W        W 5183  22.877  17.210  16.743
 1223W        W 5184  22.373  18.106  14.946
 1224W        W 5185  22.766  18.152  15.622
 1225W        W 5186  22.563  14.906  17.048
 1226W        W 5187  22.601  17.738  15.263
 1227W        W 5188  21.972  15.237  15.862
 1228W        W 5189  22.216  17.461  16.251
 1229W        W 5190  21.972  17.595  16.749
 1230W        W 5191  22.763  17.167  17.229
 1231W        W 5192  23.136  16.527  15.848
 1232W        W 5193  23.158  14.932  16.941
 1233W        W 5194  22.606  16.566  14.706
 1234W        W 5195  22.261  15.599  14.885
 1235W        W 5196  22.323  17.555  15.679
 1236W        W 5197  21.878  16.289  15.519
 1237W        W 5198  22.989  16.704  17.092
 1238W        W 5199  22.413  15.878  17.048
 1239W        W 5200  22.398  15.754  17.970
 1240W        W 5201  22.288  14.671  16.129
 1241W        W 5202  22.591  17.942  16.202
 1242W        W 5203  23.249  15.659  15.188
 1243W        W 5204  22.818  14.943  17.852
 1244W        W 5205  22.906  14.662  15.184
 1245W        W 5206  22.284  16.648  16.366
 1246W        W 5207  22.598  15.486  16.435
 1247W        W 5208  22.152  16.686  17.209
 1248W        W 5209  22.205  15.363  16.720
 1249W        W 5210  21.943  15.642  17.049
 1250W        W 5211  22.470  15.058  14.933
 1251W        W 5212  22.602  17.832  14.591
 1252W        W 5213  22.808  15.075  15.597
 1253W        W 5214  22.813  15.303  14.622
 1254W        W 5215  21.882  16.621  16.771
 1255W        W 5216  22.854  14.754  14.699
 1256W        W 5217  23.150  16.823  17.558
 1257W        W 5218  23.077  15.391  16.566
 1258W        W 5219  22.503  15.347  15.964
 1259W        W 5220  22.289  18.059  15.640
 1260W        W 5221  22.656  16.874  15.124
 1261W        W 5222  21.936  17.994  17.437
 1262W        W 5223  22.353  17.220  16.969
 1263W        W 5224  21.920  18.066  15.201
 1264W        W 5225  23.182  17.359  14.856
 1265W        W 5226  22.905  15.585  15.573
 1266W        W 5227  22.004  14.814  14.868
 1267W        W 5228  23.290  17.133  17.158
 1268W        W 5229  23.089  17.049  16.250
 1269W        W 5230  22.831  17.001  14.648
 1270W        W 5231  22.072  17.242  15.416
 1271W        W 5232  22.576  16.312  17.858
 1272W        W 5233  23.280  14.872  18.044
 1273W        W 5234  23.184  14.782  15.681
 1274W        W 5235  22.188  14.791  16.763
 1275W        W 5236  22.236  15.754  16.133
 1276W        W 5237  22.347  15.360  15.353
 1277W        W 5238  22.606  15.009  16.473
 1278W        W 5239  21.868  15.271  14.891
 1279W        W 5240  22.654  16.660  17.452
 1280W        W 5241  22.025  16.644  14.624
 1281W        W 5242  22.760  17.055  17.750
 1282W        W 5243  22.281  16.222  17.381
 1283W        W 5244  23.272  16.327  17.175
 1284W        W 5245  22.270  17.085  18.090
 1285W        W 5246  22.665  15.386  17.696
 1286W        W 5247  22.925  15.065  17.358
 1287W        W 5248  22.897  17.313  15.309
 1288W        W 5249  22.420  15.437  17.297
 1289W        W 5250  22.033  17.435  17.718
 1290W        W 5251  22.776  15.427  16.956
 1291W        W 5252  22.746  14.775  16.066
 1292W        W 5253  22.490  17.488  17.880
 1293W        W 5254  22.976  15.190  16.122
 1294W        W 5255  22.745  16.683  16.212
 1295W        W 5256  23.058  18.094  16.962
 1296W        W 5257  22.133  16.176  14.842
 1297W        W 5258  23.243  14.677  17.561
 1298W        W 5259  23.095  15.708  16.140
 1299W        W 5260  23.101  15.577  17.439
 1300W        W 5261  22.397  18.002  17.689
 1301W        W 5262  22.509  17.363  14.819
 1302W        W 5263  22.630  15.913  17.515
 1303W        W 5264  23.148  16.900  15.467
 1304W        W 5265  22.698  16.282  17.121
 1305W        W 5266  22.363  14.954  17.531
 1306W        W 5267  22.702  15.977  16.584
 1307W        W 5268  21.874  17.550  17.251
 1308W        W 5269  23.282  15.284  14.799
 1309W        W 5270  22.417  16.100  15.580
 1310W        W 5271  22.188  17.952  17.017
 1311W        W 5272  22.112  16.227  17.951
 1312W        W 5273  22.461  16.228  16.259
 1313W        W 5274  22.755  17.167  15.908
 1314W        W 5275  21.960  17.894  16.017
 1315W        W 5276  22.469  17.081  15.553
 1316W        W 5277  22.384  14.698  18.106
 1317W        W 5278  21.978  17.105  16.598
 1318W        W 5279  23.231  15.067  15.239
 1319W        W 5280  23.035  16.551  18.088
 1320W        W 5281  22.388  17.547  17.359
 1321W        W 5282  22.979  17.530  18.082
 1322W        W 5283  22.830  15.327  15.096
 1323W        W 5284  22.990  16.169  16.257
 1324W        W 5285  22.645  17.867  17.122
 1325W        W 5286  22.253  16.656  17.719
 1326W        W 5287  22.684  16.567  15.649
 1327W        W 5288  23.055  17.574  17.044
 1328W        W 5289  22.044  16.977  15.015
 1329W        W 5290  22.209  16.477  15.904
 1330W        W 5291  22.623  18.179  16.657
 1331W        W 5292  22.838  17.664  15.771
 1332W        W 5293  23.037  14.774  16.465
 1333W        W 5294  22.100  17.596  15.013
 1334W        W 5295  22.791  17.755  17.610
 1335W        W 5296  22.268  16.578  15.306
 1336W        W 5297  22.153  15.121  16.305
 1337W        W 5298  21.953  14.940  15.382
 1338W        W 5299  23.084  17.792  15.271
 1339W        W 5300  22.166  17.955  16.442
 1340W        W 5301  22.346  15.243  18.076
 1341W        W 5302  22.077  15.843  15.409
 1342W        W 5303  22.768  15.832  15.134
 1343W        W 5304  22.874  16.440  16.660
 1344W        W 5305  23.010  15.903  17.110
 1345W        W 5306  22.046  15.819  17.541
 1346W        W 5307  22.163  17.054  15.924
 1347W        W 5308  22.310  16.351  16.814
 1348W        W 5309  23.059  17.885  16.525
 1349W        W 5310  22.519  17.081  16.420
 1350W        W 5311  22.484  17.635  16.686
 1351W        W 5312  22.611  16.086  14.681
 1352W        W 5313  21.950  18.172  21.580
 1353W        W 5314  22.326  17.065  21.103
 1354W        W 5315  23.079  17.871  18.426
 1355W        W 5316  23.162  16.023  19.409
 1356W        W 5317  22.677  15.871  19.573
 1357W        W 5318  21.992  15.339  21.325
 1358W        W 5319  22.754  14.619  21.127
 1359W        W 5320  22.033  15.104  20.800
 1360W        W 5321  22.132  17.723  21.821
 1361W        W 5322  22.086  15.896  20.246
 1362W        W 5323  22.979  15.787  21.483
 1363W        W 5324  22.556  16.795  20.469
 1364W        W 5325  21.915  16.323  20.040
 1365W        W 5326  22.951  16.295  21.232
 1366W        W 5327  22.838  17.522  19.931
 1367W        W 5328  22.350  14.952  19.388
 1368W        W 5329  22.877  17.210  20.387
 1369W        W 5330  22.373  18.106  18.590
 1370W        W 5331  22.766  18.152  19.266
 1371W        W 5332  22.563  14.906  20.692
 1372W        W 5333  22.601  17.738  18.907
 1373W        W 5334  21.972  15.237  19.506
 1374W        W 5335  22.216  17.461  19.895
 1375W        W 5336  21.972  17.595  20.393
 1376W        W 5337  22.763  17.167  20.873
 1377W        W 5338  23.136  16.527  19.492
 1378W        W 5339  23.158  14.932  20.585
 1379W        W 5340  22.606  16.566  18.350
 1380W        W 5341  22.261  15.599  18.529
 1381W        W 5342  22.323  17.555  19.323
 1382W        W 5343  21.878  16.289  19.163
 1383W        W 5344  22.989  16.704  20.736
 1384W        W 5345  22.413  15.878  20.692
 1385W        W 5346  22.398  15.754  21.614
 1386W        W 5347  22.288  14.671  19.773
 1387W        W 5348  22.591  17.942  19.846
 1388W        W 5349  23.249  15.659  18.832
 1389W        W 5350  22.818  14.943  21.496
 1390W        W 5351  22.906  14.662  18.828
 1391W        W 5352  22.284  16.648  20.010
 1392W        W 5353  22.598  15.486  20.079
 1393W        W 5354  22.152  16.686  20.853
 1394W        W 5355  22.205  15.363  20.364
 1395W        W 5356  21.943  15.642  20.693
 1396W        W 5357  22.470  15.058  18.577
 1397W        W 5358  22.602  17.832  18.235
 1398W        W 5359  22.808  15.075  19.241
 1399W        W 5360  22.813  15.303  18.266
 1400W        W 5361  21.882  16.621  20.415
 1401W        W 5362  22.854  14.754  18.343
 1402W        W 5363  23.150  16.823  21.202
 1403W        W 5364  23.077  15.391  20.210
 1404W        W 5365  22.503  15.347  19.608
 1405W        W 5366  22.289  18.059  19.284
 1406W        W 5367  22.656  16.874  18.768
 1407W        W 5368  21.936  17.994  21.081
 1408W        W 5369  22.353  17.220  20.613
 1409W        W 5370  21.920  18.066  18.845
 1410W        W 5371  23.182  17.359  18.500
 1411W        W 5372  22.905  15.585  19.217
 1412W        W 5373  22.004  14.814  18.512
 1413W        W 5374  23.290  17.133  20.802
 1414W        W 5375  23.089  17.049  19.894
 1415W        W 5376  22.831  17.001  18.292
 1416W        W 5377  22.072  17.242  19.060
 1417W        W 5378  22.576  16.312  21.502
 1418W        W 5379  23.280  14.872  21.688
 1419W        W 5380  23.184  14.782  19.325
 1420W        W 5381  22.188  14.791  20.407
 1421W        W 5382  22.236  15.754  19.777
 1422W        W 5383  22.347  15.360  18.997
 1423W        W 5384  22.606  15.009  20.117
 1424W        W 5385  21.868  15.271  18.535
 1425W        W 5386  22.654  16.660  21.096
 1426W        W 5387  22.025  16.644  18.268
 1427W        W 5388  22.760  17.055  21.394
 1428W        W 5389  22.281  16.222  21.025
 1429W        W 5390  23.272  16.327  20.819
 1430W        W 5391  22.665  15.386  21.340
 1431W        W 5392  22.925  15.065  21.002
 1432W        W 5393  22.897  17.313  18.953
 1433W        W 5394  22.420  15.437  20.941
 1434W        W 5395  22.033  17.435  21.362
 1435W        W 5396  22.776  15.427  20.600
 1436W        W 5397  22.746  14.775  19.710
 1437W        W 5398  22.490  17.488  21.524
 1438W        W 5399  22.976  15.190  19.766
 1439W        W 5400  22.745  16.683  19.856
 1440W        W 5401  23.058  18.094  20.606
 1441W        W 5402  22.133  16.176  18.486
 1442W        W 5403  23.243  14.677  21.205
 1443W        W 5404  23.095  15.708  19.784
 1444W        W 5405  23.101  15.577  21.083
 1445W        W 5406  22.397  18.002  21.333
 1446W        W 5407  22.509  17.363  18.463
 1447W        W 5408  22.630  15.913  21.159
 1448W        W 5409  23.148  16.900  19.111
 1449W        W 5410  22.698  16.282  20.765
 1450W        W 5411  22.363  14.954  21.175
 1451W        W 5412  22.702  15.977  20.228
 1452W        W 5413  21.874  17.550  20.895
 1453W        W 5414  23.282  15.284  18.443
 1454W        W 5415  22.417  16.100  19.224
 1455W        W 5416  22.188  17.952  20.661
 1456W        W 5417  22.112  16.227  21.595
 1457W        W 5418  22.461  16.228  19.903
 1458W        W 5419  22.755  17.167  19.552
 1459W        W 5420  21.960  17.894  19.661
 1460W        W 5421  22.469  17.081  19.197
 1461W        W 5422  22.384  14.698  21.750
 1462W        W 5423  21.978  17.105  20.242
 1463W        W 5424  23.231  15.067  18.883
 1464W        W 5425  23.035  16.551  21.732
 1465W        W 5426  22.388  17.547  21.003
 1466W        W 5427  22.979  17.530  21.726
 1467W        W 5428  22.830  15.327  18.740
 1468W        W 5429  22.990  16.169  19.901
 1469W        W 5430  22.645  17.867  20.766
 1470W        W 5431  22.253  16.656  21.363
 1471W        W 5432  22.684  16.567  19.293
 1472W        W 5433  23.055  17.574  20.688
 1473W        W 5434  22.044  16.977  18.659
 1474W        W 5435  22.209  16.477  19.548
 1475W        W 5436  22.623  18.179  20.301
 1476W        W 5437  22.838  17.664  19.415
 1477W        W 5438  23.037  14.774  20.109
 1478W        W 5439  22.100  17.596  18.657
 1479W        W 5440  22.791  17.755  21.254
 1480W        W 5441  22.268  16.578  18.950
 1481W        W 5442  22.153  15.121  19.949
 1482W        W 5443  21.953  14.940  19.026
 1483W        W 5444  23.084  17.792  18.915
 1484W        W 5445  22.166  17.955  20.086
 1485W        W 5446  22.346  15.243  21.720
 1486W        W 5447  22.077  15.843  19.053
 1487W        W 5448  22.768  15.832  18.778
 1488W        W 5449  22.874  16.440  20.304
 1489W        W 5450  23.010  15.903  20.754
 1490W        W 5451  22.046  15.819  21.185
 1491W        W 5452  22.163  17.054  19.568
 1492W        W 5453  22.310  16.351  20.458
 1493W        W 5454  23.059  17.885  20.169
 1494W        W 5455  22.519  17.081  20.064
 1495W        W 5456  22.484  17.635  20.330
 1496W        W 5457  22.611  16.086  18.325
 1497W        W 5458  23.079  17.871  22.071
 1498W        W 5459  23.162  16.023  23.054
 1499W        W 5460  22.677  15.871  23.218
 1500W        W 5461  22.350  14.952  23.033
 1501W        W 5462  22.373  18.106  22.235
 1502W        W 5463  22.766  18.152  22.911
 1503W        W 5464  22.601  17.738  22.552
 1504W        W 5465  22.606  16.566  21.995
 1505W        W 5466  22.261  15.599  22.174
 1506W        W 5467  22.323  17.555  22.968
 1507W        W 5468  21.878  16.289  22.808
 1508W        W 5469  23.249  15.659  22.477
 1509W        W 5470  22.906  14.662  22.473
 1510W        W 5471  22.470  15.058  22.222
 1511W        W 5472  22.602  17.832  21.880
 1512W        W 5473  22.808  15.075  22.886
 1513W        W 5474  22.813  15.303  21.911
 1514W        W 5475  22.854  14.754  21.988
 1515W        W 5476  22.503  15.347  23.253
 1516W        W 5477  22.289  18.059  22.929
 1517W        W 5478  22.656  16.874  22.413
 1518W        W 5479  21.920  18.066  22.490
 1519W        W 5480  23.182  17.359  22.145
 1520W        W 5481  22.905  15.585  22.862
 1521W        W 5482  22.004  14.814  22.157
 1522W        W 5483  22.831  17.001  21.937
 1523W        W 5484  22.072  17.242  22.705
 1524W        W 5485  23.184  14.782  22.970
 1525W        W 5486  22.347  15.360  22.642
 1526W        W 5487  21.868  15.271  22.180
 1527W        W 5488  22.897  17.313  22.598
 1528W        W 5489  22.133  16.176  22.131
 1529W        W 5490  22.509  17.363  22.108
 1530W        W 5491  23.148  16.900  22.756
 1531W        W 5492  23.282  15.284  22.088
 1532W        W 5493  22.417  16.100  22.869
 1533W        W 5494  22.755  17.167  23.197
 1534W        W 5495  21.960  17.894  23.306
 1535W        W 5496  22.469  17.081  22.842
 1536W        W 5497  23.231  15.067  22.528
 1537W        W 5498  22.830  15.327  22.385
 1538W        W 5499  22.044  16.977  22.304
 1539W        W 5500  22.209  16.477  23.193
 1540W        W 5501  22.838  17.664  23.060
 1541W        W 5502  22.100  17.596  22.302
 1542W        W 5503  22.268  16.578  22.595
 1543W        W 5504  21.953  14.940  22.671
 1544W        W 5505  23.084  17.792  22.560
 1545W        W 5506  22.077  15.843  22.698
 1546W        W 5507  22.768  15.832  22.423
 1547W        W 5508  22.163  17.054  23.213
 1548W        W 5509  22.611  16.086  21.970
 1549W        W 5510  21.950  21.816   3.359
 1550W        W 5511  22.326  20.709   2.882
 1551W        W 5512  23.162  19.667   1.188
 1552W        W 5513  22.677  19.515   1.352
 1553W        W 5514  21.992  18.983   3.104
 1554W        W 5515  22.754  18.263   2.906
 1555W        W 5516  22.033  18.748   2.579
 1556W        W 5517  22.132  21.367   3.600
 1557W        W 5518  22.086  19.540   2.025
 1558W        W 5519  22.979  19.431   3.262
 1559W        W 5520  22.556  20.439   2.248
 1560W        W 5521  21.915  19.967   1.819
 1561W        W 5522  22.951  19.939   3.011
 1562W        W 5523  22.838  21.166   1.710
 1563W        W 5524  21.937  19.479   3.570
 1564W        W 5525  22.350  18.596   1.167
 1565W        W 5526  22.877  20.854   2.166
 1566W        W 5527  22.373  21.750   0.369
 1567W        W 5528  22.766  21.796   1.045
 1568W        W 5529  22.563  18.550   2.471
 1569W        W 5530  22.601  21.382   0.686
 1570W        W 5531  21.972  18.881   1.285
 1571W        W 5532  22.216  21.105   1.674
 1572W        W 5533  21.972  21.239   2.172
 1573W        W 5534  22.763  20.811   2.652
 1574W        W 5535  23.136  20.171   1.271
 1575W        W 5536  23.158  18.576   2.364
 1576W        W 5537  22.606  20.210   0.129
 1577W        W 5538  22.261  19.243   0.308
 1578W        W 5539  22.323  21.199   1.102
 1579W        W 5540  21.878  19.933   0.942
 1580W        W 5541  22.989  20.348   2.515
 1581W        W 5542  22.413  19.522   2.471
 1582W        W 5543  22.398  19.398   3.393
 1583W        W 5544  22.288  18.315   1.552
 1584W        W 5545  22.591  21.586   1.625
 1585W        W 5546  23.249  19.303   0.611
 1586W        W 5547  22.818  18.587   3.275
 1587W        W 5548  22.906  18.306   0.607
 1588W        W 5549  22.284  20.292   1.789
 1589W        W 5550  22.598  19.130   1.858
 1590W        W 5551  22.152  20.330   2.632
 1591W        W 5552  22.205  19.007   2.143
 1592W        W 5553  21.943  19.286   2.472
 1593W        W 5554  22.470  18.702   0.356
 1594W        W 5555  22.602  21.476   0.014
 1595W        W 5556  22.808  18.719   1.020
 1596W        W 5557  22.813  18.947   0.045
 1597W        W 5558  21.882  20.265   2.194
 1598W        W 5559  22.854  18.398   0.122
 1599W        W 5560  23.150  20.467   2.981
 1600W        W 5561  23.077  19.035   1.989
 1601W        W 5562  22.503  18.991   1.387
 1602W        W 5563  22.289  21.703   1.063
 1603W        W 5564  22.656  20.518   0.547
 1604W        W 5565  21.936  21.638   2.860
 1605W        W 5566  22.353  20.864   2.392
 1606W        W 5567  21.920  21.710   0.624
 1607W        W 5568  23.182  21.003   0.279
 1608W        W 5569  22.905  19.229   0.996
 1609W        W 5570  22.004  18.458   0.291
 1610W        W 5571  23.290  20.777   2.581
 1611W        W 5572  23.089  20.693   1.673
 1612W        W 5573  22.831  20.645   0.071
 1613W        W 5574  22.072  20.886   0.839
 1614W        W 5575  22.576  19.956   3.281
 1615W        W 5576  23.280  18.516   3.467
 1616W        W 5577  23.184  18.426   1.104
 1617W        W 5578  22.188  18.435   2.186
 1618W        W 5579  22.236  19.398   1.556
 1619W        W 5580  22.347  19.004   0.776
 1620W        W 5581  22.606  18.653   1.896
 1621W        W 5582  21.868  18.915   0.314
 1622W        W 5583  22.654  20.304   2.875
 1623W        W 5584  22.025  20.288   0.047
 1624W        W 5585  22.760  20.699   3.173
 1625W        W 5586  22.281  19.866   2.804
 1626W        W 5587  23.272  19.971   2.598
 1627W        W 5588  22.270  20.729   3.513
 1628W        W 5589  22.665  19.030   3.119
 1629W        W 5590  22.925  18.709   2.781
 1630W        W 5591  22.897  20.957   0.732
 1631W        W 5592  22.420  19.081   2.720
 1632W        W 5593  22.033  21.079   3.141
 1633W        W 5594  22.776  19.071   2.379
 1634W        W 5595  22.746  18.419   1.489
 1635W        W 5596  22.490  21.132   3.303
 1636W        W 5597  22.976  18.834   1.545
 1637W        W 5598  22.745  20.327   1.635
 1638W        W 5599  23.058  21.738   2.385
 1639W        W 5600  22.133  19.820   0.265
 1640W        W 5601  23.243  18.321   2.984
 1641W        W 5602  23.095  19.352   1.563
 1642W        W 5603  23.101  19.221   2.862
 1643W        W 5604  22.397  21.646   3.112
 1644W        W 5605  22.509  21.007   0.242
 1645W        W 5606  22.630  19.557   2.938
 1646W        W 5607  23.148  20.544   0.890
 1647W        W 5608  22.698  19.926   2.544
 1648W        W 5609  22.363  18.598   2.954
 1649W        W 5610  22.702  19.621   2.007
 1650W        W 5611  23.071  19.435   0.129
 1651W        W 5612  21.874  21.194   2.674
 1652W        W 5613  23.282  18.928   0.222
 1653W        W 5614  22.417  19.744   1.003
 1654W        W 5615  22.188  21.596   2.440
 1655W        W 5616  22.112  19.871   3.374
 1656W        W 5617  22.461  19.872   1.682
 1657W        W 5618  22.755  20.811   1.331
 1658W        W 5619  21.960  21.538   1.440
 1659W        W 5620  22.469  20.725   0.976
 1660W        W 5621  22.384  18.342   3.529
 1661W        W 5622  21.978  20.749   2.021
 1662W        W 5623  23.231  18.711   0.662
 1663W        W 5624  23.035  20.195   3.511
 1664W        W 5625  22.388  21.191   2.782
 1665W        W 5626  22.979  21.174   3.505
 1666W        W 5627  22.830  18.971   0.519
 1667W        W 5628  22.990  19.813   1.680
 1668W        W 5629  22.645  21.511   2.545
 1669W        W 5630  22.253  20.300   3.142
 1670W        W 5631  22.684  20.211   1.072
 1671W        W 5632  23.055  21.218   2.467
 1672W        W 5633  22.044  20.621   0.438
 1673W        W 5634  22.209  20.121   1.327
 1674W        W 5635  22.623  21.823   2.080
 1675W        W 5636  22.838  21.308   1.194
 1676W        W 5637  23.037  18.418   1.888
 1677W        W 5638  22.100  21.240   0.436
 1678W        W 5639  22.791  21.399   3.033
 1679W        W 5640  22.268  20.222   0.729
 1680W        W 5641  22.153  18.765   1.728
 1681W        W 5642  21.953  18.584   0.805
 1682W        W 5643  23.084  21.436   0.694
 1683W        W 5644  22.166  21.599   1.865
 1684W        W 5645  22.346  18.887   3.499
 1685W        W 5646  22.077  19.487   0.832
 1686W        W 5647  22.768  19.476   0.557
 1687W        W 5648  22.874  20.084   2.083
 1688W        W 5649  23.010  19.547   2.533
 1689W        W 5650  22.046  19.463   2.964
 1690W        W 5651  22.163  20.698   1.347
 1691W        W 5652  22.310  19.995   2.237
 1692W        W 5653  23.059  21.529   1.948
 1693W        W 5654  22.519  20.725   1.843
 1694W        W 5655  22.484  21.279   2.109
 1695W        W 5656  22.611  19.730   0.104
 1696W        W 5657  21.950  21.816   7.003
 1697W        W 5658  22.326  20.709   6.526
 1698W        W 5659  23.079  21.515   3.849
 1699W        W 5660  23.162  19.667   4.832
 1700W        W 5661  22.677  19.515   4.996
 1701W        W 5662  21.992  18.983   6.748
 1702W        W 5663  22.754  18.263   6.550
 1703W        W 5664  22.033  18.748   6.223
 1704W        W 5665  22.132  21.367   7.244
 1705W        W 5666  22.086  19.540   5.669
 1706W        W 5667  22.979  19.431   6.906
 1707W        W 5668  22.556  20.439   5.892
 1708W        W 5669  21.915  19.967   5.463
 1709W        W 5670  22.951  19.939   6.655
 1710W        W 5671  22.838  21.166   5.354
 1711W        W 5672  21.937  19.479   7.214
 1712W        W 5673  22.350  18.596   4.811
 1713W        W 5674  22.877  20.854   5.810
 1714W        W 5675  22.373  21.750   4.013
 1715W        W 5676  22.766  21.796   4.689
 1716W        W 5677  22.563  18.550   6.115
 1717W        W 5678  22.601  21.382   4.330
 1718W        W 5679  21.972  18.881   4.929
 1719W        W 5680  22.216  21.105   5.318
 1720W        W 5681  21.972  21.239   5.816
 1721W        W 5682  22.763  20.811   6.296
 1722W        W 5683  23.136  20.171   4.915
 1723W        W 5684  23.158  18.576   6.008
 1724W        W 5685  22.606  20.210   3.773
 1725W        W 5686  22.261  19.243   3.952
 1726W        W 5687  22.323  21.199   4.746
 1727W        W 5688  21.878  19.933   4.586
 1728W        W 5689  22.989  20.348   6.159
 1729W        W 5690  22.413  19.522   6.115
 1730W        W 5691  22.398  19.398   7.037
 1731W        W 5692  22.288  18.315   5.196
 1732W        W 5693  22.591  21.586   5.269
 1733W        W 5694  23.249  19.303   4.255
 1734W        W 5695  22.818  18.587   6.919
 1735W        W 5696  22.906  18.306   4.251
 1736W        W 5697  22.284  20.292   5.433
 1737W        W 5698  22.598  19.130   5.502
 1738W        W 5699  22.152  20.330   6.276
 1739W        W 5700  22.205  19.007   5.787
 1740W        W 5701  21.943  19.286   6.116
 1741W        W 5702  22.470  18.702   4.000
 1742W        W 5703  22.602  21.476   3.658
 1743W        W 5704  22.808  18.719   4.664
 1744W        W 5705  22.813  18.947   3.689
 1745W        W 5706  21.882  20.265   5.838
 1746W        W 5707  22.854  18.398   3.766
 1747W        W 5708  23.150  20.467   6.625
 1748W        W 5709  23.077  19.035   5.633
 1749W        W 5710  22.503  18.991   5.031
 1750W        W 5711  22.289  21.703   4.707
 1751W        W 5712  22.656  20.518   4.191
 1752W        W 5713  21.936  21.638   6.504
 1753W        W 5714  22.353  20.864   6.036
 1754W        W 5715  21.920  21.710   4.268
 1755W        W 5716  23.182  21.003   3.923
 1756W        W 5717  22.905  19.229   4.640
 1757W        W 5718  22.004  18.458   3.935
 1758W        W 5719  23.290  20.777   6.225
 1759W        W 5720  23.089  20.693   5.317
 1760W        W 5721  22.831  20.645   3.715
 1761W        W 5722  22.072  20.886   4.483
 1762W        W 5723  22.576  19.956   6.925
 1763W        W 5724  23.280  18.516   7.111
 1764W        W 5725  23.184  18.426   4.748
 1765W        W 5726  22.188  18.435   5.830
 1766W        W 5727  22.236  19.398   5.200
 1767W        W 5728  22.347  19.004   4.420
 1768W        W 5729  22.606  18.653   5.540
 1769W        W 5730  21.868  18.915   3.958
 1770W        W 5731  22.654  20.304   6.519
 1771W        W 5732  22.025  20.288   3.691
 1772W        W 5733  22.760  20.699   6.817
 1773W        W 5734  22.281  19.866   6.448
 1774W        W 5735  23.272  19.971   6.242
 1775W        W 5736  22.270  20.729   7.157
 1776W        W 5737  22.665  19.030   6.763
 1777W        W 5738  22.925  18.709   6.425
 1778W        W 5739  22.897  20.957   4.376
 1779W        W 5740  22.420  19.081   6.364
 1780W        W 5741  22.033  21.079   6.785
 1781W        W 5742  22.776  19.071   6.023
 1782W        W 5743  22.746  18.419   5.133
 1783W        W 5744  22.490  21.132   6.947
 1784W        W 5745  22.976  18.834   5.189
 1785W        W 5746  22.745  20.327   5.279
 1786W        W 5747  23.058  21.738   6.029
 1787W        W 5748  22.133  19.820   3.909
 1788W        W 5749  23.243  18.321   6.628
 1789W        W 5750  23.095  19.352   5.207
 1790W        W 5751  23.101  19.221   6.506
 1791W        W 5752  22.397  21.646   6.756
 1792W        W 5753  22.509  21.007   3.886
 1793W        W 5754  22.630  19.557   6.582
 1794W        W 5755  23.148  20.544   4.534
 1795W        W 5756  22.698  19.926   6.188
 1796W        W 5757  22.363  18.598   6.598
 1797W        W 5758  22.702  19.621   5.651
 1798W        W 5759  21.874  21.194   6.318
 1799W        W 5760  23.282  18.928   3.866
 1800W        W 5761  22.417  19.744   4.647
 1801W        W 5762  22.188  21.596   6.084
 1802W        W 5763  22.112  19.871   7.018
 1803W        W 5764  22.461  19.872   5.326
 1804W        W 5765  22.755  20.811   4.975
 1805W        W 5766  21.960  21.538   5.084
 1806W        W 5767  22.469  20.725   4.620
 1807W        W 5768  22.384  18.342   7.173
 1808W        W 5769  21.978  20.749   5.665
 1809W        W 5770  23.231  18.711   4.306
 1810W        W 5771  23.035  20.195   7.155
 1811W        W 5772  22.388  21.191   6.426
 1812W        W 5773  22.979  21.174   7.149
 1813W        W 5774  22.830  18.971   4.163
 1814W        W 5775  22.990  19.813   5.324
 1815W        W 5776  22.645  21.511   6.189
 1816W        W 5777  22.253  20.300   6.786
 1817W        W 5778  22.684  20.211   4.716
 1818W        W 5779  23.055  21.218   6.111
 1819W        W 5780  22.044  20.621   4.082
 1820W        W 5781  22.209  20.121   4.971
 1821W        W 5782  22.623  21.823   5.724
 1822W        W 5783  22.838  21.308   4.838
 1823W        W 5784  23.037  18.418   5.532
 1824W        W 5785  22.100  21.240   4.080
 1825W        W 5786  22.791  21.399   6.677
 1826W        W 5787  22.268  20.222   4.373
 1827W        W 5788  22.153  18.765   5.372
 1828W        W 5789  21.953  18.584   4.449
 1829W        W 5790  23.084  21.436   4.338
 1830W        W 5791  22.166  21.599   5.509
 1831W        W 5792  22.346  18.887   7.143
 1832W        W 5793  22.077  19.487   4.476
 1833W        W 5794  22.768  19.476   4.201
 1834W        W 5795  22.874  20.084   5.727
 1835W        W 5796  23.010  19.547   6.177
 1836W        W 5797  22.046  19.463   6.608
 1837W        W 5798  22.163  20.698   4.991
 1838W        W 5799  22.310  19.995   5.881
 1839W        W 5800  23.059  21.529   5.592
 1840W        W 5801  22.519  20.725   5.487
 1841W        W 5802  22.484  21.279   5.753
 1842W        W 5803  22.611  19.730   3.748
 1843W        W 5804  21.950  21.816  10.648
 1844W        W 5805  22.326  20.709  10.171
 1845W        W 5806  23.079  21.515   7.494
 1846W        W 5807  23.162  19.667   8.477
 1847W        W 5808  22.677  19.515   8.641
 1848W        W 5809  21.992  18.983  10.393
 1849W        W 5810  22.754  18.263  10.195
 1850W        W 5811  22.033  18.748   9.868
 1851W        W 5812  22.132  21.367  10.889
 1852W        W 5813  22.086  19.540   9.314
 1853W        W 5814  22.979  19.431  10.551
 1854W        W 5815  22.556  20.439   9.537
 1855W        W 5816  21.915  19.967   9.108
 1856W        W 5817  22.951  19.939  10.300
 1857W        W 5818  22.838  21.166   8.999
 1858W        W 5819  21.937  19.479  10.859
 1859W        W 5820  22.350  18.596   8.456
 1860W        W 5821  22.877  20.854   9.455
 1861W        W 5822  22.373  21.750   7.658
 1862W        W 5823  22.766  21.796   8.334
 1863W        W 5824  22.563  18.550   9.760
 1864W        W 5825  22.601  21.382   7.975
 1865W        W 5826  21.972  18.881   8.574
 1866W        W 5827  22.216  21.105   8.963
 1867W        W 5828  21.972  21.239   9.461
 1868W        W 5829  22.763  20.811   9.941
 1869W        W 5830  23.136  20.171   8.560
 1870W        W 5831  23.158  18.576   9.653
 1871W        W 5832  22.606  20.210   7.418
 1872W        W 5833  22.261  19.243   7.597
 1873W        W 5834  22.323  21.199   8.391
 1874W        W 5835  21.878  19.933   8.231
 1875W        W 5836  22.989  20.348   9.804
 1876W        W 5837  22.413  19.522   9.760
 1877W        W 5838  22.398  19.398  10.682
 1878W        W 5839  22.288  18.315   8.841
 1879W        W 5840  22.591  21.586   8.914
 1880W        W 5841  23.249  19.303   7.900
 1881W        W 5842  22.818  18.587  10.564
 1882W        W 5843  22.906  18.306   7.896
 1883W        W 5844  22.284  20.292   9.078
 1884W        W 5845  22.598  19.130   9.147
 1885W        W 5846  22.152  20.330   9.921
 1886W        W 5847  22.205  19.007   9.432
 1887W        W 5848  21.943  19.286   9.761
 1888W        W 5849  22.470  18.702   7.645
 1889W        W 5850  22.602  21.476   7.303
 1890W        W 5851  22.808  18.719   8.309
 1891W        W 5852  22.813  18.947   7.334
 1892W        W 5853  21.882  20.265   9.483
 1893W        W 5854  22.854  18.398   7.411
 1894W        W 5855  23.150  20.467  10.270
 1895W        W 5856  23.077  19.035   9.278
 1896W        W 5857  22.503  18.991   8.676
 1897W        W 5858  22.289  21.703   8.352
 1898W        W 5859  22.656  20.518   7.836
 1899W        W 5860  21.936  21.638  10.149
 1900W        W 5861  22.353  20.864   9.681
 1901W        W 5862  21.920  21.710   7.913
 1902W        W 5863  23.182  21.003   7.568
 1903W        W 5864  22.905  19.229   8.285
 1904W        W 5865  22.004  18.458   7.580
 1905W        W 5866  23.290  20.777   9.870
 1906W        W 5867  23.089  20.693   8.962
 1907W        W 5868  22.831  20.645   7.360
 1908W        W 5869  22.576  19.956  10.570
 1909W        W 5870  23.280  18.516  10.756
 1910W        W 5871  23.184  18.426   8.393
 1911W        W 5872  22.188  18.435   9.475
 1912W        W 5873  22.236  19.398   8.845
 1913W        W 5874  22.347  19.004   8.065
 1914W        W 5875  22.606  18.653   9.185
 1915W        W 5876  21.868  18.915   7.603
 1916W        W 5877  22.654  20.304  10.164
 1917W        W 5878  22.025  20.288   7.336
 1918W        W 5879  22.760  20.699  10.462
 1919W        W 5880  22.281  19.866  10.093
 1920W        W 5881  23.272  19.971   9.887
 1921W        W 5882  22.270  20.729  10.802
 1922W        W 5883  22.665  19.030  10.408
 1923W        W 5884  22.925  18.709  10.070
 1924W        W 5885  22.897  20.957   8.021
 1925W        W 5886  22.420  19.081  10.009
 1926W        W 5887  22.033  21.079  10.430
 1927W        W 5888  22.776  19.071   9.668
 1928W        W 5889  22.746  18.419   8.778
 1929W        W 5890  22.490  21.132  10.592
 1930W        W 5891  22.976  18.834   8.834
 1931W        W 5892  22.745  20.327   8.924
 1932W        W 5893  23.058  21.738   9.674
 1933W        W 5894  22.133  19.820   7.554
 1934W        W 5895  23.243  18.321  10.273
 1935W        W 5896  23.095  19.352   8.852
 1936W        W 5897  23.101  19.221  10.151
 1937W        W 5898  22.397  21.646  10.401
 1938W        W 5899  22.509  21.007   7.531
 1939W        W 5900  22.630  19.557  10.227
 1940W        W 5901  23.148  20.544   8.179
 1941W        W 5902  22.698  19.926   9.833
 1942W        W 5903  22.363  18.598  10.243
 1943W        W 5904  22.702  19.621   9.296
 1944W        W 5905  21.874  21.194   9.963
 1945W        W 5906  23.282  18.928   7.511
 1946W        W 5907  22.417  19.744   8.292
 1947W        W 5908  22.188  21.596   9.729
 1948W        W 5909  22.112  19.871  10.663
 1949W        W 5910  22.461  19.872   8.971
 1950W        W 5911  22.755  20.811   8.620
 1951W        W 5912  21.960  21.538   8.729
 1952W        W 5913  22.469  20.725   8.265
 1953W        W 5914  22.384  18.342  10.818
 1954W        W 5915  21.978  20.749   9.310
 1955W        W 5916  23.231  18.711   7.951
 1956W        W 5917  23.035  20.195  10.800
 1957W        W 5918  22.388  21.191  10.071
 1958W        W 5919  22.979  21.174  10.794
 1959W        W 5920  22.830  18.971   7.808
 1960W        W 5921  22.990  19.813   8.969
 1961W        W 5922  22.645  21.511   9.834
 1962W        W 5923  22.253  20.300  10.431
 1963W        W 5924  22.684  20.211   8.361
 1964W        W 5925  23.055  21.218   9.756
 1965W        W 5926  22.044  20.621   7.727
 1966W        W 5927  22.209  20.121   8.616
 1967W        W 5928  22.623  21.823   9.369
 1968W        W 5929  22.838  21.308   8.483
 1969W        W 5930  23.037  18.418   9.177
 1970W        W 5931  22.100  21.240   7.725
 1971W        W 5932  22.791  21.399  10.322
 1972W        W 5933  22.268  20.222   8.018
 1973W        W 5934  22.153  18.765   9.017
 1974W        W 5935  21.953  18.584   8.094
 1975W        W 5936  23.084  21.436   7.983
 1976W        W 5937  22.166  21.599   9.154
 1977W        W 5938  22.346  18.887  10.788
 1978W        W 5939  22.077  19.487   8.121
 1979W        W 5940  22.768  19.476   7.846
 1980W        W 5941  22.874  20.084   9.372
 1981W        W 5942  23.010  19.547   9.822
 1982W        W 5943  22.046  19.463  10.253
 1983W        W 5944  22.163  20.698   8.636
 1984W        W 5945  22.310  19.995   9.526
 1985W        W 5946  23.059  21.529   9.237
 1986W        W 5947  22.519  20.725   9.132
 1987W        W 5948  22.484  21.279   9.398
 1988W        W 5949  22.611  19.730   7.393
 1989W        W 5950  21.950  21.816  14.292
 1990W        W 5951  22.326  20.709  13.815
 1991W        W 5952  23.079  21.515  11.138
 1992W        W 5953  23.162  19.667  12.121
 1993W        W 5954  22.677  19.515  12.285
 1994W        W 5955  21.992  18.983  14.037
 1995W        W 5956  22.754  18.263  13.839
 1996W        W 5957  22.033  18.748  13.512
 1997W        W 5958  22.132  21.367  14.533
 1998W        W 5959  22.086  19.540  12.958
 1999W        W 5960  22.979  19.431  14.195
 2000W        W 5961  22.556  20.439  13.181
 2001W        W 5962  21.915  19.967  12.752
 2002W        W 5963  22.951  19.939  13.944
 2003W        W 5964  22.838  21.166  12.643
 2004W        W 5965  21.937  19.479  14.503
 2005W        W 5966  22.350  18.596  12.100
 2006W        W 5967  22.877  20.854  13.099
 2007W        W 5968  22.373  21.750  11.302
 2008W        W 5969  22.766  21.796  11.978
 2009W        W 5970  22.563  18.550  13.404
 2010W        W 5971  22.601  21.382  11.619
 2011W        W 5972  21.972  18.881  12.218
 2012W        W 5973  22.216  21.105  12.607
 2013W        W 5974  21.972  21.239  13.105
 2014W        W 5975  22.763  20.811  13.585
 2015W        W 5976  23.136  20.171  12.204
 2016W        W 5977  23.158  18.576  13.297
 2017W        W 5978  22.606  20.210  11.062
 2018W        W 5979  22.261  19.243  11.241
 2019W        W 5980  22.323  21.199  12.035
 2020W        W 5981  21.878  19.933  11.875
 2021W        W 5982  22.989  20.348  13.448
 2022W        W 5983  22.413  19.522  13.404
 2023W        W 5984  22.398  19.398  14.326
 2024W        W 5985  22.288  18.315  12.485
 2025W        W 5986  22.591  21.586  12.558
 2026W        W 5987  23.249  19.303  11.544
 2027W        W 5988  22.818  18.587  14.208
 2028W        W 5989  22.906  18.306  11.540
 2029W        W 5990  22.284  20.292  12.722
 2030W        W 5991  22.598  19.130  12.791
 2031W        W 5992  22.152  20.330  13.565
 2032W        W 5993  22.205  19.007  13.076
 2033W        W 5994  21.943  19.286  13.405
 2034W        W 5995  22.470  18.702  11.289
 2035W        W 5996  22.602  21.476  10.947
 2036W        W 5997  22.808  18.719  11.953
 2037W        W 5998  22.813  18.947  10.978
 2038W        W 5999  21.882  20.265  13.127
 2039W        W 6000  22.854  18.398  11.055
 2040W        W 6001  23.150  20.467  13.914
 2041W        W 6002  23.077  19.035  12.922
 2042W        W 6003  22.503  18.991  12.320
 2043W        W 6004  22.289  21.703  11.996
 2044W        W 6005  22.656  20.518  11.480
 2045W        W 6006  21.936  21.638  13.793
 2046W        W 6007  22.353  20.864  13.325
 2047W        W 6008  21.920  21.710  11.557
 2048W        W 6009  23.182  21.003  11.212
 2049W        W 6010  22.905  19.229  11.929
 2050W        W 6011  22.004  18.458  11.224
 2051W        W 6012  23.290  20.777  13.514
 2052W        W 6013  23.089  20.693  12.606
 2053W        W 6014  22.831  20.645  11.004
 2054W        W 6015  22.072  20.886  11.772
 2055W        W 6016  22.576  19.956  14.214
 2056W        W 6017  23.280  18.516  14.400
 2057W        W 6018  23.184  18.426  12.037
 2058W        W 6019  22.188  18.435  13.119
 2059W        W 6020  22.236  19.398  12.489
 2060W        W 6021  22.347  19.004  11.709
 2061W        W 6022  22.606  18.653  12.829
 2062W        W 6023  21.868  18.915  11.247
 2063W        W 6024  22.654  20.304  13.808
 2064W        W 6025  22.025  20.288  10.980
 2065W        W 6026  22.760  20.699  14.106
 2066W        W 6027  22.281  19.866  13.737
 2067W        W 6028  23.272  19.971  13.531
 2068W        W 6029  22.270  20.729  14.446
 2069W        W 6030  22.665  19.030  14.052
 2070W        W 6031  22.925  18.709  13.714
 2071W        W 6032  22.897  20.957  11.665
 2072W        W 6033  22.420  19.081  13.653
 2073W        W 6034  22.033  21.079  14.074
 2074W        W 6035  22.776  19.071  13.312
 2075W        W 6036  22.746  18.419  12.422
 2076W        W 6037  22.490  21.132  14.236
 2077W        W 6038  22.976  18.834  12.478
 2078W        W 6039  22.745  20.327  12.568
 2079W        W 6040  23.058  21.738  13.318
 2080W        W 6041  22.133  19.820  11.198
 2081W        W 6042  23.243  18.321  13.917
 2082W        W 6043  23.095  19.352  12.496
 2083W        W 6044  23.101  19.221  13.795
 2084W        W 6045  22.397  21.646  14.045
 2085W        W 6046  22.509  21.007  11.175
 2086W        W 6047  22.630  19.557  13.871
 2087W        W 6048  23.148  20.544  11.823
 2088W        W 6049  22.698  19.926  13.477
 2089W        W 6050  22.363  18.598  13.887
 2090W        W 6051  22.702  19.621  12.940
 2091W        W 6052  21.874  21.194  13.607
 2092W        W 6053  23.282  18.928  11.155
 2093W        W 6054  22.417  19.744  11.936
 2094W        W 6055  22.188  21.596  13.373
 2095W        W 6056  22.112  19.871  14.307
 2096W        W 6057  22.461  19.872  12.615
 2097W        W 6058  22.755  20.811  12.264
 2098W        W 6059  21.960  21.538  12.373
 2099W        W 6060  22.469  20.725  11.909
 2100W        W 6061  22.384  18.342  14.462
 2101W        W 6062  21.978  20.749  12.954
 2102W        W 6063  23.231  18.711  11.595
 2103W        W 6064  23.035  20.195  14.444
 2104W        W 6065  22.388  21.191  13.715
 2105W        W 6066  22.979  21.174  14.438
 2106W        W 6067  22.830  18.971  11.452
 2107W        W 6068  22.990  19.813  12.613
 2108W        W 6069  22.645  21.511  13.478
 2109W        W 6070  22.253  20.300  14.075
 2110W        W 6071  22.684  20.211  12.005
 2111W        W 6072  23.055  21.218  13.400
 2112W        W 6073  22.044  20.621  11.371
 2113W        W 6074  22.209  20.121  12.260
 2114W        W 6075  22.623  21.823  13.013
 2115W        W 6076  22.838  21.308  12.127
 2116W        W 6077  23.037  18.418  12.821
 2117W        W 6078  22.100  21.240  11.369
 2118W        W 6079  22.791  21.399  13.966
 2119W        W 6080  22.268  20.222  11.662
 2120W        W 6081  22.153  18.765  12.661
 2121W        W 6082  21.953  18.584  11.738
 2122W        W 6083  23.084  21.436  11.627
 2123W        W 6084  22.166  21.599  12.798
 2124W        W 6085  22.346  18.887  14.432
 2125W        W 6086  22.077  19.487  11.765
 2126W        W 6087  22.768  19.476  11.490
 2127W        W 6088  22.874  20.084  13.016
 2128W        W 6089  23.010  19.547  13.466
 2129W        W 6090  22.046  19.463  13.897
 2130W        W 6091  22.163  20.698  12.280
 2131W        W 6092  22.310  19.995  13.170
 2132W        W 6093  23.059  21.529  12.881
 2133W        W 6094  22.519  20.725  12.776
 2134W        W 6095  22.484  21.279  13.042
 2135W        W 6096  22.611  19.730  11.037
 2136W        W 6097  21.950  21.816  17.936
 2137W        W 6098  22.326  20.709  17.459
 2138W        W 6099  23.079  21.515  14.782
 2139W        W 6100  23.162  19.667  15.765
 2140W        W 6101  22.677  19.515  15.929
 2141W        W 6102  21.992  18.983  17.681
 2142W        W 6103  22.754  18.263  17.483
 2143W        W 6104  22.033  18.748  17.156
 2144W        W 6105  22.132  21.367  18.177
 2145W        W 6106  22.086  19.540  16.602
 2146W        W 6107  22.979  19.431  17.839
 2147W        W 6108  22.556  20.439  16.825
 2148W        W 6109  21.915  19.967  16.396
 2149W        W 6110  22.951  19.939  17.588
 2150W        W 6111  22.838  21.166  16.287
 2151W        W 6112  21.937  19.479  18.147
 2152W        W 6113  22.350  18.596  15.744
 2153W        W 6114  22.877  20.854  16.743
 2154W        W 6115  22.373  21.750  14.946
 2155W        W 6116  22.766  21.796  15.622
 2156W        W 6117  22.563  18.550  17.048
 2157W        W 6118  22.601  21.382  15.263
 2158W        W 6119  21.972  18.881  15.862
 2159W        W 6120  22.216  21.105  16.251
 2160W        W 6121  21.972  21.239  16.749
 2161W        W 6122  22.763  20.811  17.229
 2162W        W 6123  23.136  20.171  15.848
 2163W        W 6124  23.158  18.576  16.941
 2164W        W 6125  22.606  20.210  14.706
 2165W        W 6126  22.261  19.243  14.885
 2166W        W 6127  22.323  21.199  15.679
 2167W        W 6128  21.878  19.933  15.519
 2168W        W 6129  22.989  20.348  17.092
 2169W        W 6130  22.413  19.522  17.048
 2170W        W 6131  22.398  19.398  17.970
 2171W        W 6132  22.288  18.315  16.129
 2172W        W 6133  22.591  21.586  16.202
 2173W        W 6134  23.249  19.303  15.188
 2174W        W 6135  22.818  18.587  17.852
 2175W        W 6136  22.906  18.306  15.184
 2176W        W 6137  22.284  20.292  16.366
 2177W        W 6138  22.598  19.130  16.435
 2178W        W 6139  22.152  20.330  17.209
 2179W        W 6140  22.205  19.007  16.720
 2180W        W 6141  21.943  19.286  17.049
 2181W        W 6142  22.470  18.702  14.933
 2182W        W 6143  22.602  21.476  14.591
 2183W        W 6144  22.808  18.719  15.597
 2184W        W 6145  22.813  18.947  14.622
 2185W        W 6146  21.882  20.265  16.771
 2186W        W 6147  22.854  18.398  14.699
 2187W        W 6148  23.150  20.467  17.558
 2188W        W 6149  23.077  19.035  16.566
 2189W        W 6150  22.503  18.991  15.964
 2190W        W 6151  22.289  21.703  15.640
 2191W        W 6152  22.656  20.518  15.124
 2192W        W 6153  21.936  21.638  17.437
 2193W        W 6154  22.353  20.864  16.969
 2194W        W 6155  21.920  21.710  15.201
 2195W        W 6156  23.182  21.003  14.856
 2196W        W 6157  22.905  19.229  15.573
 2197W        W 6158  22.004  18.458  14.868
 2198W        W 6159  23.290  20.777  17.158
 2199W        W 6160  23.089  20.693  16.250
 2200W        W 6161  22.831  20.645  14.648
 2201W        W 6162  22.072  20.886  15.416
 2202W        W 6163  22.576  19.956  17.858
 2203W        W 6164  23.280  18.516  18.044
 2204W        W 6165  23.184  18.426  15.681
 2205W        W 6166  22.188  18.435  16.763
 2206W        W 6167  22.236  19.398  16.133
 2207W        W 6168  22.347  19.004  15.353
 2208W        W 6169  22.606  18.653  16.473
 2209W        W 6170  21.868  18.915  14.891
 2210W        W 6171  22.654  20.304  17.452
 2211W        W 6172  22.025  20.288  14.624
 2212W        W 6173  22.760  20.699  17.750
 2213W        W 6174  22.281  19.866  17.381
 2214W        W 6175  23.272  19.971  17.175
 2215W        W 6176  22.270  20.729  18.090
 2216W        W 6177  22.665  19.030  17.696
 2217W        W 6178  22.925  18.709  17.358
 2218W        W 6179  22.897  20.957  15.309
 2219W        W 6180  22.420  19.081  17.297
 2220W        W 6181  22.033  21.079  17.718
 2221W        W 6182  22.776  19.071  16.956
 2222W        W 6183  22.746  18.419  16.066
 2223W        W 6184  22.490  21.132  17.880
 2224W        W 6185  22.976  18.834  16.122
 2225W        W 6186  22.745  20.327  16.212
 2226W        W 6187  23.058  21.738  16.962
 2227W        W 6188  22.133  19.820  14.842
 2228W        W 6189  23.243  18.321  17.561
 2229W        W 6190  23.095  19.352  16.140
 2230W        W 6191  23.101  19.221  17.439
 2231W        W 6192  22.397  21.646  17.689
 2232W        W 6193  22.509  21.007  14.819
 2233W        W 6194  22.630  19.557  17.515
 2234W        W 6195  23.148  20.544  15.467
 2235W        W 6196  22.698  19.926  17.121
 2236W        W 6197  22.363  18.598  17.531
 2237W        W 6198  22.702  19.621  16.584
 2238W        W 6199  21.874  21.194  17.251
 2239W        W 6200  23.282  18.928  14.799
 2240W        W 6201  22.417  19.744  15.580
 2241W        W 6202  22.188  21.596  17.017
 2242W        W 6203  22.112  19.871  17.951
 2243W        W 6204  22.461  19.872  16.259
 2244W        W 6205  22.755  20.811  15.908
 2245W        W 6206  21.960  21.538  16.017
 2246W        W 6207  22.469  20.725  15.553
 2247W        W 6208  22.384  18.342  18.106
 2248W        W 6209  21.978  20.749  16.598
 2249W        W 6210  23.231  18.711  15.239
 2250W        W 6211  23.035  20.195  18.088
 2251W        W 6212  22.388  21.191  17.359
 2252W        W 6213  22.979  21.174  18.082
 2253W        W 6214  22.830  18.971  15.096
 2254W        W 6215  22.990  19.813  16.257
 2255W        W 6216  22.645  21.511  17.122
 2256W        W 6217  22.253  20.300  17.719
 2257W        W 6218  22.684  20.211  15.649
 2258W        W 6219  23.055  21.218  17.044
 2259W        W 6220  22.044  20.621  15.015
 2260W        W 6221  22.209  20.121  15.904
 2261W        W 6222  22.623  21.823  16.657
 2262W        W 6223  22.838  21.308  15.771
 2263W        W 6224  23.037  18.418  16.465
 2264W        W 6225  22.100  21.240  15.013
 2265W        W 6226  22.791  21.399  17.610
 2266W        W 6227  22.268  20.222  15.306
 2267W        W 6228  22.153  18.765  16.305
 2268W        W 6229  21.953  18.584  15.382
 2269W        W 6230  23.084  21.436  15.271
 2270W        W 6231  22.166  21.599  16.442
 2271W        W 6232  22.077  19.487  15.409
 2272W        W 6233  22.768  19.476  15.134
 2273W        W 6234  22.874  20.084  16.660
 2274W        W 6235  23.010  19.547  17.110
 2275W        W 6236  22.046  19.463  17.541
 2276W        W 6237  22.163  20.698  15.924
 2277W        W 6238  22.310  19.995  16.814
 2278W        W 6239  23.059  21.529  16.525
 2279W        W 6240  22.519  20.725  16.420
 2280W        W 6241  22.484  21.279  16.686
 2281W        W 6242  22.611  19.730  14.681
 2282W        W 6243  21.950  21.816  21.580
 2283W        W 6244  22.326  20.709  21.103
 2284W        W 6245  23.079  21.515  18.426
 2285W        W 6246  23.162  19.667  19.409
 2286W        W 6247  22.677  19.515  19.573
 2287W        W 6248  21.992  18.983  21.325
 2288W        W 6249  22.754  18.263  21.127
 2289W        W 6250  22.033  18.748  20.800
 2290W        W 6251  22.132  21.367  21.821
 2291W        W 6252  22.086  19.540  20.246
 2292W        W 6253  22.979  19.431  21.483
 2293W        W 6254  22.556  20.439  20.469
 2294W        W 6255  21.915  19.967  20.040
 2295W        W 6256  22.951  19.939  21.232
 2296W        W 6257  22.838  21.166  19.931
 2297W        W 6258  21.937  19.479  21.791
 2298W        W 6259  22.350  18.596  19.388
 2299W        W 6260  22.877  20.854  20.387
 2300W        W 6261  22.373  21.750  18.590
 2301W        W 6262  22.766  21.796  19.266
 2302W        W 6263  22.563  18.550  20.692
 2303W        W 6264  22.601  21.382  18.907
 2304W        W 6265  21.972  18.881  19.506
 2305W        W 6266  22.216  21.105  19.895
 2306W        W 6267  21.972  21.239  20.393
 2307W        W 6268  22.763  20.811  20.873
 2308W        W 6269  23.136  20.171  19.492
 2309W        W 6270  23.158  18.576  20.585
 2310W        W 6271  22.323  21.199  19.323
 2311W        W 6272  21.878  19.933  19.163
 2312W        W 6273  22.989  20.348  20.736
 2313W        W 6274  22.413  19.522  20.692
 2314W        W 6275  22.398  19.398  21.614
 2315W        W 6276  22.288  18.315  19.773
 2316W        W 6277  22.591  21.586  19.846
 2317W        W 6278  23.249  19.303  18.832
 2318W        W 6279  22.818  18.587  21.496
 2319W        W 6280  22.906  18.306  18.828
 2320W        W 6281  22.284  20.292  20.010
 2321W        W 6282  22.598  19.130  20.079
 2322W        W 6283  22.152  20.330  20.853
 2323W        W 6284  22.205  19.007  20.364
 2324W        W 6285  21.943  19.286  20.693
 2325W        W 6286  22.470  18.702  18.577
 2326W        W 6287  22.602  21.476  18.235
 2327W        W 6288  22.808  18.719  19.241
 2328W        W 6289  22.813  18.947  18.266
 2329W        W 6290  21.882  20.265  20.415
 2330W        W 6291  22.854  18.398  18.343
 2331W        W 6292  23.150  20.467  21.202
 2332W        W 6293  23.077  19.035  20.210
 2333W        W 6294  22.503  18.991  19.608
 2334W        W 6295  22.289  21.703  19.284
 2335W        W 6296  22.656  20.518  18.768
 2336W        W 6297  21.936  21.638  21.081
 2337W        W 6298  22.353  20.864  20.613
 2338W        W 6299  21.920  21.710  18.845
 2339W        W 6300  23.182  21.003  18.500
 2340W        W 6301  22.905  19.229  19.217
 2341W        W 6302  22.004  18.458  18.512
 2342W        W 6303  23.290  20.777  20.802
 2343W        W 6304  23.089  20.693  19.894
 2344W        W 6305  22.831  20.645  18.292
 2345W        W 6306  22.072  20.886  19.060
 2346W        W 6307  22.576  19.956  21.502
 2347W        W 6308  23.280  18.516  21.688
 2348W        W 6309  23.184  18.426  19.325
 2349W        W 6310  22.188  18.435  20.407
 2350W        W 6311  22.236  19.398  19.777
 2351W        W 6312  22.347  19.004  18.997
 2352W        W 6313  22.606  18.653  20.117
 2353W        W 6314  21.868  18.915  18.535
 2354W        W 6315  22.654  20.304  21.096
 2355W        W 6316  22.025  20.288  18.268
 2356W        W 6317  22.760  20.699  21.394
 2357W        W 6318  22.281  19.866  21.025
 2358W        W 6319  23.272  19.971  20.819
 2359W        W 6320  22.270  20.729  21.734
 2360W        W 6321  22.665  19.030  21.340
 2361W        W 6322  22.925  18.709  21.002
 2362W        W 6323  22.897  20.957  18.953
 2363W        W 6324  22.420  19.081  20.941
 2364W        W 6325  22.033  21.079  21.362
 2365W        W 6326  22.776  19.071  20.600
 2366W        W 6327  22.746  18.419  19.710
 2367W        W 6328  22.490  21.132  21.524
 2368W        W 6329  22.976  18.834  19.766
 2369W        W 6330  22.745  20.327  19.856
 2370W        W 6331  23.058  21.738  20.606
 2371W        W 6332  22.133  19.820  18.486
 2372W        W 6333  23.243  18.321  21.205
 2373W        W 6334  23.095  19.352  19.784
 2374W        W 6335  23.101  19.221  21.083
 2375W        W 6336  22.397  21.646  21.333
 2376W        W 6337  22.509  21.007  18.463
 2377W        W 6338  22.630  19.557  21.159
 2378W        W 6339  23.148  20.544  19.111
 2379W        W 6340  22.698  19.926  20.765
 2380W        W 6341  22.363  18.598  21.175
 2381W        W 6342  22.702  19.621  20.228
 2382W        W 6343  21.874  21.194  20.895
 2383W        W 6344  23.282  18.928  18.443
 2384W        W 6345  22.417  19.744  19.224
 2385W        W 6346  22.188  21.596  20.661
 2386W        W 6347  22.112  19.871  21.595
 2387W        W 6348  22.461  19.872  19.903
 2388W        W 6349  22.755  20.811  19.552
 2389W        W 6350  21.960  21.538  19.661
 2390W        W 6351  22.469  20.725  19.197
 2391W        W 6352  22.384  18.342  21.750
 2392W        W 6353  21.978  20.749  20.242
 2393W        W 6354  23.231  18.711  18.883
 2394W        W 6355  23.035  20.195  21.732
 2395W        W 6356  22.388  21.191  21.003
 2396W        W 6357  22.979  21.174  21.726
 2397W        W 6358  22.830  18.971  18.740
 2398W        W 6359  22.990  19.813  19.901
 2399W        W 6360  22.645  21.511  20.766
 2400W        W 6361  22.253  20.300  21.363
 2401W        W 6362  22.684  20.211  19.293
 2402W        W 6363  23.055  21.218  20.688
 2403W        W 6364  22.044  20.621  18.659
 2404W        W 6365  22.209  20.121  19.548
 2405W        W 6366  22.623  21.823  20.301
 2406W        W 6367  22.838  21.308  19.415
 2407W        W 6368  23.037  18.418  20.109
 2408W        W 6369  22.100  21.240  18.657
 2409W        W 6370  22.791  21.399  21.254
 2410W        W 6371  22.268  20.222  18.950
 2411W        W 6372  22.153  18.765  19.949
 2412W        W 6373  21.953  18.584  19.026
 2413W        W 6374  23.084  21.436  18.915
 2414W        W 6375  22.166  21.599  20.086
 2415W        W 6376  22.346  18.887  21.720
 2416W        W 6377  22.077  19.487  19.053
 2417W        W 6378  22.874  20.084  20.304
 2418W        W 6379  23.010  19.547  20.754
 2419W        W 6380  22.046  19.463  21.185
 2420W        W 6381  22.163  20.698  19.568
 2421W        W 6382  22.310  19.995  20.458
 2422W        W 6383  23.059  21.529  20.169
 2423W        W 6384  22.519  20.725  20.064
 2424W        W 6385  22.484  21.279  20.330
 2425W        W 6386  22.611  19.730  18.325
 2426W        W 6387  23.079  21.515  22.071
 2427W        W 6388  23.162  19.667  23.054
 2428W        W 6389  22.677  19.515  23.218
 2429W        W 6390  22.350  18.596  23.033
 2430W        W 6391  22.373  21.750  22.235
 2431W        W 6392  22.766  21.796  22.911
 2432W        W 6393  22.601  21.382  22.552
 2433W        W 6394  22.606  20.210  21.995
 2434W        W 6395  22.261  19.243  22.174
 2435W        W 6396  22.323  21.199  22.968
 2436W        W 6397  21.878  19.933  22.808
 2437W        W 6398  23.249  19.303  22.477
 2438W        W 6399  22.906  18.306  22.473
 2439W        W 6400  22.470  18.702  22.222
 2440W        W 6401  22.602  21.476  21.880
 2441W        W 6402  22.808  18.719  22.886
 2442W        W 6403  22.813  18.947  21.911
 2443W        W 6404  22.854  18.398  21.988
 2444W        W 6405  22.503  18.991  23.253
 2445W        W 6406  22.289  21.703  22.929
 2446W        W 6407  22.656  20.518  22.413
 2447W        W 6408  21.920  21.710  22.490
 2448W        W 6409  23.182  21.003  22.145
 2449W        W 6410  22.905  19.229  22.862
 2450W        W 6411  22.004  18.458  22.157
 2451W        W 6412  22.831  20.645  21.937
 2452W        W 6413  22.072  20.886  22.705
 2453W        W 6414  23.184  18.426  22.970
 2454W        W 6415  22.347  19.004  22.642
 2455W        W 6416  21.868  18.915  22.180
 2456W        W 6417  22.025  20.288  21.913
 2457W        W 6418  22.897  20.957  22.598
 2458W        W 6419  22.133  19.820  22.131
 2459W        W 6420  22.509  21.007  22.108
 2460W        W 6421  23.148  20.544  22.756
 2461W        W 6422  23.282  18.928  22.088
 2462W        W 6423  22.417  19.744  22.869
 2463W        W 6424  22.755  20.811  23.197
 2464W        W 6425  21.960  21.538  23.306
 2465W        W 6426  22.469  20.725  22.842
 2466W        W 6427  23.231  18.711  22.528
 2467W        W 6428  22.830  18.971  22.385
 2468W        W 6429  22.044  20.621  22.304
 2469W        W 6430  22.209  20.121  23.193
 2470W        W 6431  22.838  21.308  23.060
 2471W        W 6432  22.100  21.240  22.302
 2472W        W 6433  22.268  20.222  22.595
 2473W        W 6434  21.953  18.584  22.671
 2474W        W 6435  23.084  21.436  22.560
 2475W        W 6436  22.077  19.487  22.698
 2476W        W 6437  22.768  19.476  22.423
 2477W        W 6438  22.163  20.698  23.213
 2478W        W 6439  22.611  19.730  21.970
 2479W        W 6440  21.992  22.628   3.104
 2480W        W 6441  22.754  21.908   2.906
 2481W        W 6442  22.033  22.393   2.579
 2482W        W 6443  22.979  23.076   3.262
 2483W        W 6444  21.937  23.124   3.570
 2484W        W 6445  22.350  22.241   1.167
 2485W        W 6446  22.563  22.195   2.471
 2486W        W 6447  21.972  22.526   1.285
 2487W        W 6448  23.158  22.221   2.364
 2488W        W 6449  22.261  22.888   0.308
 2489W        W 6450  22.413  23.167   2.471
 2490W        W 6451  22.288  21.960   1.552
 2491W        W 6452  23.249  22.948   0.611
 2492W        W 6453  22.818  22.232   3.275
 2493W        W 6454  22.906  21.951   0.607
 2494W        W 6455  22.598  22.775   1.858
 2495W        W 6456  22.205  22.652   2.143
 2496W        W 6457  21.943  22.931   2.472
 2497W        W 6458  22.470  22.347   0.356
 2498W        W 6459  22.808  22.364   1.020
 2499W        W 6460  22.813  22.592   0.045
 2500W        W 6461  22.854  22.043   0.122
 2501W        W 6462  23.077  22.680   1.989
 2502W        W 6463  22.503  22.636   1.387
 2503W        W 6464  22.905  22.874   0.996
 2504W        W 6465  22.004  22.103   0.291
 2505W        W 6466  23.280  22.161   3.467
 2506W        W 6467  23.184  22.071   1.104
 2507W        W 6468  22.188  22.080   2.186
 2508W        W 6469  22.347  22.649   0.776
 2509W        W 6470  22.606  22.298   1.896
 2510W        W 6471  21.868  22.560   0.314
 2511W        W 6472  22.665  22.675   3.119
 2512W        W 6473  22.925  22.354   2.781
 2513W        W 6474  22.420  22.726   2.720
 2514W        W 6475  22.776  22.716   2.379
 2515W        W 6476  22.746  22.064   1.489
 2516W        W 6477  22.976  22.479   1.545
 2517W        W 6478  23.243  21.966   2.984
 2518W        W 6479  23.095  22.997   1.563
 2519W        W 6480  23.101  22.866   2.862
 2520W        W 6481  22.363  22.243   2.954
 2521W        W 6482  22.702  23.266   2.007
 2522W        W 6483  23.071  23.080   0.129
 2523W        W 6484  23.282  22.573   0.222
 2524W        W 6485  22.384  21.987   3.529
 2525W        W 6486  23.231  22.356   0.662
 2526W        W 6487  22.830  22.616   0.519
 2527W        W 6488  23.037  22.063   1.888
 2528W        W 6489  22.153  22.410   1.728
 2529W        W 6490  21.953  22.229   0.805
 2530W        W 6491  22.346  22.532   3.499
 2531W        W 6492  22.077  23.132   0.832
 2532W        W 6493  23.010  23.192   2.533
 2533W        W 6494  22.046  23.108   2.964
 2534W        W 6495  21.992  22.628   6.748
 2535W        W 6496  22.754  21.908   6.550
 2536W        W 6497  22.033  22.393   6.223
 2537W        W 6498  21.937  23.124   7.214
 2538W        W 6499  22.350  22.241   4.811
 2539W        W 6500  22.563  22.195   6.115
 2540W        W 6501  21.972  22.526   4.929
 2541W        W 6502  23.158  22.221   6.008
 2542W        W 6503  22.261  22.888   3.952
 2543W        W 6504  22.413  23.167   6.115
 2544W        W 6505  22.288  21.960   5.196
 2545W        W 6506  23.249  22.948   4.255
 2546W        W 6507  22.818  22.232   6.919
 2547W        W 6508  22.906  21.951   4.251
 2548W        W 6509  22.598  22.775   5.502
 2549W        W 6510  22.205  22.652   5.787
 2550W        W 6511  21.943  22.931   6.116
 2551W        W 6512  22.470  22.347   4.000
 2552W        W 6513  22.808  22.364   4.664
 2553W        W 6514  22.813  22.592   3.689
 2554W        W 6515  22.854  22.043   3.766
 2555W        W 6516  23.077  22.680   5.633
 2556W        W 6517  22.503  22.636   5.031
 2557W        W 6518  22.905  22.874   4.640
 2558W        W 6519  22.004  22.103   3.935
 2559W        W 6520  23.280  22.161   7.111
 2560W        W 6521  23.184  22.071   4.748
 2561W        W 6522  22.188  22.080   5.830
 2562W        W 6523  22.347  22.649   4.420
 2563W        W 6524  22.606  22.298   5.540
 2564W        W 6525  21.868  22.560   3.958
 2565W        W 6526  22.665  22.675   6.763
 2566W        W 6527  22.925  22.354   6.425
 2567W        W 6528  22.420  22.726   6.364
 2568W        W 6529  22.776  22.716   6.023
 2569W        W 6530  22.746  22.064   5.133
 2570W        W 6531  22.976  22.479   5.189
 2571W        W 6532  23.243  21.966   6.628
 2572W        W 6533  23.095  22.997   5.207
 2573W        W 6534  23.101  22.866   6.506
 2574W        W 6535  22.363  22.243   6.598
 2575W        W 6536  22.702  23.266   5.651
 2576W        W 6537  23.282  22.573   3.866
 2577W        W 6538  22.384  21.987   7.173
 2578W        W 6539  23.231  22.356   4.306
 2579W        W 6540  22.830  22.616   4.163
 2580W        W 6541  23.037  22.063   5.532
 2581W        W 6542  22.153  22.410   5.372
 2582W        W 6543  21.953  22.229   4.449
 2583W        W 6544  22.346  22.532   7.143
 2584W        W 6545  22.077  23.132   4.476
 2585W        W 6546  22.046  23.108   6.608
 2586W        W 6547  21.992  22.628  10.393
 2587W        W 6548  22.754  21.908  10.195
 2588W        W 6549  22.033  22.393   9.868
 2589W        W 6550  22.979  23.076  10.551
 2590W        W 6551  21.937  23.124  10.859
 2591W        W 6552  22.350  22.241   8.456
 2592W        W 6553  22.563  22.195   9.760
 2593W        W 6554  21.972  22.526   8.574
 2594W        W 6555  23.158  22.221   9.653
 2595W        W 6556  22.261  22.888   7.597
 2596W        W 6557  22.413  23.167   9.760
 2597W        W 6558  22.288  21.960   8.841
 2598W        W 6559  23.249  22.948   7.900
 2599W        W 6560  22.818  22.232  10.564
 2600W        W 6561  22.906  21.951   7.896
 2601W        W 6562  22.598  22.775   9.147
 2602W        W 6563  22.205  22.652   9.432
 2603W        W 6564  21.943  22.931   9.761
 2604W        W 6565  22.470  22.347   7.645
 2605W        W 6566  22.808  22.364   8.309
 2606W        W 6567  22.813  22.592   7.334
 2607W        W 6568  22.854  22.043   7.411
 2608W        W 6569  23.077  22.680   9.278
 2609W        W 6570  22.503  22.636   8.676
 2610W        W 6571  22.905  22.874   8.285
 2611W        W 6572  22.004  22.103   7.580
 2612W        W 6573  23.280  22.161  10.756
 2613W        W 6574  23.184  22.071   8.393
 2614W        W 6575  22.188  22.080   9.475
 2615W        W 6576  22.347  22.649   8.065
 2616W        W 6577  22.606  22.298   9.185
 2617W        W 6578  21.868  22.560   7.603
 2618W        W 6579  22.665  22.675  10.408
 2619W        W 6580  22.925  22.354  10.070
 2620W        W 6581  22.420  22.726  10.009
 2621W        W 6582  22.776  22.716   9.668
 2622W        W 6583  22.746  22.064   8.778
 2623W        W 6584  22.976  22.479   8.834
 2624W        W 6585  23.243  21.966  10.273
 2625W        W 6586  23.095  22.997   8.852
 2626W        W 6587  23.101  22.866  10.151
 2627W        W 6588  22.363  22.243  10.243
 2628W        W 6589  22.702  23.266   9.296
 2629W        W 6590  23.282  22.573   7.511
 2630W        W 6591  22.384  21.987  10.818
 2631W        W 6592  23.231  22.356   7.951
 2632W        W 6593  22.830  22.616   7.808
 2633W        W 6594  23.037  22.063   9.177
 2634W        W 6595  22.153  22.410   9.017
 2635W        W 6596  21.953  22.229   8.094
 2636W        W 6597  22.346  22.532  10.788
 2637W        W 6598  22.077  23.132   8.121
 2638W        W 6599  23.010  23.192   9.822
 2639W        W 6600  22.046  23.108  10.253
 2640W        W 6601  21.992  22.628  14.037
 2641W        W 6602  22.754  21.908  13.839
 2642W        W 6603  22.033  22.393  13.512
 2643W        W 6604  22.979  23.076  14.195
 2644W        W 6605  21.937  23.124  14.503
 2645W        W 6606  22.350  22.241  12.100
 2646W        W 6607  22.563  22.195  13.404
 2647W        W 6608  21.972  22.526  12.218
 2648W        W 6609  23.158  22.221  13.297
 2649W        W 6610  22.261  22.888  11.241
 2650W        W 6611  22.413  23.167  13.404
 2651W        W 6612  22.288  21.960  12.485
 2652W        W 6613  23.249  22.948  11.544
 2653W        W 6614  22.818  22.232  14.208
 2654W        W 6615  22.906  21.951  11.540
 2655W        W 6616  22.598  22.775  12.791
 2656W        W 6617  22.205  22.652  13.076
 2657W        W 6618  21.943  22.931  13.405
 2658W        W 6619  22.470  22.347  11.289
 2659W        W 6620  22.808  22.364  11.953
 2660W        W 6621  22.813  22.592  10.978
 2661W        W 6622  22.854  22.043  11.055
 2662W        W 6623  23.077  22.680  12.922
 2663W        W 6624  22.503  22.636  12.320
 2664W        W 6625  22.905  22.874  11.929
 2665W        W 6626  22.004  22.103  11.224
 2666W        W 6627  23.280  22.161  14.400
 2667W        W 6628  23.184  22.071  12.037
 2668W        W 6629  22.188  22.080  13.119
 2669W        W 6630  22.347  22.649  11.709
 2670W        W 6631  22.606  22.298  12.829
 2671W        W 6632  21.868  22.560  11.247
 2672W        W 6633  22.665  22.675  14.052
 2673W        W 6634  22.925  22.354  13.714
 2674W        W 6635  22.420  22.726  13.653
 2675W        W 6636  22.776  22.716  13.312
 2676W        W 6637  22.746  22.064  12.422
 2677W        W 6638  22.976  22.479  12.478
 2678W        W 6639  23.243  21.966  13.917
 2679W        W 6640  23.095  22.997  12.496
 2680W        W 6641  23.101  22.866  13.795
 2681W        W 6642  22.363  22.243  13.887
 2682W        W 6643  22.702  23.266  12.940
 2683W        W 6644  23.282  22.573  11.155
 2684W        W 6645  22.384  21.987  14.462
 2685W        W 6646  23.231  22.356  11.595
 2686W        W 6647  22.830  22.616  11.452
 2687W        W 6648  23.037  22.063  12.821
 2688W        W 6649  22.153  22.410  12.661
 2689W        W 6650  21.953  22.229  11.738
 2690W        W 6651  22.346  22.532  14.432
 2691W        W 6652  22.077  23.132  11.765
 2692W        W 6653  23.010  23.192  13.466
 2693W        W 6654  22.046  23.108  13.897
 2694W        W 6655  21.992  22.628  17.681
 2695W        W 6656  22.754  21.908  17.483
 2696W        W 6657  22.033  22.393  17.156
 2697W        W 6658  22.979  23.076  17.839
 2698W        W 6659  21.937  23.124  18.147
 2699W        W 6660  22.350  22.241  15.744
 2700W        W 6661  22.563  22.195  17.048
 2701W        W 6662  21.972  22.526  15.862
 2702W        W 6663  23.158  22.221  16.941
 2703W        W 6664  22.261  22.888  14.885
 2704W        W 6665  22.413  23.167  17.048
 2705W        W 6666  22.288  21.960  16.129
 2706W        W 6667  22.818  22.232  17.852
 2707W        W 6668  22.906  21.951  15.184
 2708W        W 6669  22.598  22.775  16.435
 2709W        W 6670  22.205  22.652  16.720
 2710W        W 6671  21.943  22.931  17.049
 2711W        W 6672  22.470  22.347  14.933
 2712W        W 6673  22.808  22.364  15.597
 2713W        W 6674  22.813  22.592  14.622
 2714W        W 6675  22.854  22.043  14.699
 2715W        W 6676  22.004  22.103  14.868
 2716W        W 6677  23.280  22.161  18.044
 2717W        W 6678  23.184  22.071  15.681
 2718W        W 6679  22.188  22.080  16.763
 2719W        W 6680  22.347  22.649  15.353
 2720W        W 6681  22.606  22.298  16.473
 2721W        W 6682  21.868  22.560  14.891
 2722W        W 6683  22.665  22.675  17.696
 2723W        W 6684  22.925  22.354  17.358
 2724W        W 6685  22.420  22.726  17.297
 2725W        W 6686  22.776  22.716  16.956
 2726W        W 6687  22.746  22.064  16.066
 2727W        W 6688  23.243  21.966  17.561
 2728W        W 6689  23.095  22.997  16.140
 2729W        W 6690  23.101  22.866  17.439
 2730W        W 6691  22.363  22.243  17.531
 2731W        W 6692  22.702  23.266  16.584
 2732W        W 6693  23.282  22.573  14.799
 2733W        W 6694  22.384  21.987  18.106
 2734W        W 6695  23.231  22.356  15.239
 2735W        W 6696  22.830  22.616  15.096
 2736W        W 6697  23.037  22.063  16.465
 2737W        W 6698  22.153  22.410  16.305
 2738W        W 6699  21.953  22.229  15.382
 2739W        W 6700  22.346  22.532  18.076
 2740W        W 6701  22.077  23.132  15.409
 2741W        W 6702  23.010  23.192  17.110
 2742W        W 6703  22.046  23.108  17.541
 2743W        W 6704  21.992  22.628  21.325
 2744W        W 6705  22.754  21.908  21.127
 2745W        W 6706  22.033  22.393  20.800
 2746W        W 6707  22.979  23.076  21.483
 2747W        W 6708  21.937  23.124  21.791
 2748W        W 6709  22.350  22.241  19.388
 2749W        W 6710  22.563  22.195  20.692
 2750W        W 6711  21.972  22.526  19.506
 2751W        W 6712  23.158  22.221  20.585
 2752W        W 6713  22.261  22.888  18.529
 2753W        W 6714  22.413  23.167  20.692
 2754W        W 6715  22.288  21.960  19.773
 2755W        W 6716  23.249  22.948  18.832
 2756W        W 6717  22.818  22.232  21.496
 2757W        W 6718  22.906  21.951  18.828
 2758W        W 6719  22.598  22.775  20.079
 2759W        W 6720  22.205  22.652  20.364
 2760W        W 6721  21.943  22.931  20.693
 2761W        W 6722  22.470  22.347  18.577
 2762W        W 6723  22.808  22.364  19.241
 2763W        W 6724  22.813  22.592  18.266
 2764W        W 6725  22.854  22.043  18.343
 2765W        W 6726  23.077  22.680  20.210
 2766W        W 6727  22.503  22.636  19.608
 2767W        W 6728  22.905  22.874  19.217
 2768W        W 6729  22.004  22.103  18.512
 2769W        W 6730  23.280  22.161  21.688
 2770W        W 6731  23.184  22.071  19.325
 2771W        W 6732  22.188  22.080  20.407
 2772W        W 6733  22.347  22.649  18.997
 2773W        W 6734  22.606  22.298  20.117
 2774W        W 6735  21.868  22.560  18.535
 2775W        W 6736  22.665  22.675  21.340
 2776W        W 6737  22.925  22.354  21.002
 2777W        W 6738  22.420  22.726  20.941
 2778W        W 6739  22.776  22.716  20.600
 2779W        W 6740  22.746  22.064  19.710
 2780W        W 6741  22.976  22.479  19.766
 2781W        W 6742  23.243  21.966  21.205
 2782W        W 6743  23.095  22.997  19.784
 2783W        W 6744  23.101  22.866  21.083
 2784W        W 6745  22.363  22.243  21.175
 2785W        W 6746  22.702  23.266  20.228
 2786W        W 6747  23.282  22.573  18.443
 2787W        W 6748  22.384  21.987  21.750
 2788W        W 6749  23.231  22.356  18.883
 2789W        W 6750  22.830  22.616  18.740
 2790W        W 6751  23.037  22.063  20.109
 2791W        W 6752  22.153  22.410  19.949
 2792W        W 6753  21.953  22.229  19.026
 2793W        W 6754  22.346  22.532  21.720
 2794W        W 6755  22.077  23.132  19.053
 2795W        W 6756  23.010  23.192  20.754
 2796W        W 6757  22.046  23.108  21.185
 2797W        W 6758  22.350  22.241  23.033
 2798W        W 6759  22.261  22.888  22.174
 2799W        W 6760  23.249  22.948  22.477
 2800W        W 6761  22.906  21.951  22.473
 2801W        W 6762  22.470  22.347  22.222
 2802W        W 6763  22.808  22.364  22.886
 2803W        W 6764  22.813  22.592  21.911
 2804W        W 6765  22.854  22.043  21.988
 2805W        W 6766  22.503  22.636  23.253
 2806W        W 6767  22.905  22.874  22.862
 2807W        W 6768  22.004  22.103  22.157
 2808W        W 6769  23.184  22.071  22.970
 2809W        W 6770  22.347  22.649  22.642
 2810W        W 6771  21.868  22.560  22.180
 2811W        W 6772  23.282  22.573  22.088
 2812W        W 6773  23.231  22.356  22.528
 2813W        W 6774  22.830  22.616  22.385
 2814W        W 6775  21.953  22.229  22.671
 2815W        W 6776  22.077  23.132  22.698
  23.00000  23.00000  23.00000
