/home/3770/.conda/envs/md/bin/polyply gen_coords -p top/system_surfactant.top -o surfactant.gro -name surfactant -box 3 3 3
34
    0PS8B    C0    1  -0.822   1.311   1.378
    0PS8B    C1    2  -0.682   1.281   1.277
    0PS8B    C2    3  -0.560   1.394   1.222
    0PS8B    C3    4  -0.454   1.403   1.071
    0PS8B    B4    5  -0.362   1.312   1.019
    0PS8B    B5    6  -0.239   1.293   0.931
    0PS8B    B6    7  -0.161   1.387   0.886
    0PS8B    B7    8  -0.129   1.505   0.926
    0PS8B    B8    9  -0.092   1.557   1.038
    0PS8B    B9   10  -0.034   1.513   1.145
    0PS8B   B10   11   0.029   1.412   1.173
    0PS8B   B11   12   0.024   1.293   1.139
    0PS8B   B12   13   0.026   1.231   1.027
    0PS8B   B13   14   0.057   1.262   0.906
    0PS8B   B14   15   0.055   1.371   0.837
    0PS8B   B15   16   0.042   1.497   0.864
    0PS8B   B16   17   0.080   1.334   1.117
    0PS8B   B17   18   0.089   1.411   1.062
    0PS8B   B18   19   0.124   1.331   1.034
    0PS8B   B19   20   0.106   1.524   1.063
    0PS8B   B20   21   0.176   1.598   1.142
    0PS8B   B21   22   0.276   1.578   1.221
    0PS8B   B22   23   0.297   1.592   1.347
    0PS8B   B23   24   0.394   1.563   1.427
    0PS8B   B24   25   0.207   1.285   0.980
    0PS8B   B25   26   0.281   1.180   0.988
    0PS8B   B26   27   0.290   1.081   1.069
    0PS8B   B27   28   0.242   0.962   1.073
    0PS8B   B28   29   0.291   0.844   1.088
    0PS8B   B29   30   0.104   1.613   0.789
    0PS8B   C30   31   0.115   1.679   0.665
    0PS8B   C31   32   0.014   1.663   0.512
    0PS8B   C32   33   0.053   1.628   0.345
    0PS8B   C33   34   0.164   1.711   0.238
3.0 3.0 3.0
