/home/3770/.conda/envs/md/bin/polyply gen_coords -p top/polymer.top -o polymer.gro -name polymer -box 2.5 2.5 2.5
125
    1LMA     MB    1   0.479   1.771   1.203
    1LMA     ME    2   0.380   1.808   1.241
    1LMA     MT    3   0.229   1.808   1.216
    1LMA     E1    4   0.047   1.807   1.185
    1LMA     E2    5  -0.134   1.806   1.155
    2LMA     MB    6   1.087   1.536   1.276
    2LMA     ME    7   1.143   1.623   1.230
    2LMA     MT    8   1.180   1.770   1.249
    2LMA     E1    9   1.226   1.947   1.271
    2LMA     E2   10   1.271   2.124   1.294
    3LMA     MB   11   1.224   0.526   1.359
    3LMA     ME   12   1.289   0.447   1.406
    3LMA     MT   13   1.321   0.297   1.407
    3LMA     E1   14   1.359   0.117   1.407
    3LMA     E2   15   1.397  -0.063   1.408
    4LMA     MB   16   0.687   2.139   1.192
    4LMA     ME   17   0.607   2.197   1.139
    4LMA     MT   18   0.492   2.296   1.159
    4LMA     E1   19   0.354   2.416   1.183
    4LMA     E2   20   0.216   2.535   1.207
    5LMA     MB   21   1.715   2.299   1.040
    5LMA     ME   22   1.815   2.261   1.077
    5LMA     MT   23   1.967   2.281   1.068
    5LMA     E1   24   2.149   2.305   1.057
    5LMA     E2   25   2.331   2.330   1.047
    6LMA     MB   26   1.203   2.240   0.743
    6LMA     ME   27   1.117   2.312   0.732
    6LMA     MT   28   1.069   2.453   0.768
    6LMA     E1   29   1.011   2.623   0.810
    6LMA     E2   30   0.953   2.792   0.853
    7LMA     MB   31   1.432   0.982   0.398
    7LMA     ME   32   1.437   0.870   0.395
    7LMA     MT   33   1.451   0.749   0.301
    7LMA     E1   34   1.468   0.604   0.189
    7LMA     E2   35   1.485   0.459   0.077
    8LMA     MB   36   1.455   1.525   0.688
    8LMA     ME   37   1.472   1.449   0.770
    8LMA     MT   38   1.508   1.433   0.918
    8LMA     E1   39   1.551   1.414   1.096
    8LMA     E2   40   1.594   1.395   1.274
    9LMA     MB   41   1.547   2.000   0.409
    9LMA     ME   42   1.490   2.072   0.343
    9LMA     MT   43   1.394   2.191   0.343
    9LMA     E1   44   1.279   2.335   0.344
    9LMA     E2   45   1.164   2.478   0.345
   10LMA     MB   46   2.165   1.663   0.570
   10LMA     ME   47   2.216   1.649   0.470
   10LMA     MT   48   2.234   1.710   0.331
   10LMA     E1   49   2.257   1.784   0.163
   10LMA     E2   50   2.279   1.858  -0.004
   11LMA     MB   51   2.345   0.899   2.024
   11LMA     ME   52   2.316   0.871   2.130
   11LMA     MT   53   2.353   0.888   2.277
   11LMA     E1   54   2.397   0.909   2.455
   11LMA     E2   55   2.442   0.929   2.632
   12LMA     MB   56   2.243   0.395   1.700
   12LMA     ME   57   2.257   0.285   1.675
   12LMA     MT   58   2.361   0.175   1.656
   12LMA     E1   59   2.486   0.042   1.633
   12LMA     E2   60   2.611  -0.091   1.609
   13LMA     MB   61   0.793   1.892   1.888
   13LMA     ME   62   0.712   1.960   1.928
   13LMA     MT   63   0.671   2.106   1.945
   13LMA     E1   64   0.622   2.282   1.966
   13LMA     E2   65   0.573   2.459   1.987
   14LMA     MB   66   0.711   0.712   1.481
   14LMA     ME   67   0.665   0.609   1.480
   14LMA     MT   68   0.667   0.473   1.409
   14LMA     E1   69   0.669   0.310   1.324
   14LMA     E2   70   0.672   0.147   1.239
   15LMA     MB   71   1.026   1.118   1.660
   15LMA     ME   72   0.991   1.224   1.641
   15LMA     MT   73   0.905   1.337   1.697
   15LMA     E1   74   0.801   1.474   1.764
   15LMA     E2   75   0.697   1.610   1.830
   16LMA     MB   76   1.561   1.070   1.751
   16LMA     ME   77   1.634   1.019   1.682
   16LMA     MT   78   1.724   0.897   1.666
   16LMA     E1   79   1.832   0.749   1.647
   16LMA     E2   80   1.940   0.601   1.627
   17LMA     MB   81   1.409   1.617   1.857
   17LMA     ME   82   1.411   1.618   1.970
   17LMA     MT   83   1.468   1.690   2.093
   17LMA     E1   84   1.537   1.776   2.240
   17LMA     E2   85   1.607   1.862   2.387
   18LMA     MB   86   0.806   1.428   0.424
   18LMA     ME   87   0.751   1.403   0.329
   18LMA     MT   88   0.711   1.456   0.191
   18LMA     E1   89   0.664   1.520   0.025
   18LMA     E2   90   0.616   1.584  -0.141
   19LMA     MB   91   0.988   1.092   1.101
   19LMA     ME   92   0.971   0.985   1.069
   19LMA     MT   93   0.942   0.894   0.949
   19LMA     E1   94   0.907   0.785   0.805
   19LMA     E2   95   0.872   0.676   0.661
   20LMA     MB   96   1.015   0.894   1.655
   20LMA     ME   97   1.072   0.913   1.751
   20LMA     MT   98   1.168   0.850   1.852
   20LMA     E1   99   1.283   0.775   1.975
   20LMA     E2  100   1.398   0.699   2.097
   21LMA     MB  101   0.514   0.768   1.285
   21LMA     ME  102   0.424   0.835   1.283
   21LMA     MT  103   0.346   0.942   1.361
   21LMA     E1  104   0.253   1.070   1.455
   21LMA     E2  105   0.161   1.198   1.549
   22LMA     MB  106   0.635   0.299   0.753
   22LMA     ME  107   0.525   0.305   0.777
   22LMA     MT  108   0.386   0.265   0.729
   22LMA     E1  109   0.218   0.218   0.670
   22LMA     E2  110   0.050   0.170   0.612
   23LMA     MB  111   1.799   0.188   0.606
   23LMA     ME  112   1.872   0.109   0.571
   23LMA     MT  113   1.940   0.050   0.448
   23LMA     E1  114   2.021  -0.022   0.299
   23LMA     E2  115   2.102  -0.094   0.150
   24LMA     MB  116   2.100   0.607   0.983
   24LMA     ME  117   2.186   0.566   1.042
   24LMA     MT  118   2.325   0.599   1.098
   24LMA     E1  119   2.491   0.639   1.167
   24LMA     E2  120   2.657   0.680   1.235
   25LMA     MB  121   0.749   0.884   0.519
   25LMA     ME  122   0.672   0.921   0.445
   25LMA     MT  123   0.522   0.940   0.421
   25LMA     E1  124   0.342   0.962   0.392
   25LMA     E2  125   0.162   0.984   0.363
2.5 2.5 2.5
