/home/3770/.conda/envs/md/bin/polyply gen_coords -p top/surfactant.top -o surfactant.gro -name surfactant -box 2.5 2.5 2.5
34
    0PS8B    C0    1   2.359   0.714   0.245
    0PS8B    C1    2   2.399   0.657   0.406
    0PS8B    C2    3   2.291   0.624   0.540
    0PS8B    C3    4   2.129   0.694   0.594
    0PS8B    B4    5   2.096   0.820   0.644
    0PS8B    B5    6   2.133   0.931   0.742
    0PS8B    B6    7   2.193   0.916   0.856
    0PS8B    B7    8   2.219   0.816   0.932
    0PS8B    B8    9   2.173   0.697   0.945
    0PS8B    B9   10   2.058   0.642   0.926
    0PS8B   B10   11   1.943   0.683   0.917
    0PS8B   B11   12   1.874   0.764   0.978
    0PS8B   B12   13   1.897   0.875   1.040
    0PS8B   B13   14   2.003   0.943   1.066
    0PS8B   B14   15   2.039   1.021   1.163
    0PS8B   B15   16   2.059   1.006   1.289
    0PS8B   B16   17   1.891   0.774   0.945
    0PS8B   B17   18   1.911   0.735   1.028
    0PS8B   B18   19   1.870   0.816   1.025
    0PS8B   B19   20   1.917   0.636   1.084
    0PS8B   B20   21   1.837   0.535   1.085
    0PS8B   B21   22   1.733   0.501   1.016
    0PS8B   B22   23   1.611   0.541   1.009
    0PS8B   B23   24   1.499   0.499   1.056
    0PS8B   B24   25   1.796   0.878   1.075
    0PS8B   B25   26   1.679   0.925   1.052
    0PS8B   B26   27   1.630   1.043   1.040
    0PS8B   B27   28   1.647   1.140   0.957
    0PS8B   B28   29   1.590   1.254   0.938
    0PS8B   B29   30   2.109   0.880   1.358
    0PS8B   C30   31   2.197   0.773   1.353
    0PS8B   C31   32   2.360   0.747   1.433
    0PS8B   C32   33   2.453   0.838   1.551
    0PS8B   C33   34   2.407   0.885   1.714
2.5 2.5 2.5
