; /home/3770/.conda/envs/md/bin/polyply gen_params -lib martini2 -o plma25.martini2.itp -name PLMA25 -seq LMA:25

; Please cite the following papers:
; Kroon, P C; Grunewald, F; Barnoud, J; van Tilburg, M; Souza, P C; Wassenaar, T A; Marrink, S J;  elife 2024; 10.7554/elife.90627.2

[ moleculetype ]
PLMA25 1

[ atoms ]
  1 SC1  1 LMA MB   1 0.0 
  2 Na   1 LMA ME   2 0.0 
  3 SC1  1 LMA MT   3 0.0 
  4 C1   1 LMA E1   4 0.0 
  5 C1   1 LMA E2   5 0.0 
  6 SC1  2 LMA MB   6 0.0 
  7 Na   2 LMA ME   7 0.0 
  8 SC1  2 LMA MT   8 0.0 
  9 C1   2 LMA E1   9 0.0 
 10 C1   2 LMA E2  10 0.0 
 11 SC1  3 LMA MB  11 0.0 
 12 Na   3 LMA ME  12 0.0 
 13 SC1  3 LMA MT  13 0.0 
 14 C1   3 LMA E1  14 0.0 
 15 C1   3 LMA E2  15 0.0 
 16 SC1  4 LMA MB  16 0.0 
 17 Na   4 LMA ME  17 0.0 
 18 SC1  4 LMA MT  18 0.0 
 19 C1   4 LMA E1  19 0.0 
 20 C1   4 LMA E2  20 0.0 
 21 SC1  5 LMA MB  21 0.0 
 22 Na   5 LMA ME  22 0.0 
 23 SC1  5 LMA MT  23 0.0 
 24 C1   5 LMA E1  24 0.0 
 25 C1   5 LMA E2  25 0.0 
 26 SC1  6 LMA MB  26 0.0 
 27 Na   6 LMA ME  27 0.0 
 28 SC1  6 LMA MT  28 0.0 
 29 C1   6 LMA E1  29 0.0 
 30 C1   6 LMA E2  30 0.0 
 31 SC1  7 LMA MB  31 0.0 
 32 Na   7 LMA ME  32 0.0 
 33 SC1  7 LMA MT  33 0.0 
 34 C1   7 LMA E1  34 0.0 
 35 C1   7 LMA E2  35 0.0 
 36 SC1  8 LMA MB  36 0.0 
 37 Na   8 LMA ME  37 0.0 
 38 SC1  8 LMA MT  38 0.0 
 39 C1   8 LMA E1  39 0.0 
 40 C1   8 LMA E2  40 0.0 
 41 SC1  9 LMA MB  41 0.0 
 42 Na   9 LMA ME  42 0.0 
 43 SC1  9 LMA MT  43 0.0 
 44 C1   9 LMA E1  44 0.0 
 45 C1   9 LMA E2  45 0.0 
 46 SC1 10 LMA MB  46 0.0 
 47 Na  10 LMA ME  47 0.0 
 48 SC1 10 LMA MT  48 0.0 
 49 C1  10 LMA E1  49 0.0 
 50 C1  10 LMA E2  50 0.0 
 51 SC1 11 LMA MB  51 0.0 
 52 Na  11 LMA ME  52 0.0 
 53 SC1 11 LMA MT  53 0.0 
 54 C1  11 LMA E1  54 0.0 
 55 C1  11 LMA E2  55 0.0 
 56 SC1 12 LMA MB  56 0.0 
 57 Na  12 LMA ME  57 0.0 
 58 SC1 12 LMA MT  58 0.0 
 59 C1  12 LMA E1  59 0.0 
 60 C1  12 LMA E2  60 0.0 
 61 SC1 13 LMA MB  61 0.0 
 62 Na  13 LMA ME  62 0.0 
 63 SC1 13 LMA MT  63 0.0 
 64 C1  13 LMA E1  64 0.0 
 65 C1  13 LMA E2  65 0.0 
 66 SC1 14 LMA MB  66 0.0 
 67 Na  14 LMA ME  67 0.0 
 68 SC1 14 LMA MT  68 0.0 
 69 C1  14 LMA E1  69 0.0 
 70 C1  14 LMA E2  70 0.0 
 71 SC1 15 LMA MB  71 0.0 
 72 Na  15 LMA ME  72 0.0 
 73 SC1 15 LMA MT  73 0.0 
 74 C1  15 LMA E1  74 0.0 
 75 C1  15 LMA E2  75 0.0 
 76 SC1 16 LMA MB  76 0.0 
 77 Na  16 LMA ME  77 0.0 
 78 SC1 16 LMA MT  78 0.0 
 79 C1  16 LMA E1  79 0.0 
 80 C1  16 LMA E2  80 0.0 
 81 SC1 17 LMA MB  81 0.0 
 82 Na  17 LMA ME  82 0.0 
 83 SC1 17 LMA MT  83 0.0 
 84 C1  17 LMA E1  84 0.0 
 85 C1  17 LMA E2  85 0.0 
 86 SC1 18 LMA MB  86 0.0 
 87 Na  18 LMA ME  87 0.0 
 88 SC1 18 LMA MT  88 0.0 
 89 C1  18 LMA E1  89 0.0 
 90 C1  18 LMA E2  90 0.0 
 91 SC1 19 LMA MB  91 0.0 
 92 Na  19 LMA ME  92 0.0 
 93 SC1 19 LMA MT  93 0.0 
 94 C1  19 LMA E1  94 0.0 
 95 C1  19 LMA E2  95 0.0 
 96 SC1 20 LMA MB  96 0.0 
 97 Na  20 LMA ME  97 0.0 
 98 SC1 20 LMA MT  98 0.0 
 99 C1  20 LMA E1  99 0.0 
100 C1  20 LMA E2 100 0.0 
101 SC1 21 LMA MB 101 0.0 
102 Na  21 LMA ME 102 0.0 
103 SC1 21 LMA MT 103 0.0 
104 C1  21 LMA E1 104 0.0 
105 C1  21 LMA E2 105 0.0 
106 SC1 22 LMA MB 106 0.0 
107 Na  22 LMA ME 107 0.0 
108 SC1 22 LMA MT 108 0.0 
109 C1  22 LMA E1 109 0.0 
110 C1  22 LMA E2 110 0.0 
111 SC1 23 LMA MB 111 0.0 
112 Na  23 LMA ME 112 0.0 
113 SC1 23 LMA MT 113 0.0 
114 C1  23 LMA E1 114 0.0 
115 C1  23 LMA E2 115 0.0 
116 SC1 24 LMA MB 116 0.0 
117 Na  24 LMA ME 117 0.0 
118 SC1 24 LMA MT 118 0.0 
119 C1  24 LMA E1 119 0.0 
120 C1  24 LMA E2 120 0.0 
121 SC1 25 LMA MB 121 0.0 
122 Na  25 LMA ME 122 0.0 
123 SC1 25 LMA MT 123 0.0 
124 C1  25 LMA E1 124 0.0 
125 C1  25 LMA E2 125 0.0 

[ bonds ]
  1   2 1 0.282 17000
  1   6 1 0.289 21100
  2   3 1 0.383 5000
  3   4 1 0.460 2000
  4   5 1 0.460 2000
  6   7 1 0.282 17000
  6  11 1 0.289 21100
  7   8 1 0.383 5000
  8   9 1 0.460 2000
  9  10 1 0.460 2000
 11  12 1 0.282 17000
 11  16 1 0.289 21100
 12  13 1 0.383 5000
 13  14 1 0.460 2000
 14  15 1 0.460 2000
 16  17 1 0.282 17000
 16  21 1 0.289 21100
 17  18 1 0.383 5000
 18  19 1 0.460 2000
 19  20 1 0.460 2000
 21  22 1 0.282 17000
 21  26 1 0.289 21100
 22  23 1 0.383 5000
 23  24 1 0.460 2000
 24  25 1 0.460 2000
 26  27 1 0.282 17000
 26  31 1 0.289 21100
 27  28 1 0.383 5000
 28  29 1 0.460 2000
 29  30 1 0.460 2000
 31  32 1 0.282 17000
 31  36 1 0.289 21100
 32  33 1 0.383 5000
 33  34 1 0.460 2000
 34  35 1 0.460 2000
 36  37 1 0.282 17000
 36  41 1 0.289 21100
 37  38 1 0.383 5000
 38  39 1 0.460 2000
 39  40 1 0.460 2000
 41  42 1 0.282 17000
 41  46 1 0.289 21100
 42  43 1 0.383 5000
 43  44 1 0.460 2000
 44  45 1 0.460 2000
 46  47 1 0.282 17000
 46  51 1 0.289 21100
 47  48 1 0.383 5000
 48  49 1 0.460 2000
 49  50 1 0.460 2000
 51  52 1 0.282 17000
 51  56 1 0.289 21100
 52  53 1 0.383 5000
 53  54 1 0.460 2000
 54  55 1 0.460 2000
 56  57 1 0.282 17000
 56  61 1 0.289 21100
 57  58 1 0.383 5000
 58  59 1 0.460 2000
 59  60 1 0.460 2000
 61  62 1 0.282 17000
 61  66 1 0.289 21100
 62  63 1 0.383 5000
 63  64 1 0.460 2000
 64  65 1 0.460 2000
 66  67 1 0.282 17000
 66  71 1 0.289 21100
 67  68 1 0.383 5000
 68  69 1 0.460 2000
 69  70 1 0.460 2000
 71  72 1 0.282 17000
 71  76 1 0.289 21100
 72  73 1 0.383 5000
 73  74 1 0.460 2000
 74  75 1 0.460 2000
 76  77 1 0.282 17000
 76  81 1 0.289 21100
 77  78 1 0.383 5000
 78  79 1 0.460 2000
 79  80 1 0.460 2000
 81  82 1 0.282 17000
 81  86 1 0.289 21100
 82  83 1 0.383 5000
 83  84 1 0.460 2000
 84  85 1 0.460 2000
 86  87 1 0.282 17000
 86  91 1 0.289 21100
 87  88 1 0.383 5000
 88  89 1 0.460 2000
 89  90 1 0.460 2000
 91  92 1 0.282 17000
 91  96 1 0.289 21100
 92  93 1 0.383 5000
 93  94 1 0.460 2000
 94  95 1 0.460 2000
 96  97 1 0.282 17000
 96 101 1 0.289 21100
 97  98 1 0.383 5000
 98  99 1 0.460 2000
 99 100 1 0.460 2000
101 102 1 0.282 17000
101 106 1 0.289 21100
102 103 1 0.383 5000
103 104 1 0.460 2000
104 105 1 0.460 2000
106 107 1 0.282 17000
106 111 1 0.289 21100
107 108 1 0.383 5000
108 109 1 0.460 2000
109 110 1 0.460 2000
111 112 1 0.282 17000
111 116 1 0.289 21100
112 113 1 0.383 5000
113 114 1 0.460 2000
114 115 1 0.460 2000
116 117 1 0.282 17000
116 121 1 0.289 21100
117 118 1 0.383 5000
118 119 1 0.460 2000
119 120 1 0.460 2000
121 122 1 0.282 17000
122 123 1 0.383 5000
123 124 1 0.460 2000
124 125 1 0.460 2000

[ angles ]
  1   2   3 2 144 67
  2   3   4 2 180 25
  3   4   5 2 180 25
  1   6  11 2 175 13
  6   7   8 2 144 67
  7   8   9 2 180 25
  8   9  10 2 180 25
  6  11  16 2 175 13
 11  12  13 2 144 67
 12  13  14 2 180 25
 13  14  15 2 180 25
 11  16  21 2 175 13
 16  17  18 2 144 67
 17  18  19 2 180 25
 18  19  20 2 180 25
 16  21  26 2 175 13
 21  22  23 2 144 67
 22  23  24 2 180 25
 23  24  25 2 180 25
 21  26  31 2 175 13
 26  27  28 2 144 67
 27  28  29 2 180 25
 28  29  30 2 180 25
 26  31  36 2 175 13
 31  32  33 2 144 67
 32  33  34 2 180 25
 33  34  35 2 180 25
 31  36  41 2 175 13
 36  37  38 2 144 67
 37  38  39 2 180 25
 38  39  40 2 180 25
 36  41  46 2 175 13
 41  42  43 2 144 67
 42  43  44 2 180 25
 43  44  45 2 180 25
 41  46  51 2 175 13
 46  47  48 2 144 67
 47  48  49 2 180 25
 48  49  50 2 180 25
 46  51  56 2 175 13
 51  52  53 2 144 67
 52  53  54 2 180 25
 53  54  55 2 180 25
 51  56  61 2 175 13
 56  57  58 2 144 67
 57  58  59 2 180 25
 58  59  60 2 180 25
 56  61  66 2 175 13
 61  62  63 2 144 67
 62  63  64 2 180 25
 63  64  65 2 180 25
 61  66  71 2 175 13
 66  67  68 2 144 67
 67  68  69 2 180 25
 68  69  70 2 180 25
 66  71  76 2 175 13
 71  72  73 2 144 67
 72  73  74 2 180 25
 73  74  75 2 180 25
 71  76  81 2 175 13
 76  77  78 2 144 67
 77  78  79 2 180 25
 78  79  80 2 180 25
 76  81  86 2 175 13
 81  82  83 2 144 67
 82  83  84 2 180 25
 83  84  85 2 180 25
 81  86  91 2 175 13
 86  87  88 2 144 67
 87  88  89 2 180 25
 88  89  90 2 180 25
 86  91  96 2 175 13
 91  92  93 2 144 67
 92  93  94 2 180 25
 93  94  95 2 180 25
 91  96 101 2 175 13
 96  97  98 2 144 67
 97  98  99 2 180 25
 98  99 100 2 180 25
 96 101 106 2 175 13
101 102 103 2 144 67
102 103 104 2 180 25
103 104 105 2 180 25
101 106 111 2 175 13
106 107 108 2 144 67
107 108 109 2 180 25
108 109 110 2 180 25
106 111 116 2 175 13
111 112 113 2 144 67
112 113 114 2 180 25
113 114 115 2 180 25
111 116 121 2 175 13
116 117 118 2 144 67
117 118 119 2 180 25
118 119 120 2 180 25
121 122 123 2 144 67
122 123 124 2 180 25
123 124 125 2 180 25

